 Entering Gaussian System, Link 0=g16
 Input=imine_nh3_mp2_avtz_opt_anharm.gjf
 Output=imine_nh3_mp2_avtz_opt_anharm.log
 Initial command:
 /sw/contrib/chem-src/g16/c01/g16/l1.exe "/scr/Gau-77474.inp" -scrdir="/scr/"
 Entering Link 1 = /sw/contrib/chem-src/g16/c01/g16/l1.exe PID=     77475.
  
 Copyright (c) 1988-2019, Gaussian, Inc.  All Rights Reserved.
  
 This is part of the Gaussian(R) 16 program.  It is based on
 the Gaussian(R) 09 system (copyright 2009, Gaussian, Inc.),
 the Gaussian(R) 03 system (copyright 2003, Gaussian, Inc.),
 the Gaussian(R) 98 system (copyright 1998, Gaussian, Inc.),
 the Gaussian(R) 94 system (copyright 1995, Gaussian, Inc.),
 the Gaussian 92(TM) system (copyright 1992, Gaussian, Inc.),
 the Gaussian 90(TM) system (copyright 1990, Gaussian, Inc.),
 the Gaussian 88(TM) system (copyright 1988, Gaussian, Inc.),
 the Gaussian 86(TM) system (copyright 1986, Carnegie Mellon
 University), and the Gaussian 82(TM) system (copyright 1983,
 Carnegie Mellon University). Gaussian is a federally registered
 trademark of Gaussian, Inc.
  
 This software contains proprietary and confidential information,
 including trade secrets, belonging to Gaussian, Inc.
  
 This software is provided under written license and may be
 used, copied, transmitted, or stored only in accord with that
 written license.
  
 The following legend is applicable only to US Government
 contracts under FAR:
  
                    RESTRICTED RIGHTS LEGEND
  
 Use, reproduction and disclosure by the US Government is
 subject to restrictions as set forth in subparagraphs (a)
 and (c) of the Commercial Computer Software - Restricted
 Rights clause in FAR 52.227-19.
  
 Gaussian, Inc.
 340 Quinnipiac St., Bldg. 40, Wallingford CT 06492
  
  
 ---------------------------------------------------------------
 Warning -- This program may not be used in any manner that
 competes with the business of Gaussian, Inc. or will provide
 assistance to any competitor of Gaussian, Inc.  The licensee
 of this program is prohibited from giving any competitor of
 Gaussian, Inc. access to this program.  By using this program,
 the user acknowledges that Gaussian, Inc. is engaged in the
 business of creating and licensing software in the field of
 computational chemistry and represents and warrants to the
 licensee that it is not a competitor of Gaussian, Inc. and that
 it will not use this program in any manner prohibited above.
 ---------------------------------------------------------------
  

 Cite this work as:
 Gaussian 16, Revision C.01,
 M. J. Frisch, G. W. Trucks, H. B. Schlegel, G. E. Scuseria, 
 M. A. Robb, J. R. Cheeseman, G. Scalmani, V. Barone, 
 G. A. Petersson, H. Nakatsuji, X. Li, M. Caricato, A. V. Marenich, 
 J. Bloino, B. G. Janesko, R. Gomperts, B. Mennucci, H. P. Hratchian, 
 J. V. Ortiz, A. F. Izmaylov, J. L. Sonnenberg, D. Williams-Young, 
 F. Ding, F. Lipparini, F. Egidi, J. Goings, B. Peng, A. Petrone, 
 T. Henderson, D. Ranasinghe, V. G. Zakrzewski, J. Gao, N. Rega, 
 G. Zheng, W. Liang, M. Hada, M. Ehara, K. Toyota, R. Fukuda, 
 J. Hasegawa, M. Ishida, T. Nakajima, Y. Honda, O. Kitao, H. Nakai, 
 T. Vreven, K. Throssell, J. A. Montgomery, Jr., J. E. Peralta, 
 F. Ogliaro, M. J. Bearpark, J. J. Heyd, E. N. Brothers, K. N. Kudin, 
 V. N. Staroverov, T. A. Keith, R. Kobayashi, J. Normand, 
 K. Raghavachari, A. P. Rendell, J. C. Burant, S. S. Iyengar, 
 J. Tomasi, M. Cossi, J. M. Millam, M. Klene, C. Adamo, R. Cammi, 
 J. W. Ochterski, R. L. Martin, K. Morokuma, O. Farkas, 
 J. B. Foresman, and D. J. Fox, Gaussian, Inc., Wallingford CT, 2019.
 
 ******************************************
 Gaussian 16:  EM64L-G16RevC.01  3-Jul-2019
                 7-Apr-2025 
 ******************************************
 %nprocshared=40
 Will use up to   40 processors via shared memory.
 %mem=50gb
 ----------------------------------------------
 # MP2/aug-cc-pVTZ opt freq=(vibrot,anharmonic)
 ----------------------------------------------
 1/18=20,19=15,38=1,80=1/1,3;
 2/9=110,12=2,17=6,18=5,40=1/2;
 3/5=16,6=1,7=10,11=9,25=1,30=1,71=1/1,2,3;
 4//1;
 5/5=2,38=5/2;
 8/6=4,10=1/1;
 9/15=2,16=-3/6;
 10/5=1/2;
 6/7=2,8=2,9=2,10=2/1;
 7/12=2/1,2,3,16;
 1/18=20,19=15,80=1/3(2);
 2/9=110/2;
 99//99;
 2/9=110/2;
 3/5=16,6=1,7=10,11=9,25=1,30=1,71=1/1,2,3;
 4/5=5,16=3,69=1/1;
 5/5=2,38=5/2;
 8/6=4,10=1/1;
 9/15=2,16=-3/6;
 10/5=1/2;
 7/12=2/1,2,3,16;
 1/18=20,19=15,80=1/3(-8);
 2/9=110/2;
 6/7=2,8=2,9=2,10=2/1;
 99/9=10/99;
 ----
 blah
 ----
 Symbolic Z-matrix:
 Charge =  0 Multiplicity = 1
 C                    -1.74569   0.40076   0.00001 
 N                    -1.04812  -0.6666    0.00002 
 H                    -1.3201    1.40674   0.0003 
 H                    -2.83026   0.32715  -0.00034 
 H                    -0.05322  -0.42142   0.00042 
 N                     2.08711   0.09258   0.00004 
 H                     2.47714   0.14347   0.93337 
 H                     2.45339  -0.75209  -0.42207 
 H                     2.47442   0.87002  -0.52043 
 
 Add virtual bond connecting atoms N6         and H5         Dist= 4.16D+00.

 GradGradGradGradGradGradGradGradGradGradGradGradGradGradGradGradGradGrad
 Berny optimization.
 Initialization pass.
                           ----------------------------
                           !    Initial Parameters    !
                           ! (Angstroms and Degrees)  !
 --------------------------                            --------------------------
 ! Name  Definition              Value          Derivative Info.                !
 --------------------------------------------------------------------------------
 ! R1    R(1,2)                  1.2751         estimate D2E/DX2                !
 ! R2    R(1,3)                  1.0923         estimate D2E/DX2                !
 ! R3    R(1,4)                  1.0871         estimate D2E/DX2                !
 ! R4    R(2,5)                  1.0247         estimate D2E/DX2                !
 ! R5    R(5,6)                  2.2012         estimate D2E/DX2                !
 ! R6    R(6,7)                  1.0128         estimate D2E/DX2                !
 ! R7    R(6,8)                  1.0128         estimate D2E/DX2                !
 ! R8    R(6,9)                  1.0126         estimate D2E/DX2                !
 ! A1    A(2,1,3)              123.9019         estimate D2E/DX2                !
 ! A2    A(2,1,4)              119.2838         estimate D2E/DX2                !
 ! A3    A(3,1,4)              116.8144         estimate D2E/DX2                !
 ! A4    A(1,2,5)              109.323          estimate D2E/DX2                !
 ! A5    A(5,6,7)              112.7076         estimate D2E/DX2                !
 ! A6    A(5,6,8)               99.0317         estimate D2E/DX2                !
 ! A7    A(5,6,9)              123.456          estimate D2E/DX2                !
 ! A8    A(7,6,8)              106.6602         estimate D2E/DX2                !
 ! A9    A(7,6,9)              106.7252         estimate D2E/DX2                !
 ! A10   A(8,6,9)              106.7237         estimate D2E/DX2                !
 ! A11   L(2,5,6,3,-1)         180.3399         estimate D2E/DX2                !
 ! A12   L(2,5,6,3,-2)         180.0344         estimate D2E/DX2                !
 ! D1    D(3,1,2,5)              0.0049         estimate D2E/DX2                !
 ! D2    D(4,1,2,5)           -179.9973         estimate D2E/DX2                !
 ! D3    D(2,1,3,4)            179.9978         estimate D2E/DX2                !
 ! D4    D(1,2,6,7)             92.5969         estimate D2E/DX2                !
 ! D5    D(1,2,6,8)           -155.0461         estimate D2E/DX2                !
 ! D6    D(1,2,6,9)            -38.0719         estimate D2E/DX2                !
 --------------------------------------------------------------------------------
 Trust Radius=3.00D-01 FncErr=1.00D-07 GrdErr=1.00D-07 EigMax=2.50D+02 EigMin=1.00D-04
 Number of steps in this run=     36 maximum allowed number of steps=    100.
 GradGradGradGradGradGradGradGradGradGradGradGradGradGradGradGradGradGrad

                          Input orientation:                          
 ---------------------------------------------------------------------
 Center     Atomic      Atomic             Coordinates (Angstroms)
 Number     Number       Type             X           Y           Z
 ---------------------------------------------------------------------
      1          6           0       -1.745694    0.400762    0.000007
      2          7           0       -1.048123   -0.666595    0.000019
      3          1           0       -1.320099    1.406742    0.000295
      4          1           0       -2.830255    0.327150   -0.000343
      5          1           0       -0.053217   -0.421419    0.000419
      6          7           0        2.087105    0.092576    0.000044
      7          1           0        2.477141    0.143473    0.933368
      8          1           0        2.453390   -0.752092   -0.422068
      9          1           0        2.474417    0.870019   -0.520435
 ---------------------------------------------------------------------
                    Distance matrix (angstroms):
                    1          2          3          4          5
     1  C    0.000000
     2  N    1.275091   0.000000
     3  H    1.092304   2.091100   0.000000
     4  H    1.087056   2.040471   1.856365   0.000000
     5  H    1.881611   1.024670   2.224222   2.876160   0.000000
     6  N    3.845169   3.225832   3.651859   4.922952   2.201175
     7  H    4.332400   3.735617   4.109197   5.392031   2.755396
     8  H    4.374875   3.527898   4.367857   5.409207   2.563381
     9  H    4.277896   3.878188   3.867503   5.357681   2.885833
                    6          7          8          9
     6  N    0.000000
     7  H    1.012824   0.000000
     8  H    1.012822   1.624748   0.000000
     9  H    1.012584   1.625244   1.625227   0.000000
 Stoichiometry    CH6N2
 Framework group  C1[X(CH6N2)]
 Deg. of freedom    21
 Full point group                 C1      NOp   1
 Largest Abelian subgroup         C1      NOp   1
 Largest concise Abelian subgroup C1      NOp   1
                         Standard orientation:                         
 ---------------------------------------------------------------------
 Center     Atomic      Atomic             Coordinates (Angstroms)
 Number     Number       Type             X           Y           Z
 ---------------------------------------------------------------------
      1          6           0       -1.745969    0.401107    0.000198
      2          7           0       -1.047676   -0.665778    0.000066
      3          1           0       -1.321055    1.407375    0.000754
      4          1           0       -2.830480    0.326762   -0.000301
      5          1           0       -0.052936   -0.419929    0.000641
      6          7           0        2.087037    0.095514    0.000639
      7          1           0        2.476924    0.146475    0.934022
      8          1           0        2.453946   -0.748815   -0.421609
      9          1           0        2.473887    0.873331   -0.519625
 ---------------------------------------------------------------------
 Rotational constants (GHZ):          38.4335178           3.5504494           3.3067897
 Standard basis: Aug-CC-pVTZ (5D, 7F)
 There are   315 symmetry adapted cartesian basis functions of A   symmetry.
 There are   276 symmetry adapted basis functions of A   symmetry.
   276 basis functions,   378 primitive gaussians,   315 cartesian basis functions
    13 alpha electrons       13 beta electrons
       nuclear repulsion energy        68.5328451143 Hartrees.
 NAtoms=    9 NActive=    9 NUniq=    9 SFac= 1.00D+00 NAtFMM=   60 NAOKFM=F Big=F
 Integral buffers will be    131072 words long.
 Raffenetti 1 integral format.
 Two-electron integral symmetry is turned on.
 One-electron integrals computed using PRISM.
 NBasis=   276 RedAO= T EigKep=  3.53D-05  NBF=   276
 NBsUse=   276 1.00D-06 EigRej= -1.00D+00 NBFU=   276
 ExpMin= 2.53D-02 ExpMax= 1.14D+04 ExpMxC= 3.89D+02 IAcc=3 IRadAn=         5 AccDes= 0.00D+00
 Harris functional with IExCor=  205 and IRadAn=       5 diagonalized for initial guess.
 HarFok:  IExCor=  205 AccDes= 0.00D+00 IRadAn=         5 IDoV= 1 UseB2=F ITyADJ=14
 ICtDFT=  3500011 ScaDFX=  1.000000  1.000000  1.000000  1.000000
 FoFCou: FMM=F IPFlag=           0 FMFlag=      100000 FMFlg1=           0
         NFxFlg=           0 DoJE=T BraDBF=F KetDBF=T FulRan=T
         wScrn=  0.000000 ICntrl=       500 IOpCl=  0 I1Cent=   200000004 NGrid=           0
         NMat0=    1 NMatS0=      1 NMatT0=    0 NMatD0=    1 NMtDS0=    0 NMtDT0=    0
 Petite list used in FoFCou.
 Keep R1 ints in memory in canonical form, NReq=750656306.
 Requested convergence on RMS density matrix=1.00D-08 within 128 cycles.
 Requested convergence on MAX density matrix=1.00D-06.
 Requested convergence on             energy=1.00D-06.
 No special actions if energy rises.
 SCF Done:  E(RHF) =  -150.292580403     A.U. after   11 cycles
            NFock= 11  Conv=0.84D-08     -V/T= 2.0019
 ExpMin= 2.53D-02 ExpMax= 1.14D+04 ExpMxC= 3.89D+02 IAcc=3 IRadAn=         5 AccDes= 0.00D+00
 HarFok:  IExCor=  205 AccDes= 0.00D+00 IRadAn=         5 IDoV=-2 UseB2=F ITyADJ=14
 ICtDFT= 12500011 ScaDFX=  1.000000  1.000000  1.000000  1.000000
 Range of M.O.s used for correlation:     4   276
 NBasis=   276 NAE=    13 NBE=    13 NFC=     3 NFV=     0
 NROrb=    273 NOA=    10 NOB=    10 NVA=   263 NVB=   263

 **** Warning!!: The largest alpha MO coefficient is  0.31845414D+02

 Disk-based method using ON**2 memory for 10 occupieds at a time.
 Estimated scratch disk usage=   581495488 words.
 Actual    scratch disk usage=   532261056 words.
 JobTyp=1 Pass  1:  I=   4 to  13 NPSUse= 40 ParTrn=T ParDer=T DoDerP=T.
 (rs|ai) integrals will be sorted in core.
 Spin components of T(2) and E(2):
     alpha-alpha T2 =       0.2229750384D-01 E2=     -0.7036393561D-01
     alpha-beta  T2 =       0.1424955006D+00 E2=     -0.4806139764D+00
     beta-beta   T2 =       0.2229750384D-01 E2=     -0.7036393561D-01
 ANorm=    0.1089536832D+01
 E2 =    -0.6213418476D+00 EUMP2 =    -0.15091392225066D+03
          IDoAtm=111111111
          Differentiating once with respect to electric field.
                with respect to dipole field.
          Differentiating once with respect to nuclear coordinates.
 Keep R1 ints in memory in canonical form, NReq=750662593.
          There are     1 degrees of freedom in the 1st order CPHF.  IDoFFX=0 NUNeed=     1.
 LinEq1:  Iter=  0 NonCon=     1 RMS=2.70D-03 Max=3.02D-02 NDo=     1
 AX will form     1 AO Fock derivatives at one time.
 LinEq1:  Iter=  1 NonCon=     1 RMS=7.57D-04 Max=8.06D-03 NDo=     1
 LinEq1:  Iter=  2 NonCon=     1 RMS=2.33D-04 Max=3.66D-03 NDo=     1
 LinEq1:  Iter=  3 NonCon=     1 RMS=5.85D-05 Max=7.93D-04 NDo=     1
 LinEq1:  Iter=  4 NonCon=     1 RMS=1.99D-05 Max=2.59D-04 NDo=     1
 LinEq1:  Iter=  5 NonCon=     1 RMS=5.93D-06 Max=1.26D-04 NDo=     1
 LinEq1:  Iter=  6 NonCon=     1 RMS=1.39D-06 Max=1.37D-05 NDo=     1
 LinEq1:  Iter=  7 NonCon=     1 RMS=7.57D-07 Max=1.25D-05 NDo=     1
 LinEq1:  Iter=  8 NonCon=     1 RMS=1.59D-07 Max=1.56D-06 NDo=     1
 LinEq1:  Iter=  9 NonCon=     1 RMS=2.65D-08 Max=3.65D-07 NDo=     1
 LinEq1:  Iter= 10 NonCon=     1 RMS=5.45D-09 Max=7.23D-08 NDo=     1
 LinEq1:  Iter= 11 NonCon=     1 RMS=9.73D-10 Max=1.57D-08 NDo=     1
 LinEq1:  Iter= 12 NonCon=     1 RMS=1.71D-10 Max=2.03D-09 NDo=     1
 LinEq1:  Iter= 13 NonCon=     0 RMS=2.78D-11 Max=2.70D-10 NDo=     1
 Linear equations converged to 1.000D-10 1.000D-09 after    13 iterations.
 End of Minotr F.D. properties file   721 does not exist.
 End of Minotr F.D. properties file   722 does not exist.
 End of Minotr F.D. properties file   788 does not exist.

 **********************************************************************

            Population analysis using the SCF Density.

 **********************************************************************

 Orbital symmetries:
       Occupied  (A) (A) (A) (A) (A) (A) (A) (A) (A) (A) (A) (A)
                 (A)
       Virtual   (A) (A) (A) (A) (A) (A) (A) (A) (A) (A) (A) (A)
                 (A) (A) (A) (A) (A) (A) (A) (A) (A) (A) (A) (A)
                 (A) (A) (A) (A) (A) (A) (A) (A) (A) (A) (A) (A)
                 (A) (A) (A) (A) (A) (A) (A) (A) (A) (A) (A) (A)
                 (A) (A) (A) (A) (A) (A) (A) (A) (A) (A) (A) (A)
                 (A) (A) (A) (A) (A) (A) (A) (A) (A) (A) (A) (A)
                 (A) (A) (A) (A) (A) (A) (A) (A) (A) (A) (A) (A)
                 (A) (A) (A) (A) (A) (A) (A) (A) (A) (A) (A) (A)
                 (A) (A) (A) (A) (A) (A) (A) (A) (A) (A) (A) (A)
                 (A) (A) (A) (A) (A) (A) (A) (A) (A) (A) (A) (A)
                 (A) (A) (A) (A) (A) (A) (A) (A) (A) (A) (A) (A)
                 (A) (A) (A) (A) (A) (A) (A) (A) (A) (A) (A) (A)
                 (A) (A) (A) (A) (A) (A) (A) (A) (A) (A) (A) (A)
                 (A) (A) (A) (A) (A) (A) (A) (A) (A) (A) (A) (A)
                 (A) (A) (A) (A) (A) (A) (A) (A) (A) (A) (A) (A)
                 (A) (A) (A) (A) (A) (A) (A) (A) (A) (A) (A) (A)
                 (A) (A) (A) (A) (A) (A) (A) (A) (A) (A) (A) (A)
                 (A) (A) (A) (A) (A) (A) (A) (A) (A) (A) (A) (A)
                 (A) (A) (A) (A) (A) (A) (A) (A) (A) (A) (A) (A)
                 (A) (A) (A) (A) (A) (A) (A) (A) (A) (A) (A) (A)
                 (A) (A) (A) (A) (A) (A) (A) (A) (A) (A) (A) (A)
                 (A) (A) (A) (A) (A) (A) (A) (A) (A) (A) (A)
 The electronic state is 1-A.
 Alpha  occ. eigenvalues --  -15.55769 -15.53993 -11.26383  -1.18408  -1.15938
 Alpha  occ. eigenvalues --   -0.82308  -0.66372  -0.64518  -0.64482  -0.58196
 Alpha  occ. eigenvalues --   -0.45616  -0.42564  -0.40502
 Alpha virt. eigenvalues --    0.02450   0.03937   0.04496   0.04606   0.05929
 Alpha virt. eigenvalues --    0.06969   0.08818   0.11826   0.13334   0.14079
 Alpha virt. eigenvalues --    0.14786   0.14981   0.15269   0.16553   0.17021
 Alpha virt. eigenvalues --    0.17607   0.19258   0.20691   0.21850   0.22198
 Alpha virt. eigenvalues --    0.23258   0.25432   0.27149   0.28090   0.29940
 Alpha virt. eigenvalues --    0.31175   0.32721   0.33620   0.34943   0.35759
 Alpha virt. eigenvalues --    0.36825   0.37956   0.38410   0.38798   0.39063
 Alpha virt. eigenvalues --    0.39301   0.40904   0.41775   0.42380   0.43620
 Alpha virt. eigenvalues --    0.44051   0.45668   0.46329   0.47967   0.49452
 Alpha virt. eigenvalues --    0.50548   0.51835   0.53087   0.55632   0.59434
 Alpha virt. eigenvalues --    0.59834   0.60839   0.63350   0.64197   0.64820
 Alpha virt. eigenvalues --    0.66317   0.67402   0.70713   0.72004   0.75387
 Alpha virt. eigenvalues --    0.78877   0.80328   0.82046   0.83968   0.86537
 Alpha virt. eigenvalues --    0.86785   0.89371   0.89452   0.90153   0.91463
 Alpha virt. eigenvalues --    0.91883   0.92649   0.93004   0.93932   0.95170
 Alpha virt. eigenvalues --    0.95661   0.96401   0.96795   0.98742   1.00724
 Alpha virt. eigenvalues --    1.02563   1.02677   1.03252   1.04198   1.04828
 Alpha virt. eigenvalues --    1.06878   1.07610   1.08197   1.12118   1.12418
 Alpha virt. eigenvalues --    1.13218   1.13496   1.14267   1.16728   1.17783
 Alpha virt. eigenvalues --    1.20007   1.20636   1.24733   1.27281   1.28251
 Alpha virt. eigenvalues --    1.30492   1.31232   1.32276   1.34471   1.37789
 Alpha virt. eigenvalues --    1.39368   1.40173   1.42037   1.45495   1.48324
 Alpha virt. eigenvalues --    1.48910   1.49144   1.56074   1.57634   1.59646
 Alpha virt. eigenvalues --    1.61661   1.64437   1.65276   1.69077   1.72612
 Alpha virt. eigenvalues --    1.74528   1.75416   1.77746   1.79406   1.80999
 Alpha virt. eigenvalues --    1.87007   1.87871   1.90280   1.91341   1.94294
 Alpha virt. eigenvalues --    1.96742   1.97263   2.02282   2.03918   2.06269
 Alpha virt. eigenvalues --    2.06704   2.08124   2.10052   2.10519   2.12952
 Alpha virt. eigenvalues --    2.13772   2.19017   2.22821   2.23593   2.25780
 Alpha virt. eigenvalues --    2.28308   2.34194   2.36521   2.37969   2.41684
 Alpha virt. eigenvalues --    2.43693   2.45417   2.45684   2.46542   2.50916
 Alpha virt. eigenvalues --    2.57453   2.63729   2.71911   2.75418   2.77639
 Alpha virt. eigenvalues --    2.96299   3.04407   3.16155   3.29548   3.33132
 Alpha virt. eigenvalues --    3.39276   3.42747   3.43998   3.57839   3.62502
 Alpha virt. eigenvalues --    3.63843   3.69549   3.70872   3.74378   3.76107
 Alpha virt. eigenvalues --    3.81688   3.82572   3.88254   3.90279   3.97359
 Alpha virt. eigenvalues --    3.97863   4.05385   4.08588   4.12032   4.13689
 Alpha virt. eigenvalues --    4.16753   4.17738   4.20409   4.22592   4.23442
 Alpha virt. eigenvalues --    4.24346   4.25432   4.30823   4.32117   4.34976
 Alpha virt. eigenvalues --    4.35765   4.38182   4.42265   4.46853   4.50101
 Alpha virt. eigenvalues --    4.53896   4.54744   4.56020   4.58223   4.59737
 Alpha virt. eigenvalues --    4.67047   4.73103   4.73853   4.74364   4.75377
 Alpha virt. eigenvalues --    4.77202   4.80460   4.87085   4.91575   4.91947
 Alpha virt. eigenvalues --    4.96285   4.97188   4.99399   5.02675   5.06528
 Alpha virt. eigenvalues --    5.07814   5.09770   5.13330   5.13698   5.15282
 Alpha virt. eigenvalues --    5.17640   5.20961   5.37444   5.40988   5.49089
 Alpha virt. eigenvalues --    5.50058   5.55778   5.62180   5.66982   5.67798
 Alpha virt. eigenvalues --    5.71042   5.75450   5.78276   5.81373   5.87778
 Alpha virt. eigenvalues --    5.91471   5.92182   6.03145   6.13741   6.14708
 Alpha virt. eigenvalues --    6.25036   6.32937   6.34317   6.40758   6.45839
 Alpha virt. eigenvalues --    6.59409   6.61575   6.68257   6.72037   6.94189
 Alpha virt. eigenvalues --    6.95336   7.07106   7.49841   7.73174   7.79151
 Alpha virt. eigenvalues --   16.88495  17.14699  17.81788
          Condensed to atoms (all electrons):
               1          2          3          4          5          6
     1  C    5.748733   0.463235   0.312202   0.296463  -0.037195   0.005296
     2  N    0.463235   7.012710  -0.025876  -0.011059   0.144279   0.003441
     3  H    0.312202  -0.025876   0.228293   0.012568   0.004839   0.009337
     4  H    0.296463  -0.011059   0.012568   0.217476  -0.001837  -0.000550
     5  H   -0.037195   0.144279   0.004839  -0.001837   0.487942  -0.024374
     6  N    0.005296   0.003441   0.009337  -0.000550  -0.024374   6.383722
     7  H    0.000145  -0.001066  -0.000133   0.000033  -0.000842   0.376372
     8  H   -0.001091  -0.000755   0.000289  -0.000043   0.000584   0.377641
     9  H    0.000431  -0.000469  -0.000179   0.000027  -0.001010   0.370406
               7          8          9
     1  C    0.000145  -0.001091   0.000431
     2  N   -0.001066  -0.000755  -0.000469
     3  H   -0.000133   0.000289  -0.000179
     4  H    0.000033  -0.000043   0.000027
     5  H   -0.000842   0.000584  -0.001010
     6  N    0.376372   0.377641   0.370406
     7  H    0.461431   0.000897  -0.006945
     8  H    0.000897   0.470586  -0.005161
     9  H   -0.006945  -0.005161   0.469303
 Mulliken charges:
               1
     1  C   -0.788220
     2  N   -0.584440
     3  H    0.458660
     4  H    0.486922
     5  H    0.427613
     6  N   -0.501292
     7  H    0.170107
     8  H    0.157053
     9  H    0.173597
 Sum of Mulliken charges =  -0.00000
 Mulliken charges with hydrogens summed into heavy atoms:
               1
     1  C    0.157361
     2  N   -0.156827
     6  N   -0.000534
 Electronic spatial extent (au):  <R**2>=            374.4491
 Charge=             -0.0000 electrons
 Dipole moment (field-independent basis, Debye):
    X=              2.5470    Y=              2.1824    Z=             -0.0108  Tot=              3.3542
 Quadrupole moment (field-independent basis, Debye-Ang):
   XX=            -13.0340   YY=            -20.9990   ZZ=            -20.2189
   XY=             -3.3489   XZ=             -0.0061   YZ=              0.0004
 Traceless Quadrupole moment (field-independent basis, Debye-Ang):
   XX=              5.0500   YY=             -2.9150   ZZ=             -2.1349
   XY=             -3.3489   XZ=             -0.0061   YZ=              0.0004
 Octapole moment (field-independent basis, Debye-Ang**2):
  XXX=             14.2071  YYY=              4.9939  ZZZ=              0.9570  XYY=              8.5416
  XXY=              5.1970  XXZ=              0.0484  XZZ=              7.3033  YZZ=              0.6828
  YYZ=             -0.9831  XYZ=             -0.0059
 Hexadecapole moment (field-independent basis, Debye-Ang**3):
 XXXX=           -354.3120 YYYY=            -59.1683 ZZZZ=            -25.4333 XXXY=             -5.1570
 XXXZ=              0.2685 YYYX=             -5.1654 YYYZ=             -0.2562 ZZZX=              2.4981
 ZZZY=              0.0844 XXYY=            -72.3632 XXZZ=            -65.5592 YYZZ=            -13.9197
 XXYZ=             -0.0368 YYXZ=             -2.5333 ZZXY=              0.2627
 N-N= 6.853284511427D+01 E-N=-4.889614724986D+02  KE= 1.500115997837D+02
 Calling FoFJK, ICntrl=  10002127 FMM=F ISym2X=0 I1Cent= 0 IOpClX= 0 NMat=1 NMatS=1 NMatT=0.
 ***** Axes restored to original set *****
 -------------------------------------------------------------------
 Center     Atomic                   Forces (Hartrees/Bohr)
 Number     Number              X              Y              Z
 -------------------------------------------------------------------
      1        6           0.000008470    0.000082741   -0.000008731
      2        7           0.000057346   -0.000148118   -0.000025929
      3        1           0.000047506   -0.000025018    0.000016114
      4        1          -0.000007333   -0.000030784    0.000000744
      5        1          -0.000131576    0.000225231    0.000060001
      6        7           0.000008998    0.000026728    0.000183863
      7        1          -0.000116944   -0.000057751   -0.000049540
      8        1           0.000205579   -0.000041529   -0.000069271
      9        1          -0.000072046   -0.000031500   -0.000107252
 -------------------------------------------------------------------
 Cartesian Forces:  Max     0.000225231 RMS     0.000092139

 GradGradGradGradGradGradGradGradGradGradGradGradGradGradGradGradGradGrad
 Berny optimization.
 FormGI is forming the generalized inverse of G from B-inverse, IUseBI=4.
 Internal  Forces:  Max     0.000254150 RMS     0.000089228
 Search for a local minimum.
 Step number   1 out of a maximum of   36
 All quantities printed in internal units (Hartrees-Bohrs-Radians)
 Mixed Optimization -- En-DIIS/RFO-DIIS
 Second derivative matrix not updated -- first step.
 ITU=  0
     Eigenvalues ---    0.00230   0.00230   0.00230   0.01300   0.03141
     Eigenvalues ---    0.03344   0.07904   0.10533   0.16000   0.16000
     Eigenvalues ---    0.16000   0.16000   0.16000   0.16000   0.34548
     Eigenvalues ---    0.35155   0.43601   0.45503   0.45503   0.45543
     Eigenvalues ---    0.74614
 RFO step:  Lambda=-6.25550152D-06 EMin= 2.30000000D-03
 Linear search not attempted -- first point.
 Iteration  1 RMS(Cart)=  0.02722269 RMS(Int)=  0.00028559
 Iteration  2 RMS(Cart)=  0.00048204 RMS(Int)=  0.00000738
 Iteration  3 RMS(Cart)=  0.00000002 RMS(Int)=  0.00000738
 Variable       Old X    -DE/DX   Delta X   Delta X   Delta X     New X
                                 (Linear)    (Quad)   (Total)
    R1        2.40957  -0.00000   0.00000  -0.00001  -0.00001   2.40957
    R2        2.06415  -0.00000   0.00000  -0.00001  -0.00001   2.06414
    R3        2.05424   0.00001   0.00000   0.00003   0.00003   2.05427
    R4        1.93635  -0.00007   0.00000  -0.00017  -0.00017   1.93618
    R5        4.15962   0.00000   0.00000   0.00002   0.00002   4.15964
    R6        1.91396  -0.00009   0.00000  -0.00021  -0.00021   1.91375
    R7        1.91396   0.00014   0.00000   0.00030   0.00030   1.91426
    R8        1.91351   0.00000   0.00000   0.00001   0.00001   1.91351
    A1        2.16250  -0.00005   0.00000  -0.00033  -0.00033   2.16216
    A2        2.08189  -0.00000   0.00000  -0.00003  -0.00003   2.08187
    A3        2.03880   0.00006   0.00000   0.00036   0.00036   2.03915
    A4        1.90805  -0.00018   0.00000  -0.00114  -0.00114   1.90691
    A5        1.96712  -0.00011   0.00000  -0.00074  -0.00075   1.96637
    A6        1.72843   0.00025   0.00000   0.00174   0.00175   1.73018
    A7        2.15471  -0.00014   0.00000  -0.00093  -0.00093   2.15378
    A8        1.86157  -0.00003   0.00000   0.00001   0.00001   1.86158
    A9        1.86271   0.00012   0.00000   0.00059   0.00058   1.86328
   A10        1.86268  -0.00009   0.00000  -0.00049  -0.00047   1.86221
   A11        3.14752   0.00010   0.00000   0.03937   0.03937   3.18689
   A12        3.14219   0.00005   0.00000   0.02129   0.02129   3.16348
    D1        0.00009  -0.00002   0.00000  -0.00078  -0.00078  -0.00069
    D2       -3.14155  -0.00001   0.00000  -0.00001  -0.00001  -3.14156
    D3        3.14155   0.00001   0.00000   0.00075   0.00075  -3.14088
    D4        1.61612  -0.00005   0.00000  -0.00078  -0.00076   1.61536
    D5       -2.70606   0.00000   0.00000  -0.00540  -0.00539  -2.71146
    D6       -0.66448  -0.00000   0.00000  -0.01356  -0.01358  -0.67806
         Item               Value     Threshold  Converged?
 Maximum Force            0.000254     0.000450     YES
 RMS     Force            0.000089     0.000300     YES
 Maximum Displacement     0.065970     0.001800     NO 
 RMS     Displacement     0.027075     0.001200     NO 
 Predicted change in Energy=-3.132283D-06
 GradGradGradGradGradGradGradGradGradGradGradGradGradGradGradGradGradGrad

                          Input orientation:                          
 ---------------------------------------------------------------------
 Center     Atomic      Atomic             Coordinates (Angstroms)
 Number     Number       Type             X           Y           Z
 ---------------------------------------------------------------------
      1          6           0       -1.758743    0.399910   -0.000775
      2          7           0       -1.039516   -0.652970   -0.002877
      3          1           0       -1.353545    1.414141    0.015395
      4          1           0       -2.841499    0.304214   -0.015067
      5          1           0       -0.050304   -0.386509    0.012074
      6          7           0        2.098801    0.089304   -0.000765
      7          1           0        2.493280    0.138005    0.930688
      8          1           0        2.449703   -0.763201   -0.420568
      9          1           0        2.496488    0.857723   -0.526800
 ---------------------------------------------------------------------
                    Distance matrix (angstroms):
                    1          2          3          4          5
     1  C    0.000000
     2  N    1.275088   0.000000
     3  H    1.092297   2.090908   0.000000
     4  H    1.087070   2.040464   1.856576   0.000000
     5  H    1.880794   1.024581   2.222789   2.875518   0.000000
     6  N    3.870028   3.224904   3.697856   4.944992   2.201184
     7  H    4.360724   3.738694   4.155038   5.420511   2.754775
     8  H    4.386351   3.515859   4.404041   5.413006   2.564978
     9  H    4.311993   3.880723   3.927636   5.390950   2.885246
                    6          7          8          9
     6  N    0.000000
     7  H    1.012715   0.000000
     8  H    1.012982   1.624797   0.000000
     9  H    1.012588   1.625508   1.625075   0.000000
 Stoichiometry    CH6N2
 Framework group  C1[X(CH6N2)]
 Deg. of freedom    21
 Full point group                 C1      NOp   1
 Largest Abelian subgroup         C1      NOp   1
 Largest concise Abelian subgroup C1      NOp   1
                         Standard orientation:                         
 ---------------------------------------------------------------------
 Center     Atomic      Atomic             Coordinates (Angstroms)
 Number     Number       Type             X           Y           Z
 ---------------------------------------------------------------------
      1          6           0       -1.762449    0.392414   -0.000467
      2          7           0       -1.039165   -0.657684    0.000829
      3          1           0       -1.361165    1.408249    0.012228
      4          1           0       -2.844830    0.292494   -0.014240
      5          1           0       -0.050986   -0.387361    0.014706
      6          7           0        2.096264    0.096695   -0.000122
      7          1           0        2.490711    0.150040    0.931091
      8          1           0        2.450382   -0.755854   -0.417128
      9          1           0        2.490894    0.864874   -0.528803
 ---------------------------------------------------------------------
 Rotational constants (GHZ):          39.2551962           3.5179283           3.2844678
 Standard basis: Aug-CC-pVTZ (5D, 7F)
 There are   315 symmetry adapted cartesian basis functions of A   symmetry.
 There are   276 symmetry adapted basis functions of A   symmetry.
   276 basis functions,   378 primitive gaussians,   315 cartesian basis functions
    13 alpha electrons       13 beta electrons
       nuclear repulsion energy        68.4670951605 Hartrees.
 NAtoms=    9 NActive=    9 NUniq=    9 SFac= 1.00D+00 NAtFMM=   60 NAOKFM=F Big=F
 Integral buffers will be    131072 words long.
 Raffenetti 1 integral format.
 Two-electron integral symmetry is turned on.
 One-electron integrals computed using PRISM.
 NBasis=   276 RedAO= T EigKep=  3.48D-05  NBF=   276
 NBsUse=   276 1.00D-06 EigRej= -1.00D+00 NBFU=   276
 Initial guess from the checkpoint file:  "/scr/Gau-77475.chk"
 B after Tr=    -0.000000    0.000000   -0.000000
         Rot=    0.999998    0.001253   -0.000062   -0.001238 Ang=   0.20 deg.
 ExpMin= 2.53D-02 ExpMax= 1.14D+04 ExpMxC= 3.89D+02 IAcc=3 IRadAn=         5 AccDes= 0.00D+00
 Harris functional with IExCor=  205 and IRadAn=       5 diagonalized for initial guess.
 HarFok:  IExCor=  205 AccDes= 0.00D+00 IRadAn=         5 IDoV= 1 UseB2=F ITyADJ=14
 ICtDFT=  3500011 ScaDFX=  1.000000  1.000000  1.000000  1.000000
 FoFCou: FMM=F IPFlag=           0 FMFlag=      100000 FMFlg1=           0
         NFxFlg=           0 DoJE=T BraDBF=F KetDBF=T FulRan=T
         wScrn=  0.000000 ICntrl=       500 IOpCl=  0 I1Cent=   200000004 NGrid=           0
         NMat0=    1 NMatS0=      1 NMatT0=    0 NMatD0=    1 NMtDS0=    0 NMtDT0=    0
 Petite list used in FoFCou.
 Keep R1 ints in memory in canonical form, NReq=750656175.
 Requested convergence on RMS density matrix=1.00D-08 within 128 cycles.
 Requested convergence on MAX density matrix=1.00D-06.
 Requested convergence on             energy=1.00D-06.
 No special actions if energy rises.
 SCF Done:  E(RHF) =  -150.292591217     A.U. after   11 cycles
            NFock= 11  Conv=0.42D-08     -V/T= 2.0019
 ExpMin= 2.53D-02 ExpMax= 1.14D+04 ExpMxC= 3.89D+02 IAcc=3 IRadAn=         5 AccDes= 0.00D+00
 HarFok:  IExCor=  205 AccDes= 0.00D+00 IRadAn=         5 IDoV=-2 UseB2=F ITyADJ=14
 ICtDFT= 12500011 ScaDFX=  1.000000  1.000000  1.000000  1.000000
 Range of M.O.s used for correlation:     4   276
 NBasis=   276 NAE=    13 NBE=    13 NFC=     3 NFV=     0
 NROrb=    273 NOA=    10 NOB=    10 NVA=   263 NVB=   263

 **** Warning!!: The largest alpha MO coefficient is  0.30694888D+02

 Disk-based method using ON**2 memory for 10 occupieds at a time.
 Estimated scratch disk usage=   579930872 words.
 Actual    scratch disk usage=   530785528 words.
 JobTyp=1 Pass  1:  I=   4 to  13 NPSUse= 40 ParTrn=T ParDer=T DoDerP=T.
 (rs|ai) integrals will be sorted in core.
 Spin components of T(2) and E(2):
     alpha-alpha T2 =       0.2229577239D-01 E2=     -0.7036021232D-01
     alpha-beta  T2 =       0.1424936992D+00 E2=     -0.4806102623D+00
     beta-beta   T2 =       0.2229577239D-01 E2=     -0.7036021232D-01
 ANorm=    0.1089534416D+01
 E2 =    -0.6213306869D+00 EUMP2 =    -0.15091392190370D+03
          IDoAtm=111111111
          Differentiating once with respect to electric field.
                with respect to dipole field.
          Differentiating once with respect to nuclear coordinates.
 Keep R1 ints in memory in canonical form, NReq=750662285.
          There are     1 degrees of freedom in the 1st order CPHF.  IDoFFX=0 NUNeed=     1.
 LinEq1:  Iter=  0 NonCon=     1 RMS=2.70D-03 Max=3.32D-02 NDo=     1
 AX will form     1 AO Fock derivatives at one time.
 LinEq1:  Iter=  1 NonCon=     1 RMS=7.56D-04 Max=7.97D-03 NDo=     1
 LinEq1:  Iter=  2 NonCon=     1 RMS=2.33D-04 Max=3.68D-03 NDo=     1
 LinEq1:  Iter=  3 NonCon=     1 RMS=5.85D-05 Max=7.94D-04 NDo=     1
 LinEq1:  Iter=  4 NonCon=     1 RMS=2.00D-05 Max=2.63D-04 NDo=     1
 LinEq1:  Iter=  5 NonCon=     1 RMS=5.92D-06 Max=1.27D-04 NDo=     1
 LinEq1:  Iter=  6 NonCon=     1 RMS=1.37D-06 Max=1.35D-05 NDo=     1
 LinEq1:  Iter=  7 NonCon=     1 RMS=7.48D-07 Max=1.24D-05 NDo=     1
 LinEq1:  Iter=  8 NonCon=     1 RMS=1.59D-07 Max=1.56D-06 NDo=     1
 LinEq1:  Iter=  9 NonCon=     1 RMS=2.66D-08 Max=3.63D-07 NDo=     1
 LinEq1:  Iter= 10 NonCon=     1 RMS=5.53D-09 Max=7.24D-08 NDo=     1
 LinEq1:  Iter= 11 NonCon=     1 RMS=1.00D-09 Max=1.54D-08 NDo=     1
 LinEq1:  Iter= 12 NonCon=     1 RMS=1.93D-10 Max=2.40D-09 NDo=     1
 LinEq1:  Iter= 13 NonCon=     0 RMS=4.39D-11 Max=8.09D-10 NDo=     1
 Linear equations converged to 1.000D-10 1.000D-09 after    13 iterations.
 End of Minotr F.D. properties file   721 does not exist.
 End of Minotr F.D. properties file   722 does not exist.
 End of Minotr F.D. properties file   788 does not exist.
 Calling FoFJK, ICntrl=  10002127 FMM=F ISym2X=0 I1Cent= 0 IOpClX= 0 NMat=1 NMatS=1 NMatT=0.
 ***** Axes restored to original set *****
 -------------------------------------------------------------------
 Center     Atomic                   Forces (Hartrees/Bohr)
 Number     Number              X              Y              Z
 -------------------------------------------------------------------
      1        6          -0.000223795    0.000126015    0.000064377
      2        7           0.000136105    0.000135857    0.000063411
      3        1          -0.000052890   -0.000016920   -0.000012361
      4        1          -0.000007381    0.000016083   -0.000032763
      5        1           0.000165128   -0.000237055   -0.000111370
      6        7           0.000014173   -0.000038766    0.000052634
      7        1          -0.000025415   -0.000016206    0.000006092
      8        1           0.000057168    0.000023336    0.000007736
      9        1          -0.000063092    0.000007657   -0.000037754
 -------------------------------------------------------------------
 Cartesian Forces:  Max     0.000237055 RMS     0.000091562

 GradGradGradGradGradGradGradGradGradGradGradGradGradGradGradGradGradGrad
 Berny optimization.
 Using GEDIIS/GDIIS optimizer.
 FormGI is forming the generalized inverse of G from B-inverse, IUseBI=4.
 Internal  Forces:  Max     0.000450316 RMS     0.000113457
 Search for a local minimum.
 Step number   2 out of a maximum of   36
 All quantities printed in internal units (Hartrees-Bohrs-Radians)
 Mixed Optimization -- En-DIIS/RFO-DIIS
 Swapping is turned off.
 Update second derivatives using D2CorX and points    1    2
 DE=  3.47D-07 DEPred=-3.13D-06 R=-1.11D-01
 Trust test=-1.11D-01 RLast= 4.72D-02 DXMaxT set to 1.50D-01
 ITU= -1  0
     Eigenvalues ---    0.00211   0.00230   0.00504   0.01315   0.03145
     Eigenvalues ---    0.03338   0.07771   0.10509   0.14440   0.16000
     Eigenvalues ---    0.16000   0.16000   0.16000   0.18621   0.34556
     Eigenvalues ---    0.35154   0.43689   0.45283   0.45504   0.45543
     Eigenvalues ---    0.75200
 En-DIIS/RFO-DIIS/Sim-DIIS IScMMF=       -3 using points:     2    1
 RFO step:  Lambda=-4.65165508D-06.
 DidBck=T Rises=T En-DIIS coefs:    0.48686    0.51314
 Iteration  1 RMS(Cart)=  0.01251186 RMS(Int)=  0.00007475
 Iteration  2 RMS(Cart)=  0.00012674 RMS(Int)=  0.00000507
 Iteration  3 RMS(Cart)=  0.00000000 RMS(Int)=  0.00000507
 Variable       Old X    -DE/DX   Delta X   Delta X   Delta X     New X
                                 (Linear)    (Quad)   (Total)
    R1        2.40957   0.00026   0.00000   0.00016   0.00017   2.40973
    R2        2.06414  -0.00004   0.00001  -0.00006  -0.00005   2.06409
    R3        2.05427   0.00001  -0.00001   0.00003   0.00001   2.05428
    R4        1.93618   0.00007   0.00009  -0.00003   0.00005   1.93623
    R5        4.15964  -0.00002  -0.00001  -0.00032  -0.00033   4.15931
    R6        1.91375  -0.00001   0.00011  -0.00014  -0.00004   1.91372
    R7        1.91426  -0.00000  -0.00016   0.00020   0.00005   1.91430
    R8        1.91351   0.00000  -0.00000   0.00001   0.00000   1.91352
    A1        2.16216   0.00005   0.00017  -0.00008   0.00009   2.16225
    A2        2.08187  -0.00001   0.00001  -0.00004  -0.00003   2.08184
    A3        2.03915  -0.00004  -0.00018   0.00012  -0.00006   2.03909
    A4        1.90691   0.00045   0.00058   0.00057   0.00115   1.90806
    A5        1.96637  -0.00001   0.00038  -0.00054  -0.00015   1.96622
    A6        1.73018   0.00010  -0.00090   0.00148   0.00058   1.73076
    A7        2.15378  -0.00010   0.00048  -0.00094  -0.00046   2.15332
    A8        1.86158  -0.00002  -0.00001  -0.00002  -0.00002   1.86156
    A9        1.86328   0.00006  -0.00030   0.00056   0.00027   1.86355
   A10        1.86221  -0.00002   0.00024  -0.00038  -0.00015   1.86206
   A11        3.18689  -0.00010  -0.02020   0.00441  -0.01579   3.17111
   A12        3.16348  -0.00011  -0.01092  -0.00766  -0.01858   3.14490
    D1       -0.00069  -0.00001   0.00040  -0.00029   0.00011  -0.00058
    D2       -3.14156  -0.00003   0.00001  -0.00077  -0.00077   3.14086
    D3       -3.14088  -0.00003  -0.00038  -0.00047  -0.00086   3.14145
    D4        1.61536  -0.00004   0.00039  -0.00561  -0.00521   1.61015
    D5       -2.71146  -0.00000   0.00277  -0.00595  -0.00320  -2.71466
    D6       -0.67806   0.00003   0.00697  -0.00476   0.00221  -0.67585
         Item               Value     Threshold  Converged?
 Maximum Force            0.000450     0.000450     NO 
 RMS     Force            0.000113     0.000300     YES
 Maximum Displacement     0.026094     0.001800     NO 
 RMS     Displacement     0.012558     0.001200     NO 
 Predicted change in Energy=-2.325411D-06
 GradGradGradGradGradGradGradGradGradGradGradGradGradGradGradGradGradGrad

                          Input orientation:                          
 ---------------------------------------------------------------------
 Center     Atomic      Atomic             Coordinates (Angstroms)
 Number     Number       Type             X           Y           Z
 ---------------------------------------------------------------------
      1          6           0       -1.753943    0.400482    0.000643
      2          7           0       -1.042872   -0.658024   -0.003538
      3          1           0       -1.340885    1.411616    0.007191
      4          1           0       -2.837498    0.313103   -0.002515
      5          1           0       -0.051206   -0.400318   -0.000360
      6          7           0        2.094449    0.090200   -0.000571
      7          1           0        2.482990    0.141389    0.933220
      8          1           0        2.454172   -0.759513   -0.418624
      9          1           0        2.489459    0.861680   -0.524139
 ---------------------------------------------------------------------
                    Distance matrix (angstroms):
                    1          2          3          4          5
     1  C    0.000000
     2  N    1.275176   0.000000
     3  H    1.092270   2.091014   0.000000
     4  H    1.087077   2.040532   1.856523   0.000000
     5  H    1.881646   1.024609   2.224058   2.876177   0.000000
     6  N    3.860880   3.225311   3.680723   4.936982   2.201010
     7  H    4.346082   3.734739   4.134371   5.404875   2.754481
     8  H    4.385157   3.523055   4.392901   5.415296   2.565324
     9  H    4.300530   3.880449   3.905929   5.380474   2.884781
                    6          7          8          9
     6  N    0.000000
     7  H    1.012695   0.000000
     8  H    1.013006   1.624788   0.000000
     9  H    1.012589   1.625655   1.625006   0.000000
 Stoichiometry    CH6N2
 Framework group  C1[X(CH6N2)]
 Deg. of freedom    21
 Full point group                 C1      NOp   1
 Largest Abelian subgroup         C1      NOp   1
 Largest concise Abelian subgroup C1      NOp   1
                         Standard orientation:                         
 ---------------------------------------------------------------------
 Center     Atomic      Atomic             Coordinates (Angstroms)
 Number     Number       Type             X           Y           Z
 ---------------------------------------------------------------------
      1          6           0       -1.756383    0.395712    0.000079
      2          7           0       -1.042346   -0.660803    0.000173
      3          1           0       -1.346163    1.408019    0.002620
      4          1           0       -2.839689    0.305283   -0.002808
      5          1           0       -0.051408   -0.400306    0.002392
      6          7           0        2.092864    0.096222    0.000375
      7          1           0        2.481183    0.152228    0.933982
      8          1           0        2.455003   -0.754140   -0.414257
      9          1           0        2.485752    0.866711   -0.526240
 ---------------------------------------------------------------------
 Rotational constants (GHZ):          38.9372212           3.5298494           3.2925890
 Standard basis: Aug-CC-pVTZ (5D, 7F)
 There are   315 symmetry adapted cartesian basis functions of A   symmetry.
 There are   276 symmetry adapted basis functions of A   symmetry.
   276 basis functions,   378 primitive gaussians,   315 cartesian basis functions
    13 alpha electrons       13 beta electrons
       nuclear repulsion energy        68.4890564756 Hartrees.
 NAtoms=    9 NActive=    9 NUniq=    9 SFac= 1.00D+00 NAtFMM=   60 NAOKFM=F Big=F
 Integral buffers will be    131072 words long.
 Raffenetti 1 integral format.
 Two-electron integral symmetry is turned on.
 One-electron integrals computed using PRISM.
 NBasis=   276 RedAO= T EigKep=  3.50D-05  NBF=   276
 NBsUse=   276 1.00D-06 EigRej= -1.00D+00 NBFU=   276
 Initial guess from the checkpoint file:  "/scr/Gau-77475.chk"
 B after Tr=     0.000000   -0.000000    0.000000
         Rot=    1.000000    0.000014    0.000093    0.000433 Ang=   0.05 deg.
 ExpMin= 2.53D-02 ExpMax= 1.14D+04 ExpMxC= 3.89D+02 IAcc=3 IRadAn=         5 AccDes= 0.00D+00
 Harris functional with IExCor=  205 and IRadAn=       5 diagonalized for initial guess.
 HarFok:  IExCor=  205 AccDes= 0.00D+00 IRadAn=         5 IDoV= 1 UseB2=F ITyADJ=14
 ICtDFT=  3500011 ScaDFX=  1.000000  1.000000  1.000000  1.000000
 FoFCou: FMM=F IPFlag=           0 FMFlag=      100000 FMFlg1=           0
         NFxFlg=           0 DoJE=T BraDBF=F KetDBF=T FulRan=T
         wScrn=  0.000000 ICntrl=       500 IOpCl=  0 I1Cent=   200000004 NGrid=           0
         NMat0=    1 NMatS0=      1 NMatT0=    0 NMatD0=    1 NMtDS0=    0 NMtDT0=    0
 Petite list used in FoFCou.
 Keep R1 ints in memory in canonical form, NReq=750656247.
 Requested convergence on RMS density matrix=1.00D-08 within 128 cycles.
 Requested convergence on MAX density matrix=1.00D-06.
 Requested convergence on             energy=1.00D-06.
 No special actions if energy rises.
 SCF Done:  E(RHF) =  -150.292584914     A.U. after   10 cycles
            NFock= 10  Conv=0.56D-08     -V/T= 2.0019
 ExpMin= 2.53D-02 ExpMax= 1.14D+04 ExpMxC= 3.89D+02 IAcc=3 IRadAn=         5 AccDes= 0.00D+00
 HarFok:  IExCor=  205 AccDes= 0.00D+00 IRadAn=         5 IDoV=-2 UseB2=F ITyADJ=14
 ICtDFT= 12500011 ScaDFX=  1.000000  1.000000  1.000000  1.000000
 Range of M.O.s used for correlation:     4   276
 NBasis=   276 NAE=    13 NBE=    13 NFC=     3 NFV=     0
 NROrb=    273 NOA=    10 NOB=    10 NVA=   263 NVB=   263

 **** Warning!!: The largest alpha MO coefficient is  0.30847352D+02

 Disk-based method using ON**2 memory for 10 occupieds at a time.
 Estimated scratch disk usage=   580338592 words.
 Actual    scratch disk usage=   531184544 words.
 JobTyp=1 Pass  1:  I=   4 to  13 NPSUse= 40 ParTrn=T ParDer=T DoDerP=T.
 (rs|ai) integrals will be sorted in core.
 Spin components of T(2) and E(2):
     alpha-alpha T2 =       0.2229733073D-01 E2=     -0.7036202508D-01
     alpha-beta  T2 =       0.1425005609D+00 E2=     -0.4806154448D+00
     beta-beta   T2 =       0.2229733073D-01 E2=     -0.7036202508D-01
 ANorm=    0.1089538995D+01
 E2 =    -0.6213394950D+00 EUMP2 =    -0.15091392440869D+03
          IDoAtm=111111111
          Differentiating once with respect to electric field.
                with respect to dipole field.
          Differentiating once with respect to nuclear coordinates.
 Keep R1 ints in memory in canonical form, NReq=750662285.
          There are     1 degrees of freedom in the 1st order CPHF.  IDoFFX=0 NUNeed=     1.
 LinEq1:  Iter=  0 NonCon=     1 RMS=2.70D-03 Max=3.19D-02 NDo=     1
 AX will form     1 AO Fock derivatives at one time.
 LinEq1:  Iter=  1 NonCon=     1 RMS=7.57D-04 Max=8.01D-03 NDo=     1
 LinEq1:  Iter=  2 NonCon=     1 RMS=2.33D-04 Max=3.67D-03 NDo=     1
 LinEq1:  Iter=  3 NonCon=     1 RMS=5.85D-05 Max=7.94D-04 NDo=     1
 LinEq1:  Iter=  4 NonCon=     1 RMS=2.00D-05 Max=2.62D-04 NDo=     1
 LinEq1:  Iter=  5 NonCon=     1 RMS=5.93D-06 Max=1.26D-04 NDo=     1
 LinEq1:  Iter=  6 NonCon=     1 RMS=1.38D-06 Max=1.36D-05 NDo=     1
 LinEq1:  Iter=  7 NonCon=     1 RMS=7.52D-07 Max=1.24D-05 NDo=     1
 LinEq1:  Iter=  8 NonCon=     1 RMS=1.59D-07 Max=1.57D-06 NDo=     1
 LinEq1:  Iter=  9 NonCon=     1 RMS=2.66D-08 Max=3.64D-07 NDo=     1
 LinEq1:  Iter= 10 NonCon=     1 RMS=5.49D-09 Max=7.25D-08 NDo=     1
 LinEq1:  Iter= 11 NonCon=     1 RMS=9.82D-10 Max=1.57D-08 NDo=     1
 LinEq1:  Iter= 12 NonCon=     1 RMS=1.75D-10 Max=1.93D-09 NDo=     1
 LinEq1:  Iter= 13 NonCon=     0 RMS=3.21D-11 Max=4.45D-10 NDo=     1
 Linear equations converged to 1.000D-10 1.000D-09 after    13 iterations.
 End of Minotr F.D. properties file   721 does not exist.
 End of Minotr F.D. properties file   722 does not exist.
 End of Minotr F.D. properties file   788 does not exist.
 Calling FoFJK, ICntrl=  10002127 FMM=F ISym2X=0 I1Cent= 0 IOpClX= 0 NMat=1 NMatS=1 NMatT=0.
 ***** Axes restored to original set *****
 -------------------------------------------------------------------
 Center     Atomic                   Forces (Hartrees/Bohr)
 Number     Number              X              Y              Z
 -------------------------------------------------------------------
      1        6          -0.000008740   -0.000004550   -0.000012301
      2        7          -0.000010364    0.000050603   -0.000049071
      3        1          -0.000012119    0.000001694    0.000000328
      4        1           0.000007198   -0.000003333    0.000023727
      5        1           0.000024392    0.000011267    0.000061924
      6        7           0.000010985   -0.000109682   -0.000049388
      7        1          -0.000037941   -0.000001308    0.000017579
      8        1           0.000081541    0.000042525    0.000024889
      9        1          -0.000054952    0.000012784   -0.000017688
 -------------------------------------------------------------------
 Cartesian Forces:  Max     0.000109682 RMS     0.000038282

 GradGradGradGradGradGradGradGradGradGradGradGradGradGradGradGradGradGrad
 Berny optimization.
 Using GEDIIS/GDIIS optimizer.
 FormGI is forming the generalized inverse of G from B-inverse, IUseBI=4.
 Internal  Forces:  Max     0.000157195 RMS     0.000044641
 Search for a local minimum.
 Step number   3 out of a maximum of   36
 All quantities printed in internal units (Hartrees-Bohrs-Radians)
 Mixed Optimization -- En-DIIS/RFO-DIIS
 Swapping is turned off.
 Update second derivatives using D2CorX and points    1    2    3
 DE= -2.50D-06 DEPred=-2.33D-06 R= 1.08D+00
 TightC=F SS=  1.41D+00  RLast= 2.53D-02 DXNew= 2.5227D-01 7.5916D-02
 Trust test= 1.08D+00 RLast= 2.53D-02 DXMaxT set to 1.50D-01
 ITU=  1 -1  0
     Eigenvalues ---    0.00167   0.00286   0.00526   0.01366   0.03122
     Eigenvalues ---    0.03460   0.06951   0.10288   0.11487   0.16000
     Eigenvalues ---    0.16000   0.16000   0.16039   0.18214   0.34558
     Eigenvalues ---    0.35164   0.43671   0.45468   0.45536   0.45553
     Eigenvalues ---    0.75472
 En-DIIS/RFO-DIIS/Sim-DIIS IScMMF=       -3 using points:     3    2    1
 RFO step:  Lambda=-1.65846866D-06.
 DidBck=T Rises=F RFO-DIIS coefs:    0.69808   -0.02984    0.33175
 Iteration  1 RMS(Cart)=  0.00640457 RMS(Int)=  0.00001973
 Iteration  2 RMS(Cart)=  0.00002773 RMS(Int)=  0.00000235
 Iteration  3 RMS(Cart)=  0.00000000 RMS(Int)=  0.00000235
 Variable       Old X    -DE/DX   Delta X   Delta X   Delta X     New X
                                 (Linear)    (Quad)   (Total)
    R1        2.40973   0.00000  -0.00005   0.00016   0.00012   2.40985
    R2        2.06409  -0.00000   0.00002  -0.00007  -0.00005   2.06404
    R3        2.05428  -0.00001  -0.00001   0.00001   0.00000   2.05428
    R4        1.93623   0.00001   0.00004  -0.00003   0.00001   1.93624
    R5        4.15931  -0.00001   0.00009  -0.00067  -0.00058   4.15873
    R6        1.91372   0.00000   0.00008  -0.00017  -0.00009   1.91362
    R7        1.91430  -0.00002  -0.00011   0.00021   0.00010   1.91440
    R8        1.91352  -0.00000  -0.00000   0.00000  -0.00000   1.91351
    A1        2.16225   0.00002   0.00008  -0.00003   0.00006   2.16231
    A2        2.08184  -0.00001   0.00002  -0.00012  -0.00010   2.08174
    A3        2.03909  -0.00001  -0.00010   0.00014   0.00004   2.03914
    A4        1.90806   0.00007   0.00003   0.00076   0.00079   1.90885
    A5        1.96622  -0.00005   0.00029  -0.00106  -0.00076   1.96546
    A6        1.73076   0.00016  -0.00075   0.00277   0.00201   1.73277
    A7        2.15332  -0.00009   0.00045  -0.00164  -0.00119   2.15213
    A8        1.86156  -0.00002   0.00000  -0.00001  -0.00001   1.86156
    A9        1.86355   0.00004  -0.00027   0.00067   0.00040   1.86395
   A10        1.86206  -0.00002   0.00020  -0.00035  -0.00016   1.86191
   A11        3.17111  -0.00001  -0.00829   0.00037  -0.00793   3.16318
   A12        3.14490   0.00003  -0.00145   0.00375   0.00229   3.14719
    D1       -0.00058   0.00001   0.00023  -0.00036  -0.00014  -0.00072
    D2        3.14086   0.00003   0.00024   0.00028   0.00051   3.14137
    D3        3.14145   0.00001   0.00001   0.00063   0.00064  -3.14110
    D4        1.61015  -0.00006   0.00183  -0.01181  -0.00998   1.60016
    D5       -2.71466  -0.00002   0.00276  -0.01065  -0.00790  -2.72256
    D6       -0.67585   0.00004   0.00384  -0.01049  -0.00665  -0.68249
         Item               Value     Threshold  Converged?
 Maximum Force            0.000157     0.000450     YES
 RMS     Force            0.000045     0.000300     YES
 Maximum Displacement     0.013177     0.001800     NO 
 RMS     Displacement     0.006412     0.001200     NO 
 Predicted change in Energy=-7.663165D-07
 GradGradGradGradGradGradGradGradGradGradGradGradGradGradGradGradGradGrad

                          Input orientation:                          
 ---------------------------------------------------------------------
 Center     Atomic      Atomic             Coordinates (Angstroms)
 Number     Number       Type             X           Y           Z
 ---------------------------------------------------------------------
      1          6           0       -1.751425    0.400939    0.001021
      2          7           0       -1.044425   -0.660339   -0.007240
      3          1           0       -1.334527    1.410419    0.013025
      4          1           0       -2.835300    0.317672   -0.003486
      5          1           0       -0.051569   -0.407291   -0.001547
      6          7           0        2.092176    0.090158   -0.001175
      7          1           0        2.478503    0.147095    0.933150
      8          1           0        2.457102   -0.759438   -0.415061
      9          1           0        2.484129    0.861402   -0.527380
 ---------------------------------------------------------------------
                    Distance matrix (angstroms):
                    1          2          3          4          5
     1  C    0.000000
     2  N    1.275237   0.000000
     3  H    1.092245   2.091079   0.000000
     4  H    1.087077   2.040527   1.856526   0.000000
     5  H    1.882221   1.024612   2.224919   2.876583   0.000000
     6  N    3.856146   3.225143   3.672272   4.932726   2.200704
     7  H    4.338847   3.734609   4.120900   5.398415   2.753592
     8  H    4.385351   3.526589   4.389531   5.416556   2.566794
     9  H    4.293152   3.877748   3.895585   5.372748   2.883720
                    6          7          8          9
     6  N    0.000000
     7  H    1.012647   0.000000
     8  H    1.013058   1.624787   0.000000
     9  H    1.012588   1.625858   1.624952   0.000000
 Stoichiometry    CH6N2
 Framework group  C1[X(CH6N2)]
 Deg. of freedom    21
 Full point group                 C1      NOp   1
 Largest Abelian subgroup         C1      NOp   1
 Largest concise Abelian subgroup C1      NOp   1
                         Standard orientation:                         
 ---------------------------------------------------------------------
 Center     Atomic      Atomic             Coordinates (Angstroms)
 Number     Number       Type             X           Y           Z
 ---------------------------------------------------------------------
      1          6           0       -1.753327    0.397273   -0.000096
      2          7           0       -1.043734   -0.662306    0.000189
      3          1           0       -1.338897    1.407833    0.003750
      4          1           0       -2.836994    0.311322   -0.003905
      5          1           0       -0.051499   -0.406794    0.003815
      6          7           0        2.091023    0.095881    0.000121
      7          1           0        2.477214    0.161300    0.933947
      8          1           0        2.458023   -0.756132   -0.406904
      9          1           0        2.481086    0.863810   -0.532299
 ---------------------------------------------------------------------
 Rotational constants (GHZ):          38.7845332           3.5362578           3.2970791
 Standard basis: Aug-CC-pVTZ (5D, 7F)
 There are   315 symmetry adapted cartesian basis functions of A   symmetry.
 There are   276 symmetry adapted basis functions of A   symmetry.
   276 basis functions,   378 primitive gaussians,   315 cartesian basis functions
    13 alpha electrons       13 beta electrons
       nuclear repulsion energy        68.5014479541 Hartrees.
 NAtoms=    9 NActive=    9 NUniq=    9 SFac= 1.00D+00 NAtFMM=   60 NAOKFM=F Big=F
 Integral buffers will be    131072 words long.
 Raffenetti 1 integral format.
 Two-electron integral symmetry is turned on.
 One-electron integrals computed using PRISM.
 NBasis=   276 RedAO= T EigKep=  3.51D-05  NBF=   276
 NBsUse=   276 1.00D-06 EigRej= -1.00D+00 NBFU=   276
 Initial guess from the checkpoint file:  "/scr/Gau-77475.chk"
 B after Tr=    -0.000000    0.000000    0.000000
         Rot=    0.999999    0.001201    0.000029    0.000179 Ang=   0.14 deg.
 Keep R1 ints in memory in canonical form, NReq=750656247.
 Requested convergence on RMS density matrix=1.00D-08 within 128 cycles.
 Requested convergence on MAX density matrix=1.00D-06.
 Requested convergence on             energy=1.00D-06.
 No special actions if energy rises.
 SCF Done:  E(RHF) =  -150.292579381     A.U. after    9 cycles
            NFock=  9  Conv=0.52D-08     -V/T= 2.0019
 ExpMin= 2.53D-02 ExpMax= 1.14D+04 ExpMxC= 3.89D+02 IAcc=3 IRadAn=         5 AccDes= 0.00D+00
 HarFok:  IExCor=  205 AccDes= 0.00D+00 IRadAn=         5 IDoV=-2 UseB2=F ITyADJ=14
 ICtDFT= 12500011 ScaDFX=  1.000000  1.000000  1.000000  1.000000
 Range of M.O.s used for correlation:     4   276
 NBasis=   276 NAE=    13 NBE=    13 NFC=     3 NFV=     0
 NROrb=    273 NOA=    10 NOB=    10 NVA=   263 NVB=   263

 **** Warning!!: The largest alpha MO coefficient is  0.31020530D+02

 Disk-based method using ON**2 memory for 10 occupieds at a time.
 Estimated scratch disk usage=   580338592 words.
 Actual    scratch disk usage=   531184544 words.
 JobTyp=1 Pass  1:  I=   4 to  13 NPSUse= 40 ParTrn=T ParDer=T DoDerP=T.
 (rs|ai) integrals will be sorted in core.
 Spin components of T(2) and E(2):
     alpha-alpha T2 =       0.2229840529D-01 E2=     -0.7036339753D-01
     alpha-beta  T2 =       0.1425050131D+00 E2=     -0.4806190573D+00
     beta-beta   T2 =       0.2229840529D-01 E2=     -0.7036339753D-01
 ANorm=    0.1089542025D+01
 E2 =    -0.6213458523D+00 EUMP2 =    -0.15091392523335D+03
          IDoAtm=111111111
          Differentiating once with respect to electric field.
                with respect to dipole field.
          Differentiating once with respect to nuclear coordinates.
 Keep R1 ints in memory in canonical form, NReq=750662285.
          There are     1 degrees of freedom in the 1st order CPHF.  IDoFFX=0 NUNeed=     1.
 LinEq1:  Iter=  0 NonCon=     1 RMS=2.71D-03 Max=3.16D-02 NDo=     1
 AX will form     1 AO Fock derivatives at one time.
 LinEq1:  Iter=  1 NonCon=     1 RMS=7.57D-04 Max=8.06D-03 NDo=     1
 LinEq1:  Iter=  2 NonCon=     1 RMS=2.33D-04 Max=3.67D-03 NDo=     1
 LinEq1:  Iter=  3 NonCon=     1 RMS=5.85D-05 Max=7.94D-04 NDo=     1
 LinEq1:  Iter=  4 NonCon=     1 RMS=2.00D-05 Max=2.63D-04 NDo=     1
 LinEq1:  Iter=  5 NonCon=     1 RMS=5.94D-06 Max=1.27D-04 NDo=     1
 LinEq1:  Iter=  6 NonCon=     1 RMS=1.38D-06 Max=1.37D-05 NDo=     1
 LinEq1:  Iter=  7 NonCon=     1 RMS=7.54D-07 Max=1.24D-05 NDo=     1
 LinEq1:  Iter=  8 NonCon=     1 RMS=1.59D-07 Max=1.58D-06 NDo=     1
 LinEq1:  Iter=  9 NonCon=     1 RMS=2.66D-08 Max=3.65D-07 NDo=     1
 LinEq1:  Iter= 10 NonCon=     1 RMS=5.48D-09 Max=7.24D-08 NDo=     1
 LinEq1:  Iter= 11 NonCon=     1 RMS=9.81D-10 Max=1.56D-08 NDo=     1
 LinEq1:  Iter= 12 NonCon=     1 RMS=1.75D-10 Max=1.93D-09 NDo=     1
 LinEq1:  Iter= 13 NonCon=     0 RMS=3.22D-11 Max=4.49D-10 NDo=     1
 Linear equations converged to 1.000D-10 1.000D-09 after    13 iterations.
 End of Minotr F.D. properties file   721 does not exist.
 End of Minotr F.D. properties file   722 does not exist.
 End of Minotr F.D. properties file   788 does not exist.
 Calling FoFJK, ICntrl=  10002127 FMM=F ISym2X=0 I1Cent= 0 IOpClX= 0 NMat=1 NMatS=1 NMatT=0.
 ***** Axes restored to original set *****
 -------------------------------------------------------------------
 Center     Atomic                   Forces (Hartrees/Bohr)
 Number     Number              X              Y              Z
 -------------------------------------------------------------------
      1        6           0.000123019   -0.000112348    0.000041856
      2        7          -0.000116456    0.000011960   -0.000026491
      3        1           0.000008549    0.000019681   -0.000013010
      4        1           0.000013051   -0.000002758   -0.000005986
      5        1          -0.000039400    0.000149895    0.000012656
      6        7           0.000007006   -0.000192867   -0.000106889
      7        1           0.000000307    0.000026501    0.000037979
      8        1           0.000059289    0.000076071    0.000046747
      9        1          -0.000055364    0.000023866    0.000013137
 -------------------------------------------------------------------
 Cartesian Forces:  Max     0.000192867 RMS     0.000070724

 GradGradGradGradGradGradGradGradGradGradGradGradGradGradGradGradGradGrad
 Berny optimization.
 Using GEDIIS/GDIIS optimizer.
 FormGI is forming the generalized inverse of G from B-inverse, IUseBI=4.
 Internal  Forces:  Max     0.000159440 RMS     0.000061592
 Search for a local minimum.
 Step number   4 out of a maximum of   36
 All quantities printed in internal units (Hartrees-Bohrs-Radians)
 Mixed Optimization -- En-DIIS/RFO-DIIS
 Swapping is turned off.
 Update second derivatives using D2CorX and points    1    2    3    4
 DE= -8.25D-07 DEPred=-7.66D-07 R= 1.08D+00
 Trust test= 1.08D+00 RLast= 1.68D-02 DXMaxT set to 1.50D-01
 ITU=  0  1 -1  0
     Eigenvalues ---    0.00059   0.00397   0.00511   0.01465   0.03075
     Eigenvalues ---    0.03545   0.04844   0.10342   0.11304   0.16000
     Eigenvalues ---    0.16000   0.16053   0.16153   0.24424   0.34723
     Eigenvalues ---    0.35207   0.43696   0.45502   0.45542   0.47313
     Eigenvalues ---    0.83644
 En-DIIS/RFO-DIIS/Sim-DIIS IScMMF=       -3 using points:     4    3    2    1
 RFO step:  Lambda=-3.80050182D-06.
 DidBck=F Rises=F RFO-DIIS coefs:    3.00000   -0.19779   -0.78637   -1.01583
 Iteration  1 RMS(Cart)=  0.01840208 RMS(Int)=  0.00020262
 Iteration  2 RMS(Cart)=  0.00024196 RMS(Int)=  0.00002669
 Iteration  3 RMS(Cart)=  0.00000003 RMS(Int)=  0.00002669
 Variable       Old X    -DE/DX   Delta X   Delta X   Delta X     New X
                                 (Linear)    (Quad)   (Total)
    R1        2.40985  -0.00016   0.00053  -0.00046   0.00006   2.40991
    R2        2.06404   0.00002  -0.00020   0.00013  -0.00007   2.06397
    R3        2.05428  -0.00001   0.00005  -0.00010  -0.00005   2.05423
    R4        1.93624  -0.00001  -0.00007   0.00002  -0.00005   1.93619
    R5        4.15873  -0.00000  -0.00173  -0.00057  -0.00230   4.15642
    R6        1.91362   0.00004  -0.00046   0.00021  -0.00025   1.91338
    R7        1.91440  -0.00006   0.00059  -0.00037   0.00021   1.91461
    R8        1.91351  -0.00001   0.00001  -0.00005  -0.00004   1.91347
    A1        2.16231   0.00000  -0.00006   0.00017   0.00011   2.16242
    A2        2.08174  -0.00000  -0.00028  -0.00013  -0.00040   2.08134
    A3        2.03914   0.00000   0.00034  -0.00005   0.00029   2.03942
    A4        1.90885  -0.00016   0.00251  -0.00162   0.00088   1.90974
    A5        1.96546  -0.00002  -0.00256  -0.00085  -0.00344   1.96202
    A6        1.73277   0.00016   0.00684   0.00318   0.01005   1.74281
    A7        2.15213  -0.00010  -0.00416  -0.00180  -0.00599   2.14614
    A8        1.86156  -0.00002  -0.00004   0.00016   0.00017   1.86173
    A9        1.86395   0.00000   0.00187  -0.00071   0.00110   1.86505
   A10        1.86191  -0.00000  -0.00106   0.00074  -0.00030   1.86161
   A11        3.16318   0.00003  -0.00431  -0.00174  -0.00607   3.15711
   A12        3.14719  -0.00000  -0.00727  -0.00395  -0.01123   3.13597
    D1       -0.00072   0.00001  -0.00087   0.00148   0.00061  -0.00011
    D2        3.14137   0.00000  -0.00037   0.00051   0.00014   3.14151
    D3       -3.14110  -0.00001   0.00049  -0.00095  -0.00046  -3.14156
    D4        1.60016  -0.00007  -0.03013  -0.01389  -0.04394   1.55622
    D5       -2.72256  -0.00002  -0.02705  -0.01222  -0.03929  -2.76185
    D6       -0.68249   0.00005  -0.02310  -0.00863  -0.03178  -0.71427
         Item               Value     Threshold  Converged?
 Maximum Force            0.000159     0.000450     YES
 RMS     Force            0.000062     0.000300     YES
 Maximum Displacement     0.036509     0.001800     NO 
 RMS     Displacement     0.018408     0.001200     NO 
 Predicted change in Energy=-1.859995D-06
 GradGradGradGradGradGradGradGradGradGradGradGradGradGradGradGradGradGrad

                          Input orientation:                          
 ---------------------------------------------------------------------
 Center     Atomic      Atomic             Coordinates (Angstroms)
 Number     Number       Type             X           Y           Z
 ---------------------------------------------------------------------
      1          6           0       -1.748923    0.401898    0.004887
      2          7           0       -1.045636   -0.661529   -0.023879
      3          1           0       -1.328605    1.409708    0.028759
      4          1           0       -2.833027    0.321904    0.006295
      5          1           0       -0.051703   -0.412809   -0.020867
      6          7           0        2.090020    0.087654   -0.003771
      7          1           0        2.460954    0.165001    0.935173
      8          1           0        2.470494   -0.764953   -0.397235
      9          1           0        2.481090    0.853743   -0.538055
 ---------------------------------------------------------------------
                    Distance matrix (angstroms):
                    1          2          3          4          5
     1  C    0.000000
     2  N    1.275271   0.000000
     3  H    1.092208   2.091139   0.000000
     4  H    1.087052   2.040297   1.856639   0.000000
     5  H    1.882808   1.024585   2.225873   2.876856   0.000000
     6  N    3.851793   3.223976   3.665499   4.928627   2.199485
     7  H    4.317941   3.728151   4.090432   5.377142   2.749785
     8  H    4.396216   3.537409   4.398155   5.428759   2.574322
     9  H    4.288585   3.872755   3.891549   5.368334   2.878659
                    6          7          8          9
     6  N    0.000000
     7  H    1.012517   0.000000
     8  H    1.013169   1.624875   0.000000
     9  H    1.012565   1.626399   1.624844   0.000000
 Stoichiometry    CH6N2
 Framework group  C1[X(CH6N2)]
 Deg. of freedom    21
 Full point group                 C1      NOp   1
 Largest Abelian subgroup         C1      NOp   1
 Largest concise Abelian subgroup C1      NOp   1
                         Standard orientation:                         
 ---------------------------------------------------------------------
 Center     Atomic      Atomic             Coordinates (Angstroms)
 Number     Number       Type             X           Y           Z
 ---------------------------------------------------------------------
      1          6           0       -1.750707    0.398269   -0.000000
      2          7           0       -1.044357   -0.663515   -0.000432
      3          1           0       -1.333297    1.407564   -0.003036
      4          1           0       -2.834576    0.315216    0.003599
      5          1           0       -0.051145   -0.411939   -0.004108
      6          7           0        2.089126    0.094973   -0.000480
      7          1           0        2.459813    0.198403    0.936047
      8          1           0        2.472065   -0.766724   -0.371087
      9          1           0        2.477999    0.847664   -0.555026
 ---------------------------------------------------------------------
 Rotational constants (GHZ):          38.6727661           3.5427970           3.3019838
 Standard basis: Aug-CC-pVTZ (5D, 7F)
 There are   315 symmetry adapted cartesian basis functions of A   symmetry.
 There are   276 symmetry adapted basis functions of A   symmetry.
   276 basis functions,   378 primitive gaussians,   315 cartesian basis functions
    13 alpha electrons       13 beta electrons
       nuclear repulsion energy        68.5170102793 Hartrees.
 NAtoms=    9 NActive=    9 NUniq=    9 SFac= 1.00D+00 NAtFMM=   60 NAOKFM=F Big=F
 Integral buffers will be    131072 words long.
 Raffenetti 1 integral format.
 Two-electron integral symmetry is turned on.
 One-electron integrals computed using PRISM.
 NBasis=   276 RedAO= T EigKep=  3.50D-05  NBF=   276
 NBsUse=   276 1.00D-06 EigRej= -1.00D+00 NBFU=   276
 Initial guess from the checkpoint file:  "/scr/Gau-77475.chk"
 B after Tr=    -0.000000   -0.000000   -0.000000
         Rot=    0.999986    0.005287    0.000233   -0.000001 Ang=   0.61 deg.
 ExpMin= 2.53D-02 ExpMax= 1.14D+04 ExpMxC= 3.89D+02 IAcc=3 IRadAn=         5 AccDes= 0.00D+00
 Harris functional with IExCor=  205 and IRadAn=       5 diagonalized for initial guess.
 HarFok:  IExCor=  205 AccDes= 0.00D+00 IRadAn=         5 IDoV= 1 UseB2=F ITyADJ=14
 ICtDFT=  3500011 ScaDFX=  1.000000  1.000000  1.000000  1.000000
 FoFCou: FMM=F IPFlag=           0 FMFlag=      100000 FMFlg1=           0
         NFxFlg=           0 DoJE=T BraDBF=F KetDBF=T FulRan=T
         wScrn=  0.000000 ICntrl=       500 IOpCl=  0 I1Cent=   200000004 NGrid=           0
         NMat0=    1 NMatS0=      1 NMatT0=    0 NMatD0=    1 NMtDS0=    0 NMtDT0=    0
 Petite list used in FoFCou.
 Keep R1 ints in memory in canonical form, NReq=750656306.
 Requested convergence on RMS density matrix=1.00D-08 within 128 cycles.
 Requested convergence on MAX density matrix=1.00D-06.
 Requested convergence on             energy=1.00D-06.
 No special actions if energy rises.
 SCF Done:  E(RHF) =  -150.292575214     A.U. after   10 cycles
            NFock= 10  Conv=0.65D-08     -V/T= 2.0019
 ExpMin= 2.53D-02 ExpMax= 1.14D+04 ExpMxC= 3.89D+02 IAcc=3 IRadAn=         5 AccDes= 0.00D+00
 HarFok:  IExCor=  205 AccDes= 0.00D+00 IRadAn=         5 IDoV=-2 UseB2=F ITyADJ=14
 ICtDFT= 12500011 ScaDFX=  1.000000  1.000000  1.000000  1.000000
 Range of M.O.s used for correlation:     4   276
 NBasis=   276 NAE=    13 NBE=    13 NFC=     3 NFV=     0
 NROrb=    273 NOA=    10 NOB=    10 NVA=   263 NVB=   263

 **** Warning!!: The largest alpha MO coefficient is  0.30769380D+02

 Disk-based method using ON**2 memory for 10 occupieds at a time.
 Estimated scratch disk usage=   581093792 words.
 Actual    scratch disk usage=   531873184 words.
 JobTyp=1 Pass  1:  I=   4 to  13 NPSUse= 40 ParTrn=T ParDer=T DoDerP=T.
 (rs|ai) integrals will be sorted in core.
 Spin components of T(2) and E(2):
     alpha-alpha T2 =       0.2229943649D-01 E2=     -0.7036579068D-01
     alpha-beta  T2 =       0.1425057327D+00 E2=     -0.4806212490D+00
     beta-beta   T2 =       0.2229943649D-01 E2=     -0.7036579068D-01
 ANorm=    0.1089543301D+01
 E2 =    -0.6213528303D+00 EUMP2 =    -0.15091392804448D+03
          IDoAtm=111111111
          Differentiating once with respect to electric field.
                with respect to dipole field.
          Differentiating once with respect to nuclear coordinates.
 Keep R1 ints in memory in canonical form, NReq=750662403.
          There are     1 degrees of freedom in the 1st order CPHF.  IDoFFX=0 NUNeed=     1.
 LinEq1:  Iter=  0 NonCon=     1 RMS=2.71D-03 Max=3.12D-02 NDo=     1
 AX will form     1 AO Fock derivatives at one time.
 LinEq1:  Iter=  1 NonCon=     1 RMS=7.57D-04 Max=8.16D-03 NDo=     1
 LinEq1:  Iter=  2 NonCon=     1 RMS=2.33D-04 Max=3.68D-03 NDo=     1
 LinEq1:  Iter=  3 NonCon=     1 RMS=5.85D-05 Max=7.94D-04 NDo=     1
 LinEq1:  Iter=  4 NonCon=     1 RMS=2.00D-05 Max=2.67D-04 NDo=     1
 LinEq1:  Iter=  5 NonCon=     1 RMS=5.94D-06 Max=1.28D-04 NDo=     1
 LinEq1:  Iter=  6 NonCon=     1 RMS=1.38D-06 Max=1.37D-05 NDo=     1
 LinEq1:  Iter=  7 NonCon=     1 RMS=7.52D-07 Max=1.25D-05 NDo=     1
 LinEq1:  Iter=  8 NonCon=     1 RMS=1.59D-07 Max=1.61D-06 NDo=     1
 LinEq1:  Iter=  9 NonCon=     1 RMS=2.65D-08 Max=3.65D-07 NDo=     1
 LinEq1:  Iter= 10 NonCon=     1 RMS=5.47D-09 Max=7.24D-08 NDo=     1
 LinEq1:  Iter= 11 NonCon=     1 RMS=9.76D-10 Max=1.57D-08 NDo=     1
 LinEq1:  Iter= 12 NonCon=     1 RMS=1.71D-10 Max=2.04D-09 NDo=     1
 LinEq1:  Iter= 13 NonCon=     0 RMS=2.77D-11 Max=2.62D-10 NDo=     1
 Linear equations converged to 1.000D-10 1.000D-09 after    13 iterations.
 End of Minotr F.D. properties file   721 does not exist.
 End of Minotr F.D. properties file   722 does not exist.
 End of Minotr F.D. properties file   788 does not exist.
 Calling FoFJK, ICntrl=  10002127 FMM=F ISym2X=0 I1Cent= 0 IOpClX= 0 NMat=1 NMatS=1 NMatT=0.
 ***** Axes restored to original set *****
 -------------------------------------------------------------------
 Center     Atomic                   Forces (Hartrees/Bohr)
 Number     Number              X              Y              Z
 -------------------------------------------------------------------
      1        6           0.000220205   -0.000254686   -0.000005307
      2        7          -0.000219093   -0.000025642   -0.000015012
      3        1           0.000018004    0.000053532    0.000003408
      4        1          -0.000005088    0.000042170    0.000003648
      5        1          -0.000039362    0.000233361    0.000016196
      6        7          -0.000021929   -0.000345668   -0.000288753
      7        1           0.000089936    0.000087324    0.000089237
      8        1          -0.000018921    0.000147282    0.000109420
      9        1          -0.000023751    0.000062328    0.000087163
 -------------------------------------------------------------------
 Cartesian Forces:  Max     0.000345668 RMS     0.000135626

 GradGradGradGradGradGradGradGradGradGradGradGradGradGradGradGradGradGrad
 Berny optimization.
 Using GEDIIS/GDIIS optimizer.
 FormGI is forming the generalized inverse of G from B-inverse, IUseBI=4.
 Internal  Forces:  Max     0.000336490 RMS     0.000103613
 Search for a local minimum.
 Step number   5 out of a maximum of   36
 All quantities printed in internal units (Hartrees-Bohrs-Radians)
 Mixed Optimization -- En-DIIS/RFO-DIIS
 Swapping is turned off.
 Update second derivatives using D2CorX and points    1    2    3    4    5
 DE= -2.81D-06 DEPred=-1.86D-06 R= 1.51D+00
 TightC=F SS=  1.41D+00  RLast= 6.93D-02 DXNew= 2.5227D-01 2.0794D-01
 Trust test= 1.51D+00 RLast= 6.93D-02 DXMaxT set to 2.08D-01
 ITU=  1  0  1 -1  0
     Eigenvalues ---    0.00030   0.00420   0.00570   0.01517   0.03070
     Eigenvalues ---    0.03559   0.04262   0.10490   0.11803   0.16000
     Eigenvalues ---    0.16040   0.16110   0.16529   0.26172   0.34884
     Eigenvalues ---    0.35198   0.43753   0.45505   0.45547   0.51086
     Eigenvalues ---    0.88568
 En-DIIS/RFO-DIIS/Sim-DIIS IScMMF=       -3 using points:     5    4    3    2    1
 RFO step:  Lambda=-3.71799731D-06.
 DIIS inversion failure, remove point   5.
 RFO-DIIS uses    4 points instead of    5
 DidBck=F Rises=F RFO-DIIS coefs:    2.33078   -0.96835   -0.58235    0.21992    0.00000
 Iteration  1 RMS(Cart)=  0.02546280 RMS(Int)=  0.00038971
 Iteration  2 RMS(Cart)=  0.00044182 RMS(Int)=  0.00005105
 Iteration  3 RMS(Cart)=  0.00000009 RMS(Int)=  0.00005105
 Variable       Old X    -DE/DX   Delta X   Delta X   Delta X     New X
                                 (Linear)    (Quad)   (Total)
    R1        2.40991  -0.00026   0.00009  -0.00014  -0.00005   2.40986
    R2        2.06397   0.00006  -0.00010   0.00015   0.00005   2.06402
    R3        2.05423   0.00000  -0.00007   0.00009   0.00002   2.05425
    R4        1.93619   0.00003  -0.00008   0.00016   0.00008   1.93627
    R5        4.15642   0.00001  -0.00320   0.00080  -0.00241   4.15402
    R6        1.91338   0.00012  -0.00035   0.00028  -0.00007   1.91331
    R7        1.91461  -0.00017   0.00031  -0.00036  -0.00005   1.91456
    R8        1.91347  -0.00001  -0.00006   0.00001  -0.00005   1.91342
    A1        2.16242  -0.00002   0.00015  -0.00030  -0.00015   2.16228
    A2        2.08134   0.00006  -0.00057   0.00066   0.00009   2.08143
    A3        2.03942  -0.00003   0.00041  -0.00036   0.00005   2.03948
    A4        1.90974  -0.00034   0.00121  -0.00153  -0.00032   1.90942
    A5        1.96202   0.00005  -0.00482   0.00043  -0.00445   1.95756
    A6        1.74281   0.00011   0.01397   0.00036   0.01438   1.75720
    A7        2.14614  -0.00006  -0.00830  -0.00012  -0.00849   2.13765
    A8        1.86173  -0.00002   0.00023  -0.00002   0.00028   1.86201
    A9        1.86505  -0.00010   0.00155  -0.00102   0.00041   1.86546
   A10        1.86161   0.00004  -0.00042   0.00054   0.00016   1.86177
   A11        3.15711   0.00004  -0.00748   0.00019  -0.00732   3.14979
[...]
 0,0.00007569,0.00047402,-0.00000241,-0.00004087,-0.00001418,-0.0000194
 4,0.00003558,0.00000056,0.00001062,0.00003625,0.00000491,-0.00000571,-
 0.00002149,0.00000232,0.00003080,0.00004216,0.00001408,-0.00000135,0.0
 0017664,0.00005013,-0.00004290,-0.00003455,-0.00001799,0.00004123,-0.0
 0015363,-0.00000529,-0.00001192,0.00002093,-0.00000283,-0.00000015,0.0
 0003201,0.00000309,0.00000708,0.00001157,-0.00000011,-0.00000013,-0.00
 003037,0.00000856,0.00001524,-0.00001078,0.00000159,0.00004669,-0.0000
 4715,0.00005218,-0.00000725,0.00001693,0.00001260,-0.00002988,-0.00000
 986,0.00021828,-0.00025647,-0.00007033,-0.00027996,0.00009608,0.000100
 88,0.00000418,-0.00006837,-0.00003003,-0.00011154,0.00014379,0.0000471
 0,0.00030693,0.00001285,0.00009328,-0.00057419,0.00005575,-0.00021640,
 0.00002963,0.00000918,0.00008151,0.00005136,-0.00001086,-0.00006979,0.
 00035530,-0.00002340,0.00011812,0.00002077,0.00007186,-0.00004462,-0.0
 0001182,-0.00002052,-0.00000370,0.00000046,0.00002902,-0.00005937,-0.0
 0000981,-0.00006998,-0.00002664,-0.00000916,-0.00011427,0.00006863,-0.
 00000075,0.00004625,0.00003080,0.00002997,0.00006301,-0.00004009,-0.00
 001969,0.00001804,-0.00004311,0.00008684,-0.00007157,-0.00000884,-0.00
 009295,0.00006395,0.00002781,-0.00002390,0.00000923,0.00000168,-0.0000
 1607,-0.00000288,-0.00000634,0.00010498,-0.00002666,0.00000895,-0.0000
 0590,0.00003281,-0.00003595,-0.00006259,0.00000504,-0.00002679,-0.0000
 5417,-0.00000995,0.00001673,0.00006377,0.00000002,0.00002274,-0.008728
 18,0.00696706,-0.03014215,0.00192872,-0.00538853,-0.00854091,-0.003875
 53,-0.02379516,-0.00569280,4.33067146,-0.05914076,0.02830611,0.0093642
 4,1.28100831,-0.68304637,-0.01418619,0.00991821,-0.01161082,0.37647722
 ,0.07766551,-0.91342268,0.00449707,0.00282606,0.00064386,0.00119506,0.
 00171821,0.00033777,-0.00428712,-0.00097666,0.00087442,-0.00092014,0.0
 0266579,-0.00467376,-0.00278621,0.00287691,-0.00131178,-0.00031900,-0.
 00084869,0.00417032,0.00063875,-0.00281939,0.00631402,0.00071378,0.000
 40081,-0.00224991,-0.00688814,-0.00052055,-0.00040357,-0.00279000,0.00
 141868,0.00040965,-0.00045325,-0.00026797,-0.00008019,0.00687833,0.003
 37099,0.00671286,0.00051246,0.00299866,0.00184681,0.00232348,-0.000409
 52,-0.00028908,-0.00013165,-0.00047450,-0.00505247,0.00059818,0.000505
 98,0.00468681,0.00071148,0.00225831,-0.00695963,-0.00013234,-0.0001176
 7,0.00005880,0.00017769,0.00001745,-0.00502414,0.01679553,0.02354600,0
 .00570791,-4.31850006,-1.22503490,-0.36293921,-0.00178745,-0.00814803,
 -0.00188424,0.00527139,-0.00871447,-0.00210331,4.27572327,0.05130558,-
 0.00430395,-0.00322615,-1.26182574,0.65692758,-0.08702798,-0.00671264,
 0.00472832,0.00332301,0.00062415,-0.00403227,-0.00296063,1.20747489,-0
 .64947140,0.01236742,-0.00374645,0.01151128,-0.37178093,-0.08638716,0.
 92472233,-0.00149853,0.00329265,-0.00866307,0.00010422,-0.00307572,0.0
 0763976,0.35822816,0.08917707,-0.92910030,-0.00123271,-0.00702746,-0.0
 0170039,-0.00302087,0.00035723,0.00002332,0.00053479,0.00294628,0.0007
 1325,-0.00152791,0.00241155,0.00056047,0.01177887,0.00557496,0.0016007
 3,0.00706567,-0.00140905,-0.00129395,-0.00030385,-0.00147578,0.0004042
 5,-0.00020721,-0.00029227,0.00067591,0.00008664,-0.00077607,0.00078917
 ,0.00029489,0.01129329,-0.00397336,0.00097936,-0.00518081,0.00848435,-
 0.00035375,-0.00037510,-0.00020452,-0.00040679,-0.00018645,0.00114956,
 -0.00006636,0.00012701,0.00033702,-0.00019948,0.00034141,-0.00042470,0
 .00295652,0.00090163,-0.00717324,-0.00131728,-0.00115138,0.01276802,-0
 .00034675,-0.00070508,-0.00013432,-0.00117036,-0.00006079,0.00019734,0
 .00001757,0.00035616,0.00012435,-0.00024454,0.00037056,-0.00002330,0.0
 0506187,0.00056054,-0.00171858,-0.00479977,-0.00040845,0.00232629,0.00
 035902,-0.00003583,0.00000622,0.00002582,0.00025850,0.00012996,0.00009
 481,-0.00001724,-0.00000452,-0.00000713,-0.00000349,0.00000315,-0.0000
 0448,-0.00028370,-0.00070572,-0.00006170,-0.00042362,0.00128431,-0.001
 41382,0.00021499,-0.00132027,-0.00007801,0.00026326,0.00007068,0.00123
 082,0.00010106,0.00000453,-0.00000858,-0.00009776,-0.00000933,0.000131
 57,-0.00006808,-0.00000606,-0.00341650,-0.00048425,0.00041912,0.000943
 01,-0.00116953,-0.00470424,0.00002899,0.00141340,0.00358065,0.00012608
 ,-0.00061007,-0.00014244,-0.00137726,-0.00030916,-0.00008990,0.0002645
 7,0.00017615,0.00004375,-0.00000148,0.00012603,0.00003040,0.00073297,0
 .00330827,0.00079921,-0.00408356,-0.00238332,-0.00063752,0.00064944,0.
 00038691,0.00043881,0.00303074,-0.00001651,-0.00030084,-0.00007079,-0.
 00063168,-0.00007345,0.00000214,0.00002961,0.00004999,0.00000995,-0.00
 005851,0.00005270,0.00001231,0.00169045,0.00151525,0.00038274,0.001361
 47,-0.00538297,-0.00155086,-0.00057613,0.00037755,0.00017396,-0.001239
 20,0.00338625,-0.00000201,-0.00008044,-0.00001980,-0.00016801,0.000006
 95,-0.00011807,0.00001091,0.00001347,0.00000671,-0.00001411,0.00001441
 ,0.00000248,0.00041538,0.00040482,0.00011184,0.00026183,-0.00160110,0.
 00077861,-0.00010999,-0.00005077,0.00014734,-0.00024104,0.00111192,-0.
 00104801,-0.00034725,-0.00068077,-0.00020696,-0.00113244,0.00004316,-0
 .00023000,0.00001869,0.00037133,0.00004954,-0.00024448,0.00032071,0.00
 018074,0.00492365,-0.00031000,0.00189831,-0.00471451,0.00063244,-0.002
 30161,0.00047351,-0.00009651,0.00072990,0.00065850,-0.00055951,-0.0001
 5297,0.00036433,-0.00006488,0.00014128,0.00000696,0.00079710,0.0001788
 9,0.00001726,-0.00001909,-0.00004960,-0.00001359,0.00005826,-0.0000308
 3,-0.00000615,-0.00182355,-0.00068443,-0.00056079,-0.00001961,-0.00098
 770,0.00330756,0.00024818,0.00022932,-0.00013205,0.00054441,0.00037551
 ,0.00018073,0.00027917,0.00082758,0.00004464,-0.00024824,-0.00006305,-
 0.00100974,-0.00000307,-0.00007925,-0.00000051,0.00008782,0.00003542,-
 0.00012576,0.00006626,0.00002670,0.00303529,-0.00010752,0.00053230,-0.
 00108494,0.00307220,-0.00252653,-0.00069076,0.00000387,0.00049734,-0.0
 0020127,-0.00007137,0.00013890,0.00003304,-0.00279994,0.00143818,0.000
 39855,-0.00025835,0.00089105,0.00022093,0.00017516,0.00017284,-0.00003
 697,0.00067194,0.00003550,0.00974323,0.00002375,-0.00050330,-0.0000661
 4,0.00262116,-0.00133383,-0.00014828,0.00002992,0.00003095,0.00102627,
 0.00020825,-0.00215859,-0.00009029,-0.00011954,-0.00006249,-0.00016287
 ,0.00011994,0.00002883,0.00014425,0.00003985,-0.00022405,-0.00008919,-
 0.00022021,0.00018993,0.00000779,-0.00000647,-0.00001987,-0.00007645,-
 0.00006997,-0.00015160,0.00002099,-0.00000857,0.00001909,0.00004930,0.
 00008580,0.00011408,-0.00024409,0.00011960,-0.00010181,0.00017700,-0.0
 0013084,-0.00002104,0.00003299,-0.00000661,-0.00001022,0.00009977,0.00
 004558,-0.00012138,-0.00006332,-0.00019917,0.00005799,0.00006466,-0.00
 001275,0.00004810,-0.00002913,0.00004082,0.00000190,-0.00004971,-0.000
 01757,-0.00006032,-0.00011340,0.00002118,-0.00003986,-0.00003000,-0.00
 001689,0.00001524,0.00014445,0.00001429,0.00007049,-0.00002153,-0.0007
 1905,-0.00016508,-0.01043594,-0.00268408,-0.00090517,0.00013742,0.0002
 6356,0.00003202,-0.00010995,0.00019816,0.00007066,0.01055416,0.0000436
 5,-0.00012928,0.00001741,-0.00307079,0.00174829,-0.00032325,0.00000763
 ,0.00005601,0.00003697,-0.00004290,0.00006519,0.00002117,0.00328468,-0
 .00210969,0.00002901,-0.00014706,0.00001896,-0.00102889,-0.00016273,0.
 00233571,0.00001225,0.00002896,-0.00000732,-0.00001577,0.00003260,-0.0
 0000634,0.00105189,0.00023911,-0.00266902,-0.00007769,0.00028904,0.000
 06703,0.00072765,0.00011228,0.00003268,-0.00005085,-0.00002675,-0.0000
 0303,0.00005480,-0.00005311,-0.00001609,-0.00052539,-0.00037012,-0.000
 08733,-0.10945404,0.00002151,-0.00000437,0.00001347,0.00032152,-0.0000
 9875,0.00001796,-0.00004990,-0.00000253,-0.00000638,0.00001533,-0.0000
 1405,-0.00001411,-0.00016262,0.00016524,0.00001756,-0.09707836,1.53828
 306,0.00000353,0.00001999,-0.00006207,0.00008977,0.00001167,-0.0001418
 0,-0.00001205,-0.00000829,0.00002871,0.00000387,-0.00001057,0.00002436
 ,-0.00004547,0.00001374,0.00009797,-0.04527813,0.01153962,1.48397941,0
 .00000051,-0.00000097,0.00003690,0.00003409,0.00002444,0.00008823,-0.0
 0000944,-0.00001504,-0.00000805,-0.00001089,0.00000346,-0.00002680,0.0
 0009248,0.00002646,-0.00013314,0.08056678,-0.18386287,-0.59499226,-0.1
 0894947,0.00002749,-0.00006834,-0.00001580,-0.00007039,0.00001037,0.00
 001134,0.00002497,-0.00000839,-0.00000530,-0.00001961,0.00000967,-0.00
 000068,0.00009320,0.00012247,0.00003741,-0.16994953,0.13850910,-0.4527
 6949,0.17579149,-0.15673626,0.00006171,-0.00027450,-0.00004636,-0.0001
 9607,0.00011203,0.00001247,0.00008484,0.00002885,-0.00000475,-0.000072
 51,0.00005684,0.00001108,0.00038033,0.00015199,0.00015482,-0.54971821,
 -0.45205955,-1.17640398,0.56925478,0.45731650,1.17289715,0.00006851,0.
 00000783,0.00000462,-0.00007999,-0.00015079,-0.00003632,0.00000594,-0.
 00001178,-0.00000473,0.00001438,-0.00001643,-0.00000349,0.00021466,0.0
 0015550,0.00003859,-0.02394495,0.73806524,0.17218578,0.01441998,-0.010
 79354,-0.00816847,-0.00524799,0.00000449,0.00034022,0.00007951,0.00009
 660,-0.00013220,-0.00002675,-0.00002493,-0.00004123,-0.00001324,0.0000
 7410,-0.00007984,-0.00001780,-0.00052807,-0.00012128,-0.00003975,0.691
 47808,-1.18605298,-0.34412471,0.00849224,0.00494879,0.01160913,-0.7131
 8559,1.18324587,0.00000208,0.00007762,0.00003302,0.00002207,-0.0000293
 3,-0.00002211,-0.00000567,-0.00001151,0.00000305,0.00001780,-0.0000193
 0,-0.00000473,-0.00012171,-0.00003062,0.00000675,0.16105696,-0.3435010
 3,0.21247476,0.01262977,-0.02945486,0.00569214,-0.16637103,0.34777234,
 -0.23080675,0.00000308,0.00000955,-0.00003559,0.00003376,0.00006413,-0
 .00006520,-0.00000723,-0.00001665,0.00000015,-0.00001403,-0.00000655,0
 .00002438,0.00009418,-0.00003408,0.00013341,0.05270370,-0.45726985,0.4
 6804497,0.01385596,0.00489592,-0.01162641,0.01454947,0.01359308,-0.007
 23028,-0.08121889,0.00005205,-0.00018058,-0.00005111,-0.00015066,0.000
 06151,0.00001008,0.00006108,0.00000199,0.00000981,-0.00004994,0.000032
 46,0.00001041,0.00025420,0.00020308,-0.00000610,-0.42440154,-0.4907847
 1,0.78532805,-0.00045923,0.01321260,-0.01694129,-0.01407042,-0.0021073
 8,0.02519668,0.43876445,0.47956104,-0.00004280,0.00020641,0.00006458,0
 .00014375,-0.00008636,-0.00003588,-0.00006500,-0.00002554,-0.00001650,
 0.00005522,-0.00004607,-0.00000991,-0.00029747,-0.00012651,0.00006849,
 0.43394612,0.78399247,-0.51999737,0.01315056,0.02488087,-0.00231255,0.
 00235504,-0.01523874,0.01262388,-0.44924543,-0.79355653,0.50961527,-0.
 00033186,0.00000189,-0.00039909,0.00028042,-0.00002796,-0.00030057,-0.
 00002280,-0.00008676,-0.00014599,0.00034914,-0.00000944,0.00025627,0.0
 0012061,-0.00000275,-0.00019140,-0.00015660,0.00020751,0.00005048,0.00
 024257,-0.00012382,0.00013636,0.00004111,0.00008724,-0.00001480,0.0000
 3237,-0.00004451,-0.00000740,-0.00002916,0.00001760,0.00019600,-0.0000
 4906,0.00000397,-0.00004967,-0.00003806,-0.00002955,-0.00015249,-0.000
 08363,-0.00002660,0.00010916,0.00007806,-0.00005970,-0.00002852,0.0000
 4357,0.00008502,-0.00001578,0.00016202,0.00002326,-0.00012204,-0.00006
 515,0.00002438,0.00001246,-0.00002214,-0.00001006,-0.00001088,-0.00006
 864,0.00001303,0.00001571,-0.00006802,0.00005622,-0.00001728,0.0000407
 7,-0.00000575,-0.00001220,-0.00002679,-0.00005409,0.00000371,-0.000054
 45,-0.00002304,0.00009195,-0.00005626,-0.00000415,-0.00000562,-0.00002
 828,-0.00001463,-0.00005454,0.00012140,0.00003973,-0.00003260,0.000090
 00,0.00008867,0.00002889,-0.00022957,-0.00004128,-0.00010391,-0.000011
 81,-0.00001398,-0.00003668,0.00001203,-0.00003065,0.00001776,-0.000132
 48,-0.00001941,-0.00009271,0.00001339,-0.00008322,-0.00007756,-0.00010
 154,0.00001274,0.00001576,0.00002983,0.00000819,0.00001476,0.00000766,
 0.00026887,0.00017507,0.00001481,-0.00014097,0.00007161,-0.00014431,0.
 00005594,-0.00019025,0.00001169,0.00001822,-0.00001979,-0.00000218,0.0
 0001552,-0.00000137,0.00015167,0.00005993,0.00014327,-0.00002125,-0.00
 016532,-0.00004127,0.00015663,0.00014588,0.00003004,0.00002744,0.00005
 323,0.00001748,-0.00006639,0.00007126,0.00001227,-0.00015615,-0.000114
 33,-0.00001690,-0.02041827,-0.00032688,-0.00059756,-0.00014012,0.00028
 470,0.00088648,0.00015856,-0.00009935,0.00022491,0.00005149,-0.0000974
 6,0.00022507,0.00005256,0.00074194,-0.00080078,-0.00008755,-1.23420729
 ,2.52134787,-0.00007753,-0.00013569,-0.00007327,0.00006873,0.00015464,
 0.00027807,-0.00002160,0.00005019,0.00002755,-0.00002473,0.00005880,-0
 .00000385,0.00018903,-0.00009693,-0.00038598,-0.31260524,0.49251208,0.
 44184198,0.00001016,0.00010096,0.00003262,0.00009870,-0.00003185,-0.00
 002224,-0.00002494,-0.00003410,-0.00001211,0.00002352,-0.00003541,-0.0
 0001015,-0.00009316,0.00000249,0.00000829,0.04035419,-0.08427151,-0.34
 169148,-0.04964920,0.00003482,0.00008798,0.00002359,0.00003030,-0.0001
 1574,0.00001596,-0.00000147,-0.00002379,-0.00001526,0.00002644,-0.0000
 3086,-0.00001299,-0.00029298,0.00009329,-0.00005434,-0.08052536,0.1164
 1382,-0.21699068,0.08975822,-0.13283011,0.00008317,0.00001667,-0.00001
 076,-0.00000945,-0.00005971,-0.00016223,0.00004586,-0.00005497,0.00001
 030,-0.00000558,-0.00002281,0.00000982,0.00022878,0.00021939,0.0002874
 1,-0.31964208,-0.20813803,-0.65801646,0.33511513,0.20817847,0.66721729
 ,0.00006015,-0.00015379,-0.00003448,-0.00041544,0.00000203,-0.00000640
 ,0.00001013,0.00005021,0.00001113,0.00000262,0.00002086,0.00000546,0.0
 0060575,-0.00009086,-0.00001307,-0.04517140,1.56999491,0.36546617,0.00
 098445,-0.01011277,-0.00710011,0.04319309,0.00022037,0.00045082,0.0001
 0149,-0.00022519,-0.00054953,-0.00015626,0.00006014,-0.00015432,-0.000
 02505,0.00005815,-0.00016163,-0.00003499,-0.00056280,0.00047276,0.0001
 3124,1.55375569,-2.41785859,-0.72755446,-0.00263882,0.00848656,0.00401
 633,-1.54748125,2.40237114,0.00005326,0.00009569,0.00006894,-0.0000601
 7,-0.00015499,0.00005749,0.00001549,-0.00002378,-0.00005920,0.00001439
 ,-0.00003601,-0.00002025,-0.00012744,0.00013900,-0.00007965,0.36154713
 ,-0.72723783,0.54154276,-0.00182329,-0.00010365,-0.00726426,-0.3602177
 3,0.72057335,-0.52863997,0.00001252,0.00010378,0.00001662,0.00009611,-
 0.00004246,0.00001147,-0.00002304,-0.00003730,-0.00000693,0.00002207,-
 0.00003545,-0.00000776,-0.00008460,0.00001556,-0.00000999,0.02529521,-
 0.25201905,0.28869665,0.00829628,0.00108281,-0.00871574,0.00073065,-0.
 00318631,0.00059835,-0.03434521,0.00006799,0.00008259,0.00002609,0.000
 02274,-0.00014157,-0.00000312,0.00002056,-0.00004430,-0.00001297,0.000
 02118,-0.00003720,-0.00001013,-0.00015781,0.00019941,0.00000200,-0.239
 01379,-0.21984121,0.45200206,-0.00284997,0.00791885,-0.00415535,-0.012
 22933,0.00694277,0.00674822,0.25411843,0.20492067,-0.00005947,0.000034
 39,-0.00000756,0.00002681,0.00007118,-0.00013579,-0.00004452,0.0000270
 5,0.00003081,0.00001715,-0.00000116,0.00001648,-0.00034811,-0.00027073
 ,0.00017475,0.27069855,0.44282884,-0.32521081,0.00840324,0.00895889,-0
 .00207108,0.00188904,0.00294834,-0.00560586,-0.28058268,-0.45459680,0.
 33280905,-0.00044434,-0.00010986,0.00038628,0.00024197,0.00008078,0.00
 005201,0.00006025,0.00007440,-0.00010380,0.00024129,0.00014530,-0.0002
 1600,0.00004245,-0.00004820,0.00034157,-0.00011316,0.00012771,-0.00010
 633,0.00022813,-0.00003912,0.00033311,0.00003233,-0.00008390,-0.000053
 49,-0.00006677,0.00007679,0.00002038,0.00001717,0.00004366,-0.00011717
 ,-0.00008947,0.00000028,0.00008768,0.00000259,-0.00001451,-0.00005443,
 -0.00007485,-0.00006915,-0.00004399,0.00007610,-0.00001703,-0.00004741
 ,0.00004519,0.00008266,0.00008389,0.00012903,0.00004083,-0.00011436,0.
 00004364,-0.00007564,-0.00001136,-0.00000784,0.00000107,-0.00000929,-0
 .00012944,0.00000442,-0.00005412,-0.00006710,-0.00000323,-0.00001778,0
 .00003927,0.00003404,0.00008973,-0.00001597,0.00002182,-0.00001889,-0.
 00005463,-0.00002231,0.00002107,-0.00006877,-0.00000634,-0.00000567,-0
 .00001874,-0.00000392,0.00001011,0.00013713,0.00002449,0.00000666,0.00
 019003,0.00003981,0.00002035,-0.00041724,-0.00005303,-0.00010853,0.000
 01182,0.00000970,-0.00002977,-0.00003773,-0.00003595,0.00001464,0.0001
 6032,-0.00009674,0.00007653,0.00005189,-0.00001368,-0.00024400,-0.0001
 3230,-0.00003726,-0.00002211,0.00001652,0.00001013,-0.00001243,0.00000
 777,-0.00003386,0.00019566,-0.00000186,-0.00009871,0.00007995,-0.00013
 095,0.00002038,-0.00022336,0.00000003,0.00000612,-0.00000919,-0.000001
 89,0.00001486,-0.00002882,0.00008001,0.00004009,0.00022350,0.00010893,
 -0.00015565,-0.00003879,0.00042872,-0.00001999,-0.00001600,0.00004176,
 0.00001210,0.00000876,-0.00001393,0.00002249,0.00000283,-0.00023491,0.
 00027486,0.00009034,-0.23623541,-0.00015231,0.00013106,0.00001661,0.00
 002810,0.00005919,-0.00013537,-0.00005662,0.00004033,0.00002625,0.0000
 6097,0.00000809,0.00001304,-0.00055190,-0.00059198,0.00013114,1.130290
 50,0.50875780,-0.00003923,0.00001994,0.00005301,0.00000519,-0.00014101
 ,0.00061283,-0.00001217,0.00002612,-0.00005875,0.00001563,0.00001744,-
 0.00005863,-0.00012516,0.00013874,-0.00114541,0.24236302,-0.51587426,2
 .67644406,-0.00001403,0.00002290,0.00003422,-0.00024407,-0.00001763,-0
 .00003276,0.00001076,-0.00002327,0.00001996,-0.00000257,-0.00000640,-0
 .00001758,0.00027311,0.00001526,-0.00002052,0.14642526,-0.33494851,-1.
 00960051,-0.14897567,0.00005777,-0.00011105,-0.00005255,-0.00005905,0.
 00008300,-0.00016357,0.00002181,-0.00000162,0.00003813,-0.00002933,0.0
 0000926,0.00001812,0.00032825,0.00013167,0.00028878,-0.32720752,0.2773
 8975,-0.79929578,0.32291611,-0.26753798,0.00007235,-0.00005062,-0.0000
 3883,0.00008923,0.00006076,-0.00029838,0.00004516,-0.00003311,0.000027
 37,-0.00001909,-0.00001635,0.00002649,0.00011574,0.00014348,0.00060112
 ,-0.99236340,-0.80642376,-1.90188304,0.99540147,0.80695531,1.88527208,
 -0.00005051,0.00013550,0.00003385,0.00019034,0.00002294,0.00001043,-0.
 00005148,-0.00001664,-0.00000703,0.00002225,-0.00002436,-0.00000542,-0
 .00021093,-0.00012711,-0.00003722,-0.00712637,-0.00909795,-0.00233232,
 0.00477887,0.00163917,-0.00077947,-0.00260978,0.00002533,0.00004115,0.
 00001310,0.00003903,-0.00005682,0.00000675,0.00001843,-0.00002875,-0.0
 0001366,0.00000381,-0.00001691,-0.00000553,-0.00005680,0.00006755,-0.0
 0002605,-0.03257020,0.01170268,0.00718116,0.01106754,-0.00558146,0.002
 60728,0.00651494,-0.00228653,0.00000543,0.00001159,-0.00000350,0.00001
 217,0.00000969,-0.00008512,0.00000373,-0.00001233,0.00002016,0.0000005
 6,-0.00000597,0.00000657,-0.00001224,-0.00002860,0.00017088,-0.0079133
 4,0.00742049,-0.01611463,0.01088344,-0.00640706,0.01094973,0.00179282,
 -0.00018534,-0.00400360,-0.00001156,0.00003594,-0.00001995,-0.00023618
 ,-0.00003053,0.00002287,0.00001221,-0.00001239,-0.00002906,-0.00000354
 ,-0.00001284,0.00001054,0.00026557,0.00000842,0.00002206,0.09660598,-0
 .78557229,0.76972555,-0.00225168,0.00233281,-0.00256198,0.00505761,0.0
 1495791,-0.00477258,-0.09943841,0.00008239,-0.00013674,0.00000428,-0.0
 0001763,-0.00003686,0.00029403,0.00004129,0.00000630,-0.00004776,-0.00
 003366,0.00001313,-0.00002532,0.00035374,0.00039914,-0.00037661,-0.770
 64660,-0.79749689,1.30792766,0.00097398,-0.00438158,-0.00324297,0.0009
 5352,-0.00384094,-0.00080248,0.76829298,0.80547447,-0.00003603,0.00000
 076,-0.00001342,-0.00010730,0.00007022,-0.00017968,-0.00003007,0.00002
 132,0.00001781,0.00000267,0.00000934,0.00002224,0.00004496,-0.00023758
 ,0.00033134,0.75786658,1.31482589,-0.75784946,0.00333228,-0.00138139,0
 .00534347,0.00132436,-0.00957772,0.00905951,-0.76239746,-1.30373085,0.
 74326820\\@
 The archive entry for this job was punched.


 KNIGHT- SIRE, I'VE JUST RETURNED FROM THE FRONT
 KING-   HOW GOES THE BATTLE                    
 KNIGHT- THE SITUATION IS QUITE FLUID           
 KING-   WHAT DOES *THAT* MEAN                  
 KNIGHT- WE'RE UP THE CREEK                     
                THE WIZARD OF ID                
 Job cpu time:      15 days 14 hours 33 minutes 58.7 seconds.
 Elapsed time:       0 days  9 hours 31 minutes  5.9 seconds.
 File lengths (MBytes):  RWF=  12808 Int=      0 D2E=      0 Chk=     52 Scr=      1
 Normal termination of Gaussian 16 at Tue Apr  8 03:41:01 2025.
