 Entering Gaussian System, Link 0=g16
 Input=imine_h2o_mp2_avtz_opt_anharm.gjf
 Output=imine_h2o_mp2_avtz_opt_anharm.log
 Initial command:
 /sw/contrib/chem-src/g16/c01/g16/l1.exe "/scr/Gau-90332.inp" -scrdir="/scr/"
 Entering Link 1 = /sw/contrib/chem-src/g16/c01/g16/l1.exe PID=     90342.
  
 Copyright (c) 1988-2019, Gaussian, Inc.  All Rights Reserved.
  
 This is part of the Gaussian(R) 16 program.  It is based on
 the Gaussian(R) 09 system (copyright 2009, Gaussian, Inc.),
 the Gaussian(R) 03 system (copyright 2003, Gaussian, Inc.),
 the Gaussian(R) 98 system (copyright 1998, Gaussian, Inc.),
 the Gaussian(R) 94 system (copyright 1995, Gaussian, Inc.),
 the Gaussian 92(TM) system (copyright 1992, Gaussian, Inc.),
 the Gaussian 90(TM) system (copyright 1990, Gaussian, Inc.),
 the Gaussian 88(TM) system (copyright 1988, Gaussian, Inc.),
 the Gaussian 86(TM) system (copyright 1986, Carnegie Mellon
 University), and the Gaussian 82(TM) system (copyright 1983,
 Carnegie Mellon University). Gaussian is a federally registered
 trademark of Gaussian, Inc.
  
 This software contains proprietary and confidential information,
 including trade secrets, belonging to Gaussian, Inc.
  
 This software is provided under written license and may be
 used, copied, transmitted, or stored only in accord with that
 written license.
  
 The following legend is applicable only to US Government
 contracts under FAR:
  
                    RESTRICTED RIGHTS LEGEND
  
 Use, reproduction and disclosure by the US Government is
 subject to restrictions as set forth in subparagraphs (a)
 and (c) of the Commercial Computer Software - Restricted
 Rights clause in FAR 52.227-19.
  
 Gaussian, Inc.
 340 Quinnipiac St., Bldg. 40, Wallingford CT 06492
  
  
 ---------------------------------------------------------------
 Warning -- This program may not be used in any manner that
 competes with the business of Gaussian, Inc. or will provide
 assistance to any competitor of Gaussian, Inc.  The licensee
 of this program is prohibited from giving any competitor of
 Gaussian, Inc. access to this program.  By using this program,
 the user acknowledges that Gaussian, Inc. is engaged in the
 business of creating and licensing software in the field of
 computational chemistry and represents and warrants to the
 licensee that it is not a competitor of Gaussian, Inc. and that
 it will not use this program in any manner prohibited above.
 ---------------------------------------------------------------
  

 Cite this work as:
 Gaussian 16, Revision C.01,
 M. J. Frisch, G. W. Trucks, H. B. Schlegel, G. E. Scuseria, 
 M. A. Robb, J. R. Cheeseman, G. Scalmani, V. Barone, 
 G. A. Petersson, H. Nakatsuji, X. Li, M. Caricato, A. V. Marenich, 
 J. Bloino, B. G. Janesko, R. Gomperts, B. Mennucci, H. P. Hratchian, 
 J. V. Ortiz, A. F. Izmaylov, J. L. Sonnenberg, D. Williams-Young, 
 F. Ding, F. Lipparini, F. Egidi, J. Goings, B. Peng, A. Petrone, 
 T. Henderson, D. Ranasinghe, V. G. Zakrzewski, J. Gao, N. Rega, 
 G. Zheng, W. Liang, M. Hada, M. Ehara, K. Toyota, R. Fukuda, 
 J. Hasegawa, M. Ishida, T. Nakajima, Y. Honda, O. Kitao, H. Nakai, 
 T. Vreven, K. Throssell, J. A. Montgomery, Jr., J. E. Peralta, 
 F. Ogliaro, M. J. Bearpark, J. J. Heyd, E. N. Brothers, K. N. Kudin, 
 V. N. Staroverov, T. A. Keith, R. Kobayashi, J. Normand, 
 K. Raghavachari, A. P. Rendell, J. C. Burant, S. S. Iyengar, 
 J. Tomasi, M. Cossi, J. M. Millam, M. Klene, C. Adamo, R. Cammi, 
 J. W. Ochterski, R. L. Martin, K. Morokuma, O. Farkas, 
 J. B. Foresman, and D. J. Fox, Gaussian, Inc., Wallingford CT, 2019.
 
 ******************************************
 Gaussian 16:  EM64L-G16RevC.01  3-Jul-2019
                 4-Apr-2025 
 ******************************************
 %nprocshared=40
 Will use up to   40 processors via shared memory.
 %mem=50gb
 ----------------------------------------------
 # MP2/aug-cc-pVTZ opt freq=(vibrot,anharmonic)
 ----------------------------------------------
 1/18=20,19=15,38=1,80=1/1,3;
 2/9=110,12=2,17=6,18=5,40=1/2;
 3/5=16,6=1,7=10,11=9,25=1,30=1,71=1/1,2,3;
 4//1;
 5/5=2,38=5/2;
 8/6=4,10=1/1;
 9/15=2,16=-3/6;
 10/5=1/2;
 6/7=2,8=2,9=2,10=2/1;
 7/12=2/1,2,3,16;
 1/18=20,19=15,80=1/3(2);
 2/9=110/2;
 99//99;
 2/9=110/2;
 3/5=16,6=1,7=10,11=9,25=1,30=1,71=1/1,2,3;
 4/5=5,16=3,69=1/1;
 5/5=2,38=5/2;
 8/6=4,10=1/1;
 9/15=2,16=-3/6;
 10/5=1/2;
 7/12=2/1,2,3,16;
 1/18=20,19=15,80=1/3(-8);
 2/9=110/2;
 6/7=2,8=2,9=2,10=2/1;
 99/9=10/99;
 ----
 blah
 ----
 Symbolic Z-matrix:
 Charge =  0 Multiplicity = 1
 C                    -0.35155  -0.43902  -0.16536 
 N                     0.87969  -0.74103  -0.38935 
 H                    -0.79937  -0.53895   0.83667 
 H                    -0.9961   -0.06906  -0.97775 
 H                     1.30602  -1.06681   0.50377 
 O                     2.05975  -1.63284   2.03973 
 H                     2.80092  -1.11683   2.39909 
 H                     2.39096  -2.546     2.07394 
 
 Add virtual bond connecting atoms O6         and H5         Dist= 3.41D+00.

 GradGradGradGradGradGradGradGradGradGradGradGradGradGradGradGradGradGrad
 Berny optimization.
 Initialization pass.
                           ----------------------------
                           !    Initial Parameters    !
                           ! (Angstroms and Degrees)  !
 --------------------------                            --------------------------
 ! Name  Definition              Value          Derivative Info.                !
 --------------------------------------------------------------------------------
 ! R1    R(1,2)                  1.2874         estimate D2E/DX2                !
 ! R2    R(1,3)                  1.1021         estimate D2E/DX2                !
 ! R3    R(1,4)                  1.101          estimate D2E/DX2                !
 ! R4    R(2,5)                  1.0419         estimate D2E/DX2                !
 ! R5    R(5,6)                  1.8021         estimate D2E/DX2                !
 ! R6    R(6,7)                  0.972          estimate D2E/DX2                !
 ! R7    R(6,8)                  0.972          estimate D2E/DX2                !
 ! A1    A(2,1,3)              121.7047         estimate D2E/DX2                !
 ! A2    A(2,1,4)              120.6859         estimate D2E/DX2                !
 ! A3    A(3,1,4)              117.6093         estimate D2E/DX2                !
 ! A4    A(1,2,5)              108.3942         estimate D2E/DX2                !
 ! A5    A(5,6,7)              117.8595         estimate D2E/DX2                !
 ! A6    A(5,6,8)              117.8788         estimate D2E/DX2                !
 ! A7    A(7,6,8)              103.0559         estimate D2E/DX2                !
 ! A8    L(2,5,6,3,-1)         180.5958         estimate D2E/DX2                !
 ! A9    L(2,5,6,3,-2)         180.0041         estimate D2E/DX2                !
 ! D1    D(3,1,2,5)              0.0            estimate D2E/DX2                !
 ! D2    D(4,1,2,5)            180.0            estimate D2E/DX2                !
 ! D3    D(2,1,3,4)            180.0            estimate D2E/DX2                !
 ! D4    D(1,2,6,7)           -117.7829         estimate D2E/DX2                !
 ! D5    D(1,2,6,8)            117.7628         estimate D2E/DX2                !
 ! D6    D(5,6,7,8)           -131.7217         estimate D2E/DX2                !
 --------------------------------------------------------------------------------
 Trust Radius=3.00D-01 FncErr=1.00D-07 GrdErr=1.00D-07 EigMax=2.50D+02 EigMin=1.00D-04
 Number of steps in this run=     32 maximum allowed number of steps=    100.
 GradGradGradGradGradGradGradGradGradGradGradGradGradGradGradGradGradGrad

                          Input orientation:                          
 ---------------------------------------------------------------------
 Center     Atomic      Atomic             Coordinates (Angstroms)
 Number     Number       Type             X           Y           Z
 ---------------------------------------------------------------------
      1          6           0       -0.351547   -0.439016   -0.165361
      2          7           0        0.879687   -0.741033   -0.389348
      3          1           0       -0.799369   -0.538948    0.836666
      4          1           0       -0.996105   -0.069057   -0.977749
      5          1           0        1.306017   -1.066812    0.503774
      6          8           0        2.059749   -1.632836    2.039726
      7          1           0        2.800919   -1.116830    2.399094
      8          1           0        2.390962   -2.545999    2.073937
 ---------------------------------------------------------------------
                    Distance matrix (angstroms):
                    1          2          3          4          5
     1  C    0.000000
     2  N    1.287370   0.000000
     3  H    1.102083   2.088821   0.000000
     4  H    1.101045   2.077586   1.884570   0.000000
     5  H    1.894568   1.041900   2.195930   2.913794   0.000000
     6  O    3.478787   2.843987   3.289149   4.570428   1.802122
     7  H    4.119939   3.407017   3.967014   5.188284   2.414429
     8  H    4.120095   3.407290   3.967027   5.188473   2.414645
                    6          7          8
     6  O    0.000000
     7  H    0.971977   0.000000
     8  H    0.971976   1.521944   0.000000
 Stoichiometry    CH5NO
 Framework group  C1[X(CH5NO)]
 Deg. of freedom    18
 Full point group                 C1      NOp   1
 Largest Abelian subgroup         C1      NOp   1
 Largest concise Abelian subgroup C1      NOp   1
                         Standard orientation:                         
 ---------------------------------------------------------------------
 Center     Atomic      Atomic             Coordinates (Angstroms)
 Number     Number       Type             X           Y           Z
 ---------------------------------------------------------------------
      1          6           0        1.622102    0.373325    0.000022
      2          7           0        0.868327   -0.670295   -0.000048
      3          1           0        1.201139    1.391842    0.000051
      4          1           0        2.718697    0.274424    0.000055
      5          1           0       -0.125650   -0.357940   -0.000067
      6          8           0       -1.850407    0.164418    0.000018
      7          1           0       -2.400809   -0.086047    0.760981
      8          1           0       -2.401025   -0.085512   -0.760963
 ---------------------------------------------------------------------
 Rotational constants (GHZ):          43.4403476           4.2591295           3.9495929
 Standard basis: Aug-CC-pVTZ (5D, 7F)
 There are   290 symmetry adapted cartesian basis functions of A   symmetry.
 There are   253 symmetry adapted basis functions of A   symmetry.
   253 basis functions,   351 primitive gaussians,   290 cartesian basis functions
    13 alpha electrons       13 beta electrons
       nuclear repulsion energy        68.4870198277 Hartrees.
 NAtoms=    8 NActive=    8 NUniq=    8 SFac= 1.00D+00 NAtFMM=   60 NAOKFM=F Big=F
 Integral buffers will be    131072 words long.
 Raffenetti 1 integral format.
 Two-electron integral symmetry is turned on.
 One-electron integrals computed using PRISM.
 NBasis=   253 RedAO= T EigKep=  4.16D-05  NBF=   253
 NBsUse=   253 1.00D-06 EigRej= -1.00D+00 NBFU=   253
 ExpMin= 2.53D-02 ExpMax= 1.53D+04 ExpMxC= 5.22D+02 IAcc=3 IRadAn=         5 AccDes= 0.00D+00
 Harris functional with IExCor=  205 and IRadAn=       5 diagonalized for initial guess.
 HarFok:  IExCor=  205 AccDes= 0.00D+00 IRadAn=         5 IDoV= 1 UseB2=F ITyADJ=14
 ICtDFT=  3500011 ScaDFX=  1.000000  1.000000  1.000000  1.000000
 FoFCou: FMM=F IPFlag=           0 FMFlag=      100000 FMFlg1=           0
         NFxFlg=           0 DoJE=T BraDBF=F KetDBF=T FulRan=T
         wScrn=  0.000000 ICntrl=       500 IOpCl=  0 I1Cent=   200000004 NGrid=           0
         NMat0=    1 NMatS0=      1 NMatT0=    0 NMatD0=    1 NMtDS0=    0 NMtDT0=    0
 Petite list used in FoFCou.
 Keep R1 ints in memory in canonical form, NReq=536153558.
 Requested convergence on RMS density matrix=1.00D-08 within 128 cycles.
 Requested convergence on MAX density matrix=1.00D-06.
 Requested convergence on             energy=1.00D-06.
 No special actions if energy rises.
 SCF Done:  E(RHF) =  -170.124378209     A.U. after   12 cycles
            NFock= 12  Conv=0.30D-08     -V/T= 2.0024
 ExpMin= 2.53D-02 ExpMax= 1.53D+04 ExpMxC= 5.22D+02 IAcc=3 IRadAn=         5 AccDes= 0.00D+00
 HarFok:  IExCor=  205 AccDes= 0.00D+00 IRadAn=         5 IDoV=-2 UseB2=F ITyADJ=14
 ICtDFT= 12500011 ScaDFX=  1.000000  1.000000  1.000000  1.000000
 Range of M.O.s used for correlation:     4   253
 NBasis=   253 NAE=    13 NBE=    13 NFC=     3 NFV=     0
 NROrb=    250 NOA=    10 NOB=    10 NVA=   240 NVB=   240

 **** Warning!!: The largest alpha MO coefficient is  0.33902810D+02

 Fully direct method using O(ONN) memory.
 JobTyp=1 Pass  1:  I=   4 to  13 NPSUse= 40 ParTrn=T ParDer=T DoDerP=T.
 Spin components of T(2) and E(2):
     alpha-alpha T2 =       0.2289773844D-01 E2=     -0.7701617032D-01
     alpha-beta  T2 =       0.1406991458D+00 E2=     -0.4993143798D+00
     beta-beta   T2 =       0.2289773844D-01 E2=     -0.7701617032D-01
 ANorm=    0.1089263339D+01
 E2 =    -0.6533467204D+00 EUMP2 =    -0.17077772492990D+03
          IDoAtm=11111111
          Differentiating once with respect to electric field.
                with respect to dipole field.
          Differentiating once with respect to nuclear coordinates.
 Keep R1 ints in memory in canonical form, NReq=536160132.
          There are     1 degrees of freedom in the 1st order CPHF.  IDoFFX=0 NUNeed=     1.
 LinEq1:  Iter=  0 NonCon=     1 RMS=3.05D-03 Max=3.56D-02 NDo=     1
 AX will form     1 AO Fock derivatives at one time.
 LinEq1:  Iter=  1 NonCon=     1 RMS=7.25D-04 Max=8.99D-03 NDo=     1
 LinEq1:  Iter=  2 NonCon=     1 RMS=2.26D-04 Max=3.85D-03 NDo=     1
 LinEq1:  Iter=  3 NonCon=     1 RMS=4.15D-05 Max=5.52D-04 NDo=     1
 LinEq1:  Iter=  4 NonCon=     1 RMS=9.85D-06 Max=1.45D-04 NDo=     1
 LinEq1:  Iter=  5 NonCon=     1 RMS=5.86D-06 Max=1.56D-04 NDo=     1
 LinEq1:  Iter=  6 NonCon=     1 RMS=1.49D-06 Max=1.49D-05 NDo=     1
 LinEq1:  Iter=  7 NonCon=     1 RMS=3.58D-07 Max=4.90D-06 NDo=     1
 LinEq1:  Iter=  8 NonCon=     1 RMS=1.64D-07 Max=2.25D-06 NDo=     1
 LinEq1:  Iter=  9 NonCon=     1 RMS=2.72D-08 Max=3.07D-07 NDo=     1
 LinEq1:  Iter= 10 NonCon=     1 RMS=5.20D-09 Max=4.67D-08 NDo=     1
 LinEq1:  Iter= 11 NonCon=     1 RMS=9.29D-10 Max=7.90D-09 NDo=     1
 LinEq1:  Iter= 12 NonCon=     1 RMS=1.68D-10 Max=1.57D-09 NDo=     1
 LinEq1:  Iter= 13 NonCon=     0 RMS=3.18D-11 Max=3.30D-10 NDo=     1
 Linear equations converged to 1.000D-10 1.000D-09 after    13 iterations.
 End of Minotr F.D. properties file   721 does not exist.
 End of Minotr F.D. properties file   722 does not exist.
 End of Minotr F.D. properties file   788 does not exist.

 **********************************************************************

            Population analysis using the SCF Density.

 **********************************************************************

 Orbital symmetries:
       Occupied  (A) (A) (A) (A) (A) (A) (A) (A) (A) (A) (A) (A)
                 (A)
       Virtual   (A) (A) (A) (A) (A) (A) (A) (A) (A) (A) (A) (A)
                 (A) (A) (A) (A) (A) (A) (A) (A) (A) (A) (A) (A)
                 (A) (A) (A) (A) (A) (A) (A) (A) (A) (A) (A) (A)
                 (A) (A) (A) (A) (A) (A) (A) (A) (A) (A) (A) (A)
                 (A) (A) (A) (A) (A) (A) (A) (A) (A) (A) (A) (A)
                 (A) (A) (A) (A) (A) (A) (A) (A) (A) (A) (A) (A)
                 (A) (A) (A) (A) (A) (A) (A) (A) (A) (A) (A) (A)
                 (A) (A) (A) (A) (A) (A) (A) (A) (A) (A) (A) (A)
                 (A) (A) (A) (A) (A) (A) (A) (A) (A) (A) (A) (A)
                 (A) (A) (A) (A) (A) (A) (A) (A) (A) (A) (A) (A)
                 (A) (A) (A) (A) (A) (A) (A) (A) (A) (A) (A) (A)
                 (A) (A) (A) (A) (A) (A) (A) (A) (A) (A) (A) (A)
                 (A) (A) (A) (A) (A) (A) (A) (A) (A) (A) (A) (A)
                 (A) (A) (A) (A) (A) (A) (A) (A) (A) (A) (A) (A)
                 (A) (A) (A) (A) (A) (A) (A) (A) (A) (A) (A) (A)
                 (A) (A) (A) (A) (A) (A) (A) (A) (A) (A) (A) (A)
                 (A) (A) (A) (A) (A) (A) (A) (A) (A) (A) (A) (A)
                 (A) (A) (A) (A) (A) (A) (A) (A) (A) (A) (A) (A)
                 (A) (A) (A) (A) (A) (A) (A) (A) (A) (A) (A) (A)
                 (A) (A) (A) (A) (A) (A) (A) (A) (A) (A) (A) (A)
 The electronic state is 1-A.
 Alpha  occ. eigenvalues --  -20.59366 -15.53779 -11.26540  -1.37539  -1.17358
 Alpha  occ. eigenvalues --   -0.81638  -0.73280  -0.66848  -0.60998  -0.57558
 Alpha  occ. eigenvalues --   -0.53247  -0.41859  -0.40395
 Alpha virt. eigenvalues --    0.02246   0.04006   0.04482   0.05170   0.06576
 Alpha virt. eigenvalues --    0.08913   0.10667   0.13387   0.14819   0.14923
 Alpha virt. eigenvalues --    0.15148   0.16962   0.17354   0.17385   0.19270
 Alpha virt. eigenvalues --    0.19915   0.20788   0.22013   0.23628   0.26929
 Alpha virt. eigenvalues --    0.27728   0.28883   0.29736   0.30344   0.32528
 Alpha virt. eigenvalues --    0.34123   0.34466   0.37526   0.37852   0.39180
 Alpha virt. eigenvalues --    0.40226   0.40297   0.41791   0.42898   0.43165
 Alpha virt. eigenvalues --    0.43362   0.44546   0.45015   0.48871   0.49672
 Alpha virt. eigenvalues --    0.51808   0.53438   0.58668   0.59650   0.61275
 Alpha virt. eigenvalues --    0.62291   0.63953   0.64903   0.67508   0.67880
 Alpha virt. eigenvalues --    0.71651   0.72658   0.74007   0.74808   0.77775
 Alpha virt. eigenvalues --    0.80594   0.82171   0.84715   0.86063   0.87673
 Alpha virt. eigenvalues --    0.88687   0.90146   0.90281   0.93204   0.94080
 Alpha virt. eigenvalues --    0.94522   0.95409   0.96190   0.96490   0.98177
 Alpha virt. eigenvalues --    0.98918   1.00868   1.02911   1.03277   1.03884
 Alpha virt. eigenvalues --    1.05660   1.05861   1.07673   1.11046   1.11803
 Alpha virt. eigenvalues --    1.13584   1.13808   1.16975   1.17735   1.18404
 Alpha virt. eigenvalues --    1.20008   1.24029   1.26722   1.29899   1.31545
 Alpha virt. eigenvalues --    1.31557   1.34919   1.37812   1.40962   1.42992
 Alpha virt. eigenvalues --    1.44722   1.46305   1.48183   1.52455   1.54390
 Alpha virt. eigenvalues --    1.54624   1.59814   1.60892   1.63658   1.68566
 Alpha virt. eigenvalues --    1.70232   1.70932   1.71651   1.77999   1.78984
 Alpha virt. eigenvalues --    1.84385   1.84751   1.88742   1.92574   1.97257
 Alpha virt. eigenvalues --    1.98585   2.02811   2.03436   2.06281   2.08765
 Alpha virt. eigenvalues --    2.10362   2.11427   2.12187   2.16745   2.21114
 Alpha virt. eigenvalues --    2.23578   2.26250   2.29786   2.35009   2.37407
 Alpha virt. eigenvalues --    2.38593   2.43466   2.49007   2.49103   2.54606
 Alpha virt. eigenvalues --    2.61801   2.65365   2.69320   2.71206   2.72496
 Alpha virt. eigenvalues --    2.74709   2.78902   2.84435   2.87414   2.93314
 Alpha virt. eigenvalues --    2.95220   3.05401   3.06850   3.15950   3.30077
 Alpha virt. eigenvalues --    3.33466   3.43493   3.43996   3.57833   3.64746
 Alpha virt. eigenvalues --    3.68415   3.70732   3.74960   3.76947   3.82243
 Alpha virt. eigenvalues --    3.83256   3.83817   3.90261   3.95141   4.05085
 Alpha virt. eigenvalues --    4.05217   4.10706   4.12040   4.12169   4.20323
 Alpha virt. eigenvalues --    4.22317   4.22546   4.25216   4.25499   4.30412
 Alpha virt. eigenvalues --    4.32654   4.35652   4.44862   4.47111   4.49951
 Alpha virt. eigenvalues --    4.53675   4.53942   4.56625   4.61401   4.66884
 Alpha virt. eigenvalues --    4.73354   4.73746   4.78264   4.79749   4.88204
 Alpha virt. eigenvalues --    4.90129   4.91493   4.93219   5.00828   5.09872
 Alpha virt. eigenvalues --    5.10681   5.10794   5.12034   5.16089   5.17014
 Alpha virt. eigenvalues --    5.20856   5.28723   5.31487   5.38890   5.42130
 Alpha virt. eigenvalues --    5.51634   5.51660   5.56416   5.62968   5.68894
 Alpha virt. eigenvalues --    5.71932   5.76889   5.82294   5.88275   6.04367
 Alpha virt. eigenvalues --    6.16958   6.24703   6.33447   6.45953   6.50749
 Alpha virt. eigenvalues --    6.53567   6.64346   6.66782   6.88434   6.97595
 Alpha virt. eigenvalues --    7.02674   7.19850   7.25006   7.33969   7.34177
 Alpha virt. eigenvalues --    7.37027   7.38363   7.56945   7.75366   7.89184
 Alpha virt. eigenvalues --    8.03518   8.81000  15.85094  16.63731  17.03929
          Condensed to atoms (all electrons):
               1          2          3          4          5          6
     1  C    5.700166   0.434300   0.305256   0.307476  -0.012977   0.011297
     2  N    0.434300   7.058534  -0.028731  -0.009434   0.166435  -0.011435
     3  H    0.305256  -0.028731   0.245752   0.007666   0.007568   0.010646
     4  H    0.307476  -0.009434   0.007666   0.231548  -0.003296   0.000171
     5  H   -0.012977   0.166435   0.007568  -0.003296   0.473162  -0.063157
     6  O    0.011297  -0.011435   0.010646   0.000171  -0.063157   7.906269
     7  H    0.000562  -0.001656  -0.000034   0.000196   0.002712   0.292021
     8  H    0.000562  -0.001655  -0.000034   0.000196   0.002711   0.292010
               7          8
     1  C    0.000562   0.000562
     2  N   -0.001656  -0.001655
     3  H   -0.000034  -0.000034
     4  H    0.000196   0.000196
     5  H    0.002712   0.002711
     6  O    0.292021   0.292010
     7  H    0.474515   0.008382
     8  H    0.008382   0.474534
 Mulliken charges:
               1
     1  C   -0.746642
     2  N   -0.606358
     3  H    0.451910
     4  H    0.465477
     5  H    0.426842
     6  O   -0.437823
     7  H    0.223300
     8  H    0.223294
 Sum of Mulliken charges =  -0.00000
 Mulliken charges with hydrogens summed into heavy atoms:
               1
     1  C    0.170745
     2  N   -0.179516
     6  O    0.008771
 Electronic spatial extent (au):  <R**2>=            310.2703
 Charge=             -0.0000 electrons
 Dipole moment (field-independent basis, Debye):
    X=             -2.8486    Y=              1.4424    Z=              0.0000  Tot=              3.1929
 Quadrupole moment (field-independent basis, Debye-Ang):
   XX=             -9.6408   YY=            -22.5791   ZZ=            -18.3939
   XY=              4.9455   XZ=              0.0008   YZ=             -0.0012
 Traceless Quadrupole moment (field-independent basis, Debye-Ang):
   XX=              7.2305   YY=             -5.7079   ZZ=             -1.5226
   XY=              4.9455   XZ=              0.0008   YZ=             -0.0012
 Octapole moment (field-independent basis, Debye-Ang**2):
  XXX=            -28.9587  YYY=              4.7904  ZZZ=              0.0001  XYY=             -4.6325
  XXY=             -1.2719  XXZ=             -0.0018  XZZ=            -11.1460  YZZ=              0.2132
  YYZ=              0.0003  XYZ=              0.0026
 Hexadecapole moment (field-independent basis, Debye-Ang**3):
 XXXX=           -222.4002 YYYY=            -56.3232 ZZZZ=            -21.9676 XXXY=             15.0254
 XXXZ=              0.0087 YYYX=              5.5940 YYYZ=             -0.0009 ZZZX=              0.0005
 ZZZY=             -0.0015 XXYY=            -67.5915 XXZZ=            -43.8816 YYZZ=            -13.1672
 XXYZ=             -0.0065 YYXZ=              0.0000 ZZXY=              1.1734
 N-N= 6.848701982768D+01 E-N=-5.375387884084D+02  KE= 1.697241262090D+02
 Calling FoFJK, ICntrl=  10002127 FMM=F ISym2X=0 I1Cent= 0 IOpClX= 0 NMat=1 NMatS=1 NMatT=0.
 ***** Axes restored to original set *****
 -------------------------------------------------------------------
 Center     Atomic                   Forces (Hartrees/Bohr)
 Number     Number              X              Y              Z
 -------------------------------------------------------------------
      1        6           0.008086146   -0.002666423    0.001525832
      2        7          -0.010835508    0.001238684    0.008200665
      3        1          -0.000598875    0.001738982   -0.006877256
      4        1           0.006531966   -0.003305464    0.006285401
      5        1          -0.006715140    0.005770965   -0.016880343
      6        8           0.015134575   -0.007076900    0.012019558
      7        1          -0.007286465   -0.003026208   -0.003314475
      8        1          -0.004316699    0.007326363   -0.000959383
 -------------------------------------------------------------------
 Cartesian Forces:  Max     0.016880343 RMS     0.007467185

 GradGradGradGradGradGradGradGradGradGradGradGradGradGradGradGradGradGrad
 Berny optimization.
 FormGI is forming the generalized inverse of G from B-inverse, IUseBI=4.
 Internal  Forces:  Max     0.014238461 RMS     0.005705079
 Search for a local minimum.
 Step number   1 out of a maximum of   32
 All quantities printed in internal units (Hartrees-Bohrs-Radians)
 Mixed Optimization -- RFO/linear search
 Second derivative matrix not updated -- first step.
 ITU=  0
     Eigenvalues ---    0.00230   0.00230   0.00230   0.01254   0.03182
     Eigenvalues ---    0.03382   0.06090   0.13872   0.16000   0.16000
     Eigenvalues ---    0.16000   0.16000   0.33453   0.33567   0.41020
     Eigenvalues ---    0.52975   0.52975   0.70827
 RFO step:  Lambda=-2.93894212D-03 EMin= 2.30000000D-03
 Linear search not attempted -- first point.
 Iteration  1 RMS(Cart)=  0.07627431 RMS(Int)=  0.00274882
 Iteration  2 RMS(Cart)=  0.00633842 RMS(Int)=  0.00001636
 Iteration  3 RMS(Cart)=  0.00000342 RMS(Int)=  0.00001610
 Iteration  4 RMS(Cart)=  0.00000000 RMS(Int)=  0.00001610
 Variable       Old X    -DE/DX   Delta X   Delta X   Delta X     New X
                                 (Linear)    (Quad)   (Total)
    R1        2.43278  -0.01424   0.00000  -0.02002  -0.02002   2.41276
    R2        2.08263  -0.00617   0.00000  -0.01828  -0.01828   2.06436
    R3        2.08067  -0.00957   0.00000  -0.02827  -0.02827   2.05240
    R4        1.96891  -0.01007   0.00000  -0.02437  -0.02437   1.94453
    R5        3.40552   0.00895   0.00000   0.14020   0.14020   3.54572
    R6        1.83677  -0.00839   0.00000  -0.01575  -0.01575   1.82102
    R7        1.83677  -0.00839   0.00000  -0.01575  -0.01575   1.82102
    A1        2.12415   0.00578   0.00000   0.03547   0.03547   2.15962
    A2        2.10637  -0.00415   0.00000  -0.02549  -0.02549   2.08088
    A3        2.05267  -0.00163   0.00000  -0.00998  -0.00998   2.04269
    A4        1.89184   0.00130   0.00000   0.00797   0.00797   1.89980
    A5        2.05704  -0.00080   0.00000  -0.00202  -0.00204   2.05500
    A6        2.05737  -0.00081   0.00000  -0.00263  -0.00268   2.05470
    A7        1.79866   0.00193   0.00000   0.01642   0.01641   1.81507
    A8        3.15199  -0.00056   0.00000  -0.14409  -0.14410   3.00789
    A9        3.14166   0.00000   0.00000   0.00009   0.00009   3.14175
    D1       -0.00000   0.00000   0.00000   0.00000   0.00000   0.00000
    D2        3.14159   0.00000   0.00000   0.00000   0.00000  -3.14159
    D3        3.14159   0.00000   0.00000   0.00000   0.00000  -3.14159
    D4       -2.05570   0.00076   0.00000   0.03474   0.03471  -2.02099
    D5        2.05535  -0.00076   0.00000  -0.03475  -0.03472   2.02063
    D6       -2.29898  -0.00003   0.00000  -0.00981  -0.00986  -2.30884
         Item               Value     Threshold  Converged?
 Maximum Force            0.014238     0.000450     NO 
 RMS     Force            0.005705     0.000300     NO 
 Maximum Displacement     0.222189     0.001800     NO 
 RMS     Displacement     0.078511     0.001200     NO 
 Predicted change in Energy=-1.539857D-03
 GradGradGradGradGradGradGradGradGradGradGradGradGradGradGradGradGradGrad

                          Input orientation:                          
 ---------------------------------------------------------------------
 Center     Atomic      Atomic             Coordinates (Angstroms)
 Number     Number       Type             X           Y           Z
 ---------------------------------------------------------------------
      1          6           0       -0.336537   -0.448421   -0.143033
      2          7           0        0.870772   -0.723812   -0.454032
      3          1           0       -0.744375   -0.560941    0.864128
      4          1           0       -1.011016   -0.080113   -0.910502
      5          1           0        1.362948   -1.056418    0.386196
      6          8           0        2.043391   -1.627808    2.038787
      7          1           0        2.757178   -1.113520    2.432013
      8          1           0        2.347950   -2.539497    2.107180
 ---------------------------------------------------------------------
                    Distance matrix (angstroms):
                    1          2          3          4          5
     1  C    0.000000
     2  N    1.276775   0.000000
     3  H    1.092412   2.091117   0.000000
     4  H    1.086086   2.040549   1.857849   0.000000
     5  H    1.880955   1.029003   2.216918   2.875814   0.000000
     6  O    3.437346   2.899378   3.207751   4.519189   1.876312
     7  H    4.079741   3.469821   3.876142   5.141947   2.476389
     8  H    4.079525   3.469665   3.875866   5.141754   2.476194
                    6          7          8
     6  O    0.000000
     7  H    0.963644   0.000000
     8  H    0.963644   1.518681   0.000000
 Stoichiometry    CH5NO
 Framework group  C1[X(CH5NO)]
 Deg. of freedom    18
 Full point group                 C1      NOp   1
 Largest Abelian subgroup         C1      NOp   1
 Largest concise Abelian subgroup C1      NOp   1
                         Standard orientation:                         
 ---------------------------------------------------------------------
 Center     Atomic      Atomic             Coordinates (Angstroms)
 Number     Number       Type             X           Y           Z
 ---------------------------------------------------------------------
      1          6           0        1.577244    0.406346    0.000012
      2          7           0        0.923234   -0.690206   -0.000014
      3          1           0        1.107806    1.392750   -0.000051
      4          1           0        2.662913    0.376263    0.000099
      5          1           0       -0.083425   -0.476928   -0.000101
      6          8           0       -1.850767    0.153188    0.000031
      7          1           0       -2.403746   -0.062217    0.759257
      8          1           0       -2.403513   -0.062010   -0.759424
 ---------------------------------------------------------------------
 Rotational constants (GHZ):          40.6922789           4.2892926           3.9507896
 Standard basis: Aug-CC-pVTZ (5D, 7F)
 There are   290 symmetry adapted cartesian basis functions of A   symmetry.
 There are   253 symmetry adapted basis functions of A   symmetry.
   253 basis functions,   351 primitive gaussians,   290 cartesian basis functions
    13 alpha electrons       13 beta electrons
       nuclear repulsion energy        68.6752773736 Hartrees.
 NAtoms=    8 NActive=    8 NUniq=    8 SFac= 1.00D+00 NAtFMM=   60 NAOKFM=F Big=F
 Integral buffers will be    131072 words long.
 Raffenetti 1 integral format.
 Two-electron integral symmetry is turned on.
 One-electron integrals computed using PRISM.
 NBasis=   253 RedAO= T EigKep=  3.90D-05  NBF=   253
 NBsUse=   253 1.00D-06 EigRej= -1.00D+00 NBFU=   253
 Initial guess from the checkpoint file:  "/scr/Gau-90342.chk"
 B after Tr=     0.000000   -0.000000   -0.000000
         Rot=    0.999975    0.000035    0.000005   -0.007090 Ang=   0.81 deg.
 ExpMin= 2.53D-02 ExpMax= 1.53D+04 ExpMxC= 5.22D+02 IAcc=3 IRadAn=         5 AccDes= 0.00D+00
 Harris functional with IExCor=  205 and IRadAn=       5 diagonalized for initial guess.
 HarFok:  IExCor=  205 AccDes= 0.00D+00 IRadAn=         5 IDoV= 1 UseB2=F ITyADJ=14
 ICtDFT=  3500011 ScaDFX=  1.000000  1.000000  1.000000  1.000000
 FoFCou: FMM=F IPFlag=           0 FMFlag=      100000 FMFlg1=           0
         NFxFlg=           0 DoJE=T BraDBF=F KetDBF=T FulRan=T
         wScrn=  0.000000 ICntrl=       500 IOpCl=  0 I1Cent=   200000004 NGrid=           0
         NMat0=    1 NMatS0=      1 NMatT0=    0 NMatD0=    1 NMtDS0=    0 NMtDT0=    0
 Petite list used in FoFCou.
 Keep R1 ints in memory in canonical form, NReq=536153499.
 Requested convergence on RMS density matrix=1.00D-08 within 128 cycles.
 Requested convergence on MAX density matrix=1.00D-06.
 Requested convergence on             energy=1.00D-06.
 No special actions if energy rises.
 SCF Done:  E(RHF) =  -170.128936898     A.U. after   11 cycles
            NFock= 11  Conv=0.44D-08     -V/T= 2.0017
 ExpMin= 2.53D-02 ExpMax= 1.53D+04 ExpMxC= 5.22D+02 IAcc=3 IRadAn=         5 AccDes= 0.00D+00
 HarFok:  IExCor=  205 AccDes= 0.00D+00 IRadAn=         5 IDoV=-2 UseB2=F ITyADJ=14
 ICtDFT= 12500011 ScaDFX=  1.000000  1.000000  1.000000  1.000000
 Range of M.O.s used for correlation:     4   253
 NBasis=   253 NAE=    13 NBE=    13 NFC=     3 NFV=     0
 NROrb=    250 NOA=    10 NOB=    10 NVA=   240 NVB=   240

 **** Warning!!: The largest alpha MO coefficient is  0.34969321D+02

 Fully direct method using O(ONN) memory.
 JobTyp=1 Pass  1:  I=   4 to  13 NPSUse= 40 ParTrn=T ParDer=T DoDerP=T.
 Spin components of T(2) and E(2):
     alpha-alpha T2 =       0.2258668868D-01 E2=     -0.7664065800D-01
     alpha-beta  T2 =       0.1388121383D+00 E2=     -0.4974337733D+00
     beta-beta   T2 =       0.2258668868D-01 E2=     -0.7664065800D-01
 ANorm=    0.1088110985D+01
 E2 =    -0.6507150893D+00 EUMP2 =    -0.17077965198766D+03
          IDoAtm=11111111
          Differentiating once with respect to electric field.
                with respect to dipole field.
          Differentiating once with respect to nuclear coordinates.
 Keep R1 ints in memory in canonical form, NReq=536159588.
          There are     1 degrees of freedom in the 1st order CPHF.  IDoFFX=0 NUNeed=     1.
 LinEq1:  Iter=  0 NonCon=     1 RMS=3.00D-03 Max=3.50D-02 NDo=     1
 AX will form     1 AO Fock derivatives at one time.
 LinEq1:  Iter=  1 NonCon=     1 RMS=7.02D-04 Max=9.38D-03 NDo=     1
 LinEq1:  Iter=  2 NonCon=     1 RMS=2.18D-04 Max=3.57D-03 NDo=     1
 LinEq1:  Iter=  3 NonCon=     1 RMS=3.98D-05 Max=5.11D-04 NDo=     1
 LinEq1:  Iter=  4 NonCon=     1 RMS=9.74D-06 Max=1.54D-04 NDo=     1
 LinEq1:  Iter=  5 NonCon=     1 RMS=5.38D-06 Max=1.32D-04 NDo=     1
 LinEq1:  Iter=  6 NonCon=     1 RMS=1.35D-06 Max=1.57D-05 NDo=     1
 LinEq1:  Iter=  7 NonCon=     1 RMS=3.28D-07 Max=4.94D-06 NDo=     1
 LinEq1:  Iter=  8 NonCon=     1 RMS=1.51D-07 Max=1.87D-06 NDo=     1
 LinEq1:  Iter=  9 NonCon=     1 RMS=2.55D-08 Max=2.98D-07 NDo=     1
 LinEq1:  Iter= 10 NonCon=     1 RMS=4.86D-09 Max=4.36D-08 NDo=     1
 LinEq1:  Iter= 11 NonCon=     1 RMS=8.55D-10 Max=8.35D-09 NDo=     1
 LinEq1:  Iter= 12 NonCon=     1 RMS=1.50D-10 Max=1.64D-09 NDo=     1
 LinEq1:  Iter= 13 NonCon=     0 RMS=2.79D-11 Max=2.71D-10 NDo=     1
 Linear equations converged to 1.000D-10 1.000D-09 after    13 iterations.
 End of Minotr F.D. properties file   721 does not exist.
 End of Minotr F.D. properties file   722 does not exist.
 End of Minotr F.D. properties file   788 does not exist.
 Calling FoFJK, ICntrl=  10002127 FMM=F ISym2X=0 I1Cent= 0 IOpClX= 0 NMat=1 NMatS=1 NMatT=0.
 ***** Axes restored to original set *****
 -------------------------------------------------------------------
 Center     Atomic                   Forces (Hartrees/Bohr)
 Number     Number              X              Y              Z
 -------------------------------------------------------------------
      1        6           0.002067079   -0.000521220   -0.000315633
      2        7          -0.000249698   -0.000504538    0.002519299
      3        1          -0.000028605    0.000028081   -0.000086904
      4        1          -0.000691511    0.000271366   -0.000318737
      5        1          -0.003602860    0.002715809   -0.007373537
      6        8           0.004452203   -0.002700231    0.006242543
      7        1          -0.001067951    0.000027148   -0.000408992
      8        1          -0.000878657    0.000683584   -0.000258038
 -------------------------------------------------------------------
 Cartesian Forces:  Max     0.007373537 RMS     0.002544544

 GradGradGradGradGradGradGradGradGradGradGradGradGradGradGradGradGradGrad
 Berny optimization.
 Using GEDIIS/GDIIS optimizer.
 FormGI is forming the generalized inverse of G from B-inverse, IUseBI=4.
 Internal  Forces:  Max     0.006427118 RMS     0.001543971
 Search for a local minimum.
 Step number   2 out of a maximum of   32
 All quantities printed in internal units (Hartrees-Bohrs-Radians)
 Mixed Optimization -- RFO/linear search
 Update second derivatives using D2CorX and points    1    2
 DE= -1.93D-03 DEPred=-1.54D-03 R= 1.25D+00
 TightC=F SS=  1.41D+00  RLast= 2.19D-01 DXNew= 5.0454D-01 6.5661D-01
 Trust test= 1.25D+00 RLast= 2.19D-01 DXMaxT set to 5.05D-01
 ITU=  1  0
 Use linear search instead of GDIIS.
     Eigenvalues ---    0.00230   0.00230   0.00265   0.01241   0.03067
     Eigenvalues ---    0.03182   0.03431   0.14024   0.15956   0.16000
     Eigenvalues ---    0.16000   0.16925   0.33458   0.36017   0.40778
     Eigenvalues ---    0.52975   0.53783   0.72066
 RFO step:  Lambda=-1.03384319D-03 EMin= 2.29999934D-03
 Quartic linear search produced a step of  0.49427.
 Iteration  1 RMS(Cart)=  0.13192266 RMS(Int)=  0.00404391
 Iteration  2 RMS(Cart)=  0.00665331 RMS(Int)=  0.00046008
 Iteration  3 RMS(Cart)=  0.00003655 RMS(Int)=  0.00045953
 Iteration  4 RMS(Cart)=  0.00000001 RMS(Int)=  0.00045953
 Variable       Old X    -DE/DX   Delta X   Delta X   Delta X     New X
                                 (Linear)    (Quad)   (Total)
    R1        2.41276  -0.00150  -0.00990  -0.00116  -0.01106   2.40170
    R2        2.06436  -0.00007  -0.00903   0.00152  -0.00751   2.05685
    R3        2.05240   0.00075  -0.01397   0.00619  -0.00778   2.04462
    R4        1.94453  -0.00223  -0.01205  -0.00569  -0.01773   1.92680
    R5        3.54572   0.00643   0.06930   0.14118   0.21047   3.75619
    R6        1.82102  -0.00094  -0.00778  -0.00109  -0.00887   1.81215
    R7        1.82102  -0.00094  -0.00778  -0.00108  -0.00887   1.81216
    A1        2.15962  -0.00013   0.01753  -0.00479   0.01274   2.17236
    A2        2.08088   0.00038  -0.01260   0.00615  -0.00645   2.07444
    A3        2.04269  -0.00025  -0.00493  -0.00136  -0.00629   2.03639
    A4        1.89980   0.00040   0.00394   0.00295   0.00689   1.90669
    A5        2.05500  -0.00017  -0.00101   0.00183   0.00036   2.05535
    A6        2.05470  -0.00029  -0.00132   0.00115  -0.00016   2.05454
    A7        1.81507   0.00079   0.00811   0.01027   0.01743   1.83250
    A8        3.00789   0.00056  -0.07123   0.23564   0.16478   3.17267
    A9        3.14175  -0.00000   0.00004  -0.00126  -0.00121   3.14054
    D1        0.00000  -0.00000   0.00000  -0.00000  -0.00000  -0.00000
    D2       -3.14159  -0.00000   0.00000  -0.00003  -0.00003   3.14157
    D3       -3.14159  -0.00000   0.00000  -0.00003  -0.00003   3.14157
    D4       -2.02099   0.00022   0.01716  -0.03251  -0.01420  -2.03518
    D5        2.02063  -0.00022  -0.01716   0.03267   0.01436   2.03498
    D6       -2.30884  -0.00021  -0.00487  -0.01272  -0.01673  -2.32557
         Item               Value     Threshold  Converged?
 Maximum Force            0.006427     0.000450     NO 
 RMS     Force            0.001544     0.000300     NO 
 Maximum Displacement     0.254348     0.001800     NO 
 RMS     Displacement     0.136875     0.001200     NO 
 Predicted change in Energy=-7.944896D-04
 GradGradGradGradGradGradGradGradGradGradGradGradGradGradGradGradGradGrad

                          Input orientation:                          
 ---------------------------------------------------------------------
 Center     Atomic      Atomic             Coordinates (Angstroms)
 Number     Number       Type             X           Y           Z
 ---------------------------------------------------------------------
      1          6           0       -0.391774   -0.421655   -0.191309
      2          7           0        0.823688   -0.719836   -0.412650
      3          1           0       -0.878970   -0.502141    0.778670
      4          1           0       -0.998763   -0.061517   -1.011379
      5          1           0        1.254419   -1.040056    0.454272
      6          8           0        2.146624   -1.674393    2.113334
      7          1           0        2.872625   -1.151279    2.458095
      8          1           0        2.462464   -2.579653    2.131706
 ---------------------------------------------------------------------
                    Distance matrix (angstroms):
                    1          2          3          4          5
     1  C    0.000000
     2  N    1.270925   0.000000
     3  H    1.088438   2.089420   0.000000
     4  H    1.081966   2.028100   1.847370   0.000000
     5  H    1.873271   1.019619   2.223945   2.860507   0.000000
     6  O    3.650232   3.006981   3.508521   4.717909   1.987688
     7  H    4.267083   3.553233   4.161287   5.311542   2.578036
     8  H    4.266149   3.552218   4.160762   5.310375   2.577502
                    6          7          8
     6  O    0.000000
     7  H    0.958951   0.000000
     8  H    0.958952   1.521518   0.000000
 Stoichiometry    CH5NO
 Framework group  C1[X(CH5NO)]
 Deg. of freedom    18
 Full point group                 C1      NOp   1
 Largest Abelian subgroup         C1      NOp   1
 Largest concise Abelian subgroup C1      NOp   1
                         Standard orientation:                         
 ---------------------------------------------------------------------
 Center     Atomic      Atomic             Coordinates (Angstroms)
 Number     Number       Type             X           Y           Z
 ---------------------------------------------------------------------
      1          6           0        1.682555    0.372837   -0.000060
      2          7           0        0.934351   -0.654510    0.000115
      3          1           0        1.319805    1.399048    0.000374
      4          1           0        2.755968    0.237063   -0.000658
      5          1           0       -0.041647   -0.359469    0.000721
      6          8           0       -1.961250    0.156309   -0.000033
      7          1           0       -2.490519   -0.090930    0.760450
      8          1           0       -2.489394   -0.091641   -0.761068
 ---------------------------------------------------------------------
 Rotational constants (GHZ):          44.7092143           3.8623085           3.6145101
 Standard basis: Aug-CC-pVTZ (5D, 7F)
 There are   290 symmetry adapted cartesian basis functions of A   symmetry.
 There are   253 symmetry adapted basis functions of A   symmetry.
   253 basis functions,   351 primitive gaussians,   290 cartesian basis functions
    13 alpha electrons       13 beta electrons
       nuclear repulsion energy        67.6380881082 Hartrees.
 NAtoms=    8 NActive=    8 NUniq=    8 SFac= 1.00D+00 NAtFMM=   60 NAOKFM=F Big=F
 Integral buffers will be    131072 words long.
 Raffenetti 1 integral format.
 Two-electron integral symmetry is turned on.
 One-electron integrals computed using PRISM.
 NBasis=   253 RedAO= T EigKep=  3.87D-05  NBF=   253
 NBsUse=   253 1.00D-06 EigRej= -1.00D+00 NBFU=   253
 Initial guess from the checkpoint file:  "/scr/Gau-90342.chk"
 B after Tr=    -0.000000    0.000000    0.000000
         Rot=    0.999988    0.000105    0.000009    0.004821 Ang=   0.55 deg.
 ExpMin= 2.53D-02 ExpMax= 1.53D+04 ExpMxC= 5.22D+02 IAcc=3 IRadAn=         5 AccDes= 0.00D+00
 Harris functional with IExCor=  205 and IRadAn=       5 diagonalized for initial guess.
 HarFok:  IExCor=  205 AccDes= 0.00D+00 IRadAn=         5 IDoV= 1 UseB2=F ITyADJ=14
 ICtDFT=  3500011 ScaDFX=  1.000000  1.000000  1.000000  1.000000
 FoFCou: FMM=F IPFlag=           0 FMFlag=      100000 FMFlg1=           0
         NFxFlg=           0 DoJE=T BraDBF=F KetDBF=T FulRan=T
         wScrn=  0.000000 ICntrl=       500 IOpCl=  0 I1Cent=   200000004 NGrid=           0
         NMat0=    1 NMatS0=      1 NMatT0=    0 NMatD0=    1 NMtDS0=    0 NMtDT0=    0
 Petite list used in FoFCou.
 Keep R1 ints in memory in canonical form, NReq=536150255.
 Requested convergence on RMS density matrix=1.00D-08 within 128 cycles.
 Requested convergence on MAX density matrix=1.00D-06.
 Requested convergence on             energy=1.00D-06.
 No special actions if energy rises.
 SCF Done:  E(RHF) =  -170.131769218     A.U. after   11 cycles
            NFock= 11  Conv=0.53D-08     -V/T= 2.0015
 ExpMin= 2.53D-02 ExpMax= 1.53D+04 ExpMxC= 5.22D+02 IAcc=3 IRadAn=         5 AccDes= 0.00D+00
 HarFok:  IExCor=  205 AccDes= 0.00D+00 IRadAn=         5 IDoV=-2 UseB2=F ITyADJ=14
 ICtDFT= 12500011 ScaDFX=  1.000000  1.000000  1.000000  1.000000
 Range of M.O.s used for correlation:     4   253
 NBasis=   253 NAE=    13 NBE=    13 NFC=     3 NFV=     0
 NROrb=    250 NOA=    10 NOB=    10 NVA=   240 NVB=   240

 **** Warning!!: The largest alpha MO coefficient is  0.38224132D+02

 Fully direct method using O(ONN) memory.
 JobTyp=1 Pass  1:  I=   4 to  13 NPSUse= 40 ParTrn=T ParDer=T DoDerP=T.
 Spin components of T(2) and E(2):
     alpha-alpha T2 =       0.2237405934D-01 E2=     -0.7628141751D-01
     alpha-beta  T2 =       0.1377963080D+00 E2=     -0.4961602220D+00
     beta-beta   T2 =       0.2237405934D-01 E2=     -0.7628141751D-01
 ANorm=    0.1087448586D+01
 E2 =    -0.6487230570D+00 EUMP2 =    -0.17078049227501D+03
          IDoAtm=11111111
          Differentiating once with respect to electric field.
                with respect to dipole field.
          Differentiating once with respect to nuclear coordinates.
 Keep R1 ints in memory in canonical form, NReq=536156783.
          There are     1 degrees of freedom in the 1st order CPHF.  IDoFFX=0 NUNeed=     1.
 LinEq1:  Iter=  0 NonCon=     1 RMS=2.97D-03 Max=3.51D-02 NDo=     1
 AX will form     1 AO Fock derivatives at one time.
 LinEq1:  Iter=  1 NonCon=     1 RMS=6.92D-04 Max=9.19D-03 NDo=     1
 LinEq1:  Iter=  2 NonCon=     1 RMS=2.14D-04 Max=3.45D-03 NDo=     1
 LinEq1:  Iter=  3 NonCon=     1 RMS=3.92D-05 Max=4.85D-04 NDo=     1
 LinEq1:  Iter=  4 NonCon=     1 RMS=1.03D-05 Max=1.54D-04 NDo=     1
 LinEq1:  Iter=  5 NonCon=     1 RMS=5.45D-06 Max=1.37D-04 NDo=     1
 LinEq1:  Iter=  6 NonCon=     1 RMS=1.29D-06 Max=1.62D-05 NDo=     1
 LinEq1:  Iter=  7 NonCon=     1 RMS=3.18D-07 Max=4.92D-06 NDo=     1
 LinEq1:  Iter=  8 NonCon=     1 RMS=1.45D-07 Max=1.77D-06 NDo=     1
 LinEq1:  Iter=  9 NonCon=     1 RMS=2.57D-08 Max=2.97D-07 NDo=     1
 LinEq1:  Iter= 10 NonCon=     1 RMS=5.17D-09 Max=4.87D-08 NDo=     1
 LinEq1:  Iter= 11 NonCon=     1 RMS=9.05D-10 Max=8.87D-09 NDo=     1
 LinEq1:  Iter= 12 NonCon=     1 RMS=1.53D-10 Max=1.61D-09 NDo=     1
 LinEq1:  Iter= 13 NonCon=     0 RMS=2.71D-11 Max=2.74D-10 NDo=     1
 Linear equations converged to 1.000D-10 1.000D-09 after    13 iterations.
 End of Minotr F.D. properties file   721 does not exist.
 End of Minotr F.D. properties file   722 does not exist.
 End of Minotr F.D. properties file   788 does not exist.
 Calling FoFJK, ICntrl=  10002127 FMM=F ISym2X=0 I1Cent= 0 IOpClX= 0 NMat=1 NMatS=1 NMatT=0.
 ***** Axes restored to original set *****
 -------------------------------------------------------------------
 Center     Atomic                   Forces (Hartrees/Bohr)
 Number     Number              X              Y              Z
 -------------------------------------------------------------------
      1        6          -0.003769173    0.001281232   -0.000874234
      2        7           0.003798793   -0.000769385   -0.001385147
      3        1          -0.000333690   -0.000463947    0.002465478
      4        1          -0.002576450    0.001304030   -0.002501210
      5        1           0.001716030   -0.000402236   -0.000414146
      6        8          -0.002978854    0.000531180    0.001436180
      7        1           0.002593931    0.001077285    0.001052685
      8        1           0.001549412   -0.002558157    0.000220396
 -------------------------------------------------------------------
 Cartesian Forces:  Max     0.003798793 RMS     0.001904389

 GradGradGradGradGradGradGradGradGradGradGradGradGradGradGradGradGradGrad
 Berny optimization.
 Using GEDIIS/GDIIS optimizer.
 FormGI is forming the generalized inverse of G from B-inverse, IUseBI=4.
 Internal  Forces:  Max     0.006727042 RMS     0.002294523
 Search for a local minimum.
 Step number   3 out of a maximum of   32
 All quantities printed in internal units (Hartrees-Bohrs-Radians)
 Mixed Optimization -- RFO/linear search
 Update second derivatives using D2CorX and points    1    2    3
 DE= -8.40D-04 DEPred=-7.94D-04 R= 1.06D+00
 TightC=F SS=  1.41D+00  RLast= 2.71D-01 DXNew= 8.4853D-01 8.1301D-01
 Trust test= 1.06D+00 RLast= 2.71D-01 DXMaxT set to 8.13D-01
 ITU=  1  1  0
 Use linear search instead of GDIIS.
     Eigenvalues ---    0.00230   0.00230   0.00318   0.01240   0.01727
     Eigenvalues ---    0.03182   0.03240   0.14042   0.15938   0.16000
     Eigenvalues ---    0.16178   0.17250   0.33486   0.36565   0.43547
     Eigenvalues ---    0.52975   0.56886   0.85656
 RFO step:  Lambda=-7.63724315D-04 EMin= 2.29999988D-03
 Quartic linear search produced a step of  0.25251.
 Iteration  1 RMS(Cart)=  0.10854555 RMS(Int)=  0.00862745
 Iteration  2 RMS(Cart)=  0.02752129 RMS(Int)=  0.00025111
 Iteration  3 RMS(Cart)=  0.00028924 RMS(Int)=  0.00017789
 Iteration  4 RMS(Cart)=  0.00000002 RMS(Int)=  0.00017789
 Variable       Old X    -DE/DX   Delta X   Delta X   Delta X     New X
                                 (Linear)    (Quad)   (Total)
    R1        2.40170   0.00673  -0.00279   0.00462   0.00183   2.40353
    R2        2.05685   0.00238  -0.00190   0.00297   0.00107   2.05792
    R3        2.04462   0.00378  -0.00197   0.00584   0.00387   2.04849
    R4        1.92680   0.00359  -0.00448   0.00117  -0.00332   1.92348
    R5        3.75619   0.00309   0.05315   0.14348   0.19663   3.95282
    R6        1.81215   0.00293  -0.00224   0.00125  -0.00099   1.81117
    R7        1.81216   0.00293  -0.00224   0.00125  -0.00099   1.81117
    A1        2.17236  -0.00158   0.00322  -0.00138   0.00183   2.17419
    A2        2.07444   0.00139  -0.00163   0.00358   0.00195   2.07638
    A3        2.03639   0.00019  -0.00159  -0.00219  -0.00378   2.03261
    A4        1.90669   0.00224   0.00174   0.02011   0.02185   1.92854
    A5        2.05535   0.00019   0.00009  -0.00168  -0.00178   2.05357
    A6        2.05454   0.00029  -0.00004  -0.00123  -0.00125   2.05328
    A7        1.83250  -0.00078   0.00440  -0.00213   0.00194   1.83444
    A8        3.17267  -0.00087   0.04161  -0.26594  -0.22419   2.94848
    A9        3.14054   0.00001  -0.00031   0.00152   0.00121   3.14175
    D1       -0.00000   0.00000  -0.00000   0.00002   0.00002   0.00002
    D2        3.14157   0.00000  -0.00001   0.00012   0.00012  -3.14150
    D3        3.14157   0.00000  -0.00001   0.00010   0.00010  -3.14152
    D4       -2.03518  -0.00022  -0.00358   0.03895   0.03580  -1.99938
    D5        2.03498   0.00022   0.00363  -0.03877  -0.03559   1.99939
    D6       -2.32557   0.00019  -0.00423   0.00528   0.00142  -2.32415
         Item               Value     Threshold  Converged?
 Maximum Force            0.006727     0.000450     NO 
 RMS     Force            0.002295     0.000300     NO 
 Maximum Displacement     0.334998     0.001800     NO 
 RMS     Displacement     0.127384     0.001200     NO 
 Predicted change in Energy=-4.543132D-04
 GradGradGradGradGradGradGradGradGradGradGradGradGradGradGradGradGradGrad

                          Input orientation:                          
 ---------------------------------------------------------------------
 Center     Atomic      Atomic             Coordinates (Angstroms)
 Number     Number       Type             X           Y           Z
 ---------------------------------------------------------------------
      1          6           0       -0.376600   -0.429764   -0.174348
      2          7           0        0.818492   -0.693697   -0.520477
      3          1           0       -0.767906   -0.547513    0.835082
      4          1           0       -1.070170   -0.060722   -0.921247
      5          1           0        1.354685   -1.029212    0.276998
      6          8           0        2.112550   -1.666110    2.119656
      7          1           0        2.814568   -1.147277    2.515342
      8          1           0        2.404694   -2.576235    2.189733
 ---------------------------------------------------------------------
                    Distance matrix (angstroms):
                    1          2          3          4          5
     1  C    0.000000
     2  N    1.271893   0.000000
     3  H    1.089006   2.091786   0.000000
     4  H    1.084016   2.031827   1.847436   0.000000
     5  H    1.886902   1.017861   2.246972   2.872924   0.000000
     6  O    3.603730   3.096849   3.346404   4.685517   2.091742
     7  H    4.234715   3.661455   4.002139   5.299240   2.674954
     8  H    4.234597   3.661315   4.002023   5.299122   2.674762
                    6          7          8
     6  O    0.000000
     7  H    0.958428   0.000000
     8  H    0.958429   1.521821   0.000000
 Stoichiometry    CH5NO
 Framework group  C1[X(CH5NO)]
 Deg. of freedom    18
 Full point group                 C1      NOp   1
 Largest Abelian subgroup         C1      NOp   1
 Largest concise Abelian subgroup C1      NOp   1
                         Standard orientation:                         
 ---------------------------------------------------------------------
 Center     Atomic      Atomic             Coordinates (Angstroms)
 Number     Number       Type             X           Y           Z
 ---------------------------------------------------------------------
      1          6           0        1.627723    0.423191    0.000007
      2          7           0        1.016449   -0.692182    0.000012
      3          1           0        1.138357    1.396049   -0.000081
      4          1           0        2.711730    0.427794    0.000026
      5          1           0        0.009065   -0.546522   -0.000094
      6          8           0       -1.965219    0.144556    0.000010
      7          1           0       -2.509516   -0.063772    0.760882
      8          1           0       -2.509371   -0.063871   -0.760939
 ---------------------------------------------------------------------
 Rotational constants (GHZ):          39.7545120           3.8678764           3.5832566
 Standard basis: Aug-CC-pVTZ (5D, 7F)
 There are   290 symmetry adapted cartesian basis functions of A   symmetry.
 There are   253 symmetry adapted basis functions of A   symmetry.
   253 basis functions,   351 primitive gaussians,   290 cartesian basis functions
    13 alpha electrons       13 beta electrons
       nuclear repulsion energy        67.3153850277 Hartrees.
 NAtoms=    8 NActive=    8 NUniq=    8 SFac= 1.00D+00 NAtFMM=   60 NAOKFM=F Big=F
 Integral buffers will be    131072 words long.
 Raffenetti 1 integral format.
 Two-electron integral symmetry is turned on.
 One-electron integrals computed using PRISM.
 NBasis=   253 RedAO= T EigKep=  3.96D-05  NBF=   253
 NBsUse=   253 1.00D-06 EigRej= -1.00D+00 NBFU=   253
 Initial guess from the checkpoint file:  "/scr/Gau-90342.chk"
 B after Tr=     0.000000    0.000000    0.000000
         Rot=    0.999951   -0.000080   -0.000010   -0.009894 Ang=  -1.13 deg.
 ExpMin= 2.53D-02 ExpMax= 1.53D+04 ExpMxC= 5.22D+02 IAcc=3 IRadAn=         5 AccDes= 0.00D+00
 Harris functional with IExCor=  205 and IRadAn=       5 diagonalized for initial guess.
 HarFok:  IExCor=  205 AccDes= 0.00D+00 IRadAn=         5 IDoV= 1 UseB2=F ITyADJ=14
 ICtDFT=  3500011 ScaDFX=  1.000000  1.000000  1.000000  1.000000
 FoFCou: FMM=F IPFlag=           0 FMFlag=      100000 FMFlg1=           0
         NFxFlg=           0 DoJE=T BraDBF=F KetDBF=T FulRan=T
         wScrn=  0.000000 ICntrl=       500 IOpCl=  0 I1Cent=   200000004 NGrid=           0
         NMat0=    1 NMatS0=      1 NMatT0=    0 NMatD0=    1 NMtDS0=    0 NMtDT0=    0
 Petite list used in FoFCou.
 Keep R1 ints in memory in canonical form, NReq=536150091.
 Requested convergence on RMS density matrix=1.00D-08 within 128 cycles.
 Requested convergence on MAX density matrix=1.00D-06.
 Requested convergence on             energy=1.00D-06.
 No special actions if energy rises.
 SCF Done:  E(RHF) =  -170.132647182     A.U. after   11 cycles
            NFock= 11  Conv=0.60D-08     -V/T= 2.0016
 ExpMin= 2.53D-02 ExpMax= 1.53D+04 ExpMxC= 5.22D+02 IAcc=3 IRadAn=         5 AccDes= 0.00D+00
 HarFok:  IExCor=  205 AccDes= 0.00D+00 IRadAn=         5 IDoV=-2 UseB2=F ITyADJ=14
 ICtDFT= 12500011 ScaDFX=  1.000000  1.000000  1.000000  1.000000
 Range of M.O.s used for correlation:     4   253
 NBasis=   253 NAE=    13 NBE=    13 NFC=     3 NFV=     0
 NROrb=    250 NOA=    10 NOB=    10 NVA=   240 NVB=   240

 **** Warning!!: The largest alpha MO coefficient is  0.33512511D+02

 Fully direct method using O(ONN) memory.
 JobTyp=1 Pass  1:  I=   4 to  13 NPSUse= 40 ParTrn=T ParDer=T DoDerP=T.
 Spin components of T(2) and E(2):
     alpha-alpha T2 =       0.2234740959D-01 E2=     -0.7615400109D-01
     alpha-beta  T2 =       0.1378587874D+00 E2=     -0.4959585441D+00
     beta-beta   T2 =       0.2234740959D-01 E2=     -0.7615400109D-01
 ANorm=    0.1087452807D+01
 E2 =    -0.6482665462D+00 EUMP2 =    -0.17078091372797D+03
          IDoAtm=11111111
          Differentiating once with respect to electric field.
                with respect to dipole field.
          Differentiating once with respect to nuclear coordinates.
 Keep R1 ints in memory in canonical form, NReq=536156075.
          There are     1 degrees of freedom in the 1st order CPHF.  IDoFFX=0 NUNeed=     1.
 LinEq1:  Iter=  0 NonCon=     1 RMS=2.97D-03 Max=3.57D-02 NDo=     1
 AX will form     1 AO Fock derivatives at one time.
 LinEq1:  Iter=  1 NonCon=     1 RMS=6.93D-04 Max=9.93D-03 NDo=     1
 LinEq1:  Iter=  2 NonCon=     1 RMS=2.14D-04 Max=3.40D-03 NDo=     1
 LinEq1:  Iter=  3 NonCon=     1 RMS=3.94D-05 Max=4.95D-04 NDo=     1
 LinEq1:  Iter=  4 NonCon=     1 RMS=1.11D-05 Max=1.37D-04 NDo=     1
 LinEq1:  Iter=  5 NonCon=     1 RMS=5.61D-06 Max=1.45D-04 NDo=     1
 LinEq1:  Iter=  6 NonCon=     1 RMS=1.27D-06 Max=1.70D-05 NDo=     1
 LinEq1:  Iter=  7 NonCon=     1 RMS=3.59D-07 Max=6.16D-06 NDo=     1
 LinEq1:  Iter=  8 NonCon=     1 RMS=1.53D-07 Max=1.76D-06 NDo=     1
 LinEq1:  Iter=  9 NonCon=     1 RMS=2.57D-08 Max=3.14D-07 NDo=     1
 LinEq1:  Iter= 10 NonCon=     1 RMS=5.07D-09 Max=4.75D-08 NDo=     1
 LinEq1:  Iter= 11 NonCon=     1 RMS=8.82D-10 Max=9.48D-09 NDo=     1
 LinEq1:  Iter= 12 NonCon=     1 RMS=1.49D-10 Max=1.79D-09 NDo=     1
 LinEq1:  Iter= 13 NonCon=     0 RMS=2.65D-11 Max=2.78D-10 NDo=     1
 Linear equations converged to 1.000D-10 1.000D-09 after    13 iterations.
 End of Minotr F.D. properties file   721 does not exist.
 End of Minotr F.D. properties file   722 does not exist.
 End of Minotr F.D. properties file   788 does not exist.
 Calling FoFJK, ICntrl=  10002127 FMM=F ISym2X=0 I1Cent= 0 IOpClX= 0 NMat=1 NMatS=1 NMatT=0.
 ***** Axes restored to original set *****
 -------------------------------------------------------------------
 Center     Atomic                   Forces (Hartrees/Bohr)
 Number     Number              X              Y              Z
 -------------------------------------------------------------------
      1        6          -0.002159569    0.000414709    0.000871730
      2        7           0.002892708    0.000366029   -0.005265371
      3        1           0.000523737   -0.000671998    0.002293963
      4        1          -0.001171654    0.000721471   -0.001672614
      5        1          -0.000602656   -0.000443121    0.002728279
      6        8          -0.004132799    0.001453765   -0.001186293
      7        1           0.002896182    0.001070197    0.001568369
      8        1           0.001754052   -0.002911053    0.000661937
 -------------------------------------------------------------------
 Cartesian Forces:  Max     0.005265371 RMS     0.002092511

 GradGradGradGradGradGradGradGradGradGradGradGradGradGradGradGradGradGrad
 Berny optimization.
 Using GEDIIS/GDIIS optimizer.
 FormGI is forming the generalized inverse of G from B-inverse, IUseBI=4.
 Internal  Forces:  Max     0.003932876 RMS     0.001839139
 Search for a local minimum.
 Step number   4 out of a maximum of   32
 All quantities printed in internal units (Hartrees-Bohrs-Radians)
 Mixed Optimization -- RFO/linear search
 Update second derivatives using D2CorX and points    2    3    4
 DE= -4.21D-04 DEPred=-4.54D-04 R= 9.28D-01
 TightC=F SS=  1.41D+00  RLast= 3.03D-01 DXNew= 1.3673D+00 9.1003D-01
 Trust test= 9.28D-01 RLast= 3.03D-01 DXMaxT set to 9.10D-01
 ITU=  1  1  1  0
 Use linear search instead of GDIIS.
     Eigenvalues ---    0.00230   0.00230   0.00403   0.01000   0.01244
     Eigenvalues ---    0.03145   0.03182   0.14284   0.16000   0.16048
     Eigenvalues ---    0.17150   0.20165   0.33557   0.36389   0.43508
     Eigenvalues ---    0.52975   0.58088   0.83517
 RFO step:  Lambda=-2.98862174D-04 EMin= 2.29999863D-03
 Quartic linear search produced a step of  0.16888.
 Iteration  1 RMS(Cart)=  0.03498414 RMS(Int)=  0.00033713
 Iteration  2 RMS(Cart)=  0.00051097 RMS(Int)=  0.00000428
 Iteration  3 RMS(Cart)=  0.00000009 RMS(Int)=  0.00000428
 Variable       Old X    -DE/DX   Delta X   Delta X   Delta X     New X
                                 (Linear)    (Quad)   (Total)
    R1        2.40353   0.00314   0.00031   0.00163   0.00193   2.40546
    R2        2.05792   0.00201   0.00018   0.00380   0.00398   2.06190
    R3        2.04849   0.00215   0.00065   0.00304   0.00370   2.05219
    R4        1.92348   0.00319  -0.00056   0.00367   0.00311   1.92659
    R5        3.95282   0.00122   0.03321   0.08827   0.12147   4.07429
    R6        1.81117   0.00335  -0.00017   0.00420   0.00403   1.81520
    R7        1.81117   0.00335  -0.00017   0.00420   0.00403   1.81520
    A1        2.17419  -0.00172   0.00031  -0.00577  -0.00546   2.16873
    A2        2.07638   0.00057   0.00033  -0.00003   0.00030   2.07669
    A3        2.03261   0.00115  -0.00064   0.00580   0.00516   2.03777
    A4        1.92854  -0.00393   0.00369  -0.02360  -0.01991   1.90863
    A5        2.05357   0.00043  -0.00030   0.00086   0.00056   2.05413
    A6        2.05328   0.00044  -0.00021   0.00122   0.00100   2.05429
    A7        1.83444  -0.00105   0.00033  -0.00631  -0.00598   1.82846
    A8        2.94848   0.00017  -0.03786   0.02227  -0.01559   2.93289
    A9        3.14175  -0.00000   0.00021  -0.00070  -0.00050   3.14126
    D1        0.00002  -0.00000   0.00000   0.00002   0.00002   0.00004
    D2       -3.14150  -0.00000   0.00002  -0.00023  -0.00021   3.14147
    D3       -3.14152  -0.00000   0.00002  -0.00025  -0.00023   3.14143
    D4       -1.99938  -0.00032   0.00605  -0.00781  -0.00177  -2.00115
    D5        1.99939   0.00032  -0.00601   0.00796   0.00196   2.00135
    D6       -2.32415   0.00001   0.00024   0.00366   0.00388  -2.32026
         Item               Value     Threshold  Converged?
 Maximum Force            0.003933     0.000450     NO 
 RMS     Force            0.001839     0.000300     NO 
 Maximum Displacement     0.080577     0.001800     NO 
 RMS     Displacement     0.035058     0.001200     NO 
 Predicted change in Energy=-1.483210D-04
 GradGradGradGradGradGradGradGradGradGradGradGradGradGradGradGradGradGrad

                          Input orientation:                          
 ---------------------------------------------------------------------
 Center     Atomic      Atomic             Coordinates (Angstroms)
 Number     Number       Type             X           Y           Z
 ---------------------------------------------------------------------
      1          6           0       -0.379555   -0.427203   -0.182180
      2          7           0        0.808891   -0.681897   -0.560389
      3          1           0       -0.739949   -0.556315    0.839568
      4          1           0       -1.095288   -0.056297   -0.909843
      5          1           0        1.351636   -1.018345    0.234359
      6          8           0        2.115802   -1.672134    2.141462
      7          1           0        2.819223   -1.154715    2.541656
      8          1           0        2.409552   -2.583626    2.216106
 ---------------------------------------------------------------------
                    Distance matrix (angstroms):
                    1          2          3          4          5
     1  C    0.000000
     2  N    1.272916   0.000000
     3  H    1.091111   2.091544   0.000000
     4  H    1.085973   2.034550   1.853840   0.000000
     5  H    1.876160   1.019507   2.225866   2.867433   0.000000
     6  O    3.629873   3.160472   3.330960   4.715134   2.156023
     7  H    4.263888   3.726617   3.990350   5.333176   2.737888
     8  H    4.263925   3.726609   3.990514   5.333184   2.737994
                    6          7          8
     6  O    0.000000
     7  H    0.960561   0.000000
     8  H    0.960562   1.521709   0.000000
 Stoichiometry    CH5NO
 Framework group  C1[X(CH5NO)]
 Deg. of freedom    18
 Full point group                 C1      NOp   1
 Largest Abelian subgroup         C1      NOp   1
 Largest concise Abelian subgroup C1      NOp   1
                         Standard orientation:                         
 ---------------------------------------------------------------------
 Center     Atomic      Atomic             Coordinates (Angstroms)
 Number     Number       Type             X           Y           Z
 ---------------------------------------------------------------------
      1          6           0        1.626921    0.436602   -0.000033
      2          7           0        1.055437   -0.700817    0.000017
      3          1           0        1.096872    1.390317    0.000166
      4          1           0        2.712012    0.480348   -0.000135
      5          1           0        0.044240   -0.570918    0.000230
      6          8           0       -1.990888    0.140903   -0.000026
      7          1           0       -2.537787   -0.070325    0.760869
      8          1           0       -2.537816   -0.070544   -0.760840
 ---------------------------------------------------------------------
 Rotational constants (GHZ):          38.6961048           3.7832626           3.5020534
 Standard basis: Aug-CC-pVTZ (5D, 7F)
 There are   290 symmetry adapted cartesian basis functions of A   symmetry.
 There are   253 symmetry adapted basis functions of A   symmetry.
   253 basis functions,   351 primitive gaussians,   290 cartesian basis functions
    13 alpha electrons       13 beta electrons
       nuclear repulsion energy        66.9150961131 Hartrees.
 NAtoms=    8 NActive=    8 NUniq=    8 SFac= 1.00D+00 NAtFMM=   60 NAOKFM=F Big=F
 Integral buffers will be    131072 words long.
 Raffenetti 1 integral format.
 Two-electron integral symmetry is turned on.
 One-electron integrals computed using PRISM.
 NBasis=   253 RedAO= T EigKep=  3.99D-05  NBF=   253
 NBsUse=   253 1.00D-06 EigRej= -1.00D+00 NBFU=   253
 Initial guess from the checkpoint file:  "/scr/Gau-90342.chk"
 B after Tr=    -0.000000    0.000000   -0.000000
         Rot=    0.999994    0.000010   -0.000002   -0.003546 Ang=   0.41 deg.
 ExpMin= 2.53D-02 ExpMax= 1.53D+04 ExpMxC= 5.22D+02 IAcc=3 IRadAn=         5 AccDes= 0.00D+00
 Harris functional with IExCor=  205 and IRadAn=       5 diagonalized for initial guess.
 HarFok:  IExCor=  205 AccDes= 0.00D+00 IRadAn=         5 IDoV= 1 UseB2=F ITyADJ=14
 ICtDFT=  3500011 ScaDFX=  1.000000  1.000000  1.000000  1.000000
 FoFCou: FMM=F IPFlag=           0 FMFlag=      100000 FMFlg1=           0
         NFxFlg=           0 DoJE=T BraDBF=F KetDBF=T FulRan=T
         wScrn=  0.000000 ICntrl=       500 IOpCl=  0 I1Cent=   200000004 NGrid=           0
         NMat0=    1 NMatS0=      1 NMatT0=    0 NMatD0=    1 NMtDS0=    0 NMtDT0=    0
 Petite list used in FoFCou.
 Keep R1 ints in memory in canonical form, NReq=536149973.
 Requested convergence on RMS density matrix=1.00D-08 within 128 cycles.
 Requested convergence on MAX density matrix=1.00D-06.
 Requested convergence on             energy=1.00D-06.
 No special actions if energy rises.
 SCF Done:  E(RHF) =  -170.132673114     A.U. after    9 cycles
            NFock=  9  Conv=0.79D-08     -V/T= 2.0017
 ExpMin= 2.53D-02 ExpMax= 1.53D+04 ExpMxC= 5.22D+02 IAcc=3 IRadAn=         5 AccDes= 0.00D+00
 HarFok:  IExCor=  205 AccDes= 0.00D+00 IRadAn=         5 IDoV=-2 UseB2=F ITyADJ=14
 ICtDFT= 12500011 ScaDFX=  1.000000  1.000000  1.000000  1.000000
 Range of M.O.s used for correlation:     4   253
 NBasis=   253 NAE=    13 NBE=    13 NFC=     3 NFV=     0
 NROrb=    250 NOA=    10 NOB=    10 NVA=   240 NVB=   240

 **** Warning!!: The largest alpha MO coefficient is  0.34001980D+02

 Fully direct method using O(ONN) memory.
 JobTyp=1 Pass  1:  I=   4 to  13 NPSUse= 40 ParTrn=T ParDer=T DoDerP=T.
 Spin components of T(2) and E(2):
     alpha-alpha T2 =       0.2237259317D-01 E2=     -0.7613521153D-01
     alpha-beta  T2 =       0.1381538401D+00 E2=     -0.4961667765D+00
     beta-beta   T2 =       0.2237259317D-01 E2=     -0.7613521153D-01
 ANorm=    0.1087611616D+01
 E2 =    -0.6484371995D+00 EUMP2 =    -0.17078111031380D+03
          IDoAtm=11111111
          Differentiating once with respect to electric field.
                with respect to dipole field.
          Differentiating once with respect to nuclear coordinates.
 Keep R1 ints in memory in canonical form, NReq=536155551.
          There are     1 degrees of freedom in the 1st order CPHF.  IDoFFX=0 NUNeed=     1.
 LinEq1:  Iter=  0 NonCon=     1 RMS=2.97D-03 Max=3.62D-02 NDo=     1
 AX will form     1 AO Fock derivatives at one time.
 LinEq1:  Iter=  1 NonCon=     1 RMS=6.95D-04 Max=1.01D-02 NDo=     1
 LinEq1:  Iter=  2 NonCon=     1 RMS=2.14D-04 Max=3.46D-03 NDo=     1
 LinEq1:  Iter=  3 NonCon=     1 RMS=3.95D-05 Max=4.75D-04 NDo=     1
 LinEq1:  Iter=  4 NonCon=     1 RMS=1.15D-05 Max=1.35D-04 NDo=     1
 LinEq1:  Iter=  5 NonCon=     1 RMS=5.53D-06 Max=1.42D-04 NDo=     1
 LinEq1:  Iter=  6 NonCon=     1 RMS=1.25D-06 Max=1.78D-05 NDo=     1
 LinEq1:  Iter=  7 NonCon=     1 RMS=3.55D-07 Max=6.38D-06 NDo=     1
 LinEq1:  Iter=  8 NonCon=     1 RMS=1.52D-07 Max=1.75D-06 NDo=     1
 LinEq1:  Iter=  9 NonCon=     1 RMS=2.62D-08 Max=3.19D-07 NDo=     1
 LinEq1:  Iter= 10 NonCon=     1 RMS=5.19D-09 Max=4.81D-08 NDo=     1
 LinEq1:  Iter= 11 NonCon=     1 RMS=8.98D-10 Max=9.87D-09 NDo=     1
 LinEq1:  Iter= 12 NonCon=     1 RMS=1.52D-10 Max=1.88D-09 NDo=     1
 LinEq1:  Iter= 13 NonCon=     0 RMS=2.71D-11 Max=2.93D-10 NDo=     1
 Linear equations converged to 1.000D-10 1.000D-09 after    13 iterations.
 End of Minotr F.D. properties file   721 does not exist.
 End of Minotr F.D. properties file   722 does not exist.
 End of Minotr F.D. properties file   788 does not exist.
 Calling FoFJK, ICntrl=  10002127 FMM=F ISym2X=0 I1Cent= 0 IOpClX= 0 NMat=1 NMatS=1 NMatT=0.
 ***** Axes restored to original set *****
 -------------------------------------------------------------------
 Center     Atomic                   Forces (Hartrees/Bohr)
 Number     Number              X              Y              Z
 -------------------------------------------------------------------
      1        6          -0.003285305    0.000805114    0.000664327
      2        7           0.002466678   -0.000205437   -0.002198787
      3        1           0.000573548   -0.000287777    0.000524650
      4        1          -0.000423561    0.000231423   -0.000514015
      5        1           0.000583198   -0.000457059    0.001247697
      6        8          -0.001941137    0.000709309   -0.000664782
      7        1           0.001197709    0.000244180    0.000617327
      8        1           0.000828869   -0.001039753    0.000323581
 -------------------------------------------------------------------
 Cartesian Forces:  Max     0.003285305 RMS     0.001200611

 GradGradGradGradGradGradGradGradGradGradGradGradGradGradGradGradGradGrad
 Berny optimization.
 Using GEDIIS/GDIIS optimizer.
 FormGI is forming the generalized inverse of G from B-inverse, IUseBI=4.
 Internal  Forces:  Max     0.003277618 RMS     0.000957819
 Search for a local minimum.
 Step number   5 out of a maximum of   32
 All quantities printed in internal units (Hartrees-Bohrs-Radians)
 Mixed Optimization -- En-DIIS/RFO-DIIS
 Update second derivatives using D2CorX and points    2    3    4    5
 DE= -1.97D-04 DEPred=-1.48D-04 R= 1.33D+00
 TightC=F SS=  1.41D+00  RLast= 1.25D-01 DXNew= 1.5305D+00 3.7454D-01
 Trust test= 1.33D+00 RLast= 1.25D-01 DXMaxT set to 9.10D-01
 ITU=  1  1  1  1  0
 Use linear search instead of GDIIS.
     Eigenvalues ---    0.00230   0.00230   0.00372   0.00942   0.01241
     Eigenvalues ---    0.03157   0.03182   0.14188   0.15996   0.16003
     Eigenvalues ---    0.16765   0.19893   0.33625   0.36786   0.42501
     Eigenvalues ---    0.52975   0.55915   0.77467
 RFO step:  Lambda=-3.45119717D-05 EMin= 2.30000010D-03
 Quartic linear search produced a step of  0.46346.
 Iteration  1 RMS(Cart)=  0.04129098 RMS(Int)=  0.00063322
 Iteration  2 RMS(Cart)=  0.00143169 RMS(Int)=  0.00001030
 Iteration  3 RMS(Cart)=  0.00000041 RMS(Int)=  0.00001030
 Variable       Old X    -DE/DX   Delta X   Delta X   Delta X     New X
                                 (Linear)    (Quad)   (Total)
    R1        2.40546   0.00328   0.00090   0.00400   0.00490   2.41036
    R2        2.06190   0.00034   0.00184  -0.00147   0.00037   2.06228
    R3        2.05219   0.00070   0.00171  -0.00043   0.00128   2.05348
    R4        1.92659   0.00173   0.00144   0.00204   0.00348   1.93007
    R5        4.07429   0.00030   0.05630   0.01045   0.06675   4.14104
    R6        1.81520   0.00127   0.00187   0.00056   0.00243   1.81763
    R7        1.81520   0.00127   0.00187   0.00056   0.00243   1.81763
    A1        2.16873  -0.00100  -0.00253  -0.00413  -0.00666   2.16207
    A2        2.07669   0.00044   0.00014   0.00167   0.00181   2.07850
    A3        2.03777   0.00056   0.00239   0.00245   0.00484   2.04261
    A4        1.90863  -0.00067  -0.00923   0.00081  -0.00841   1.90022
    A5        2.05413   0.00023   0.00026   0.00004   0.00030   2.05443
    A6        2.05429   0.00026   0.00047   0.00021   0.00066   2.05495
    A7        1.82846  -0.00063  -0.00277  -0.00400  -0.00677   1.82169
    A8        2.93289  -0.00013  -0.00723  -0.04546  -0.05270   2.88019
    A9        3.14126   0.00000  -0.00023   0.00153   0.00129   3.14255
    D1        0.00004  -0.00000   0.00001  -0.00023  -0.00022  -0.00017
    D2        3.14147   0.00001  -0.00010   0.00055   0.00045  -3.14127
    D3        3.14143   0.00001  -0.00011   0.00076   0.00065  -3.14110
    D4       -2.00115  -0.00018  -0.00082   0.00428   0.00344  -1.99772
    D5        2.00135   0.00018   0.00091  -0.00452  -0.00359   1.99776
    D6       -2.32026   0.00006   0.00180   0.00351   0.00528  -2.31498
         Item               Value     Threshold  Converged?
 Maximum Force            0.003278     0.000450     NO 
 RMS     Force            0.000958     0.000300     NO 
 Maximum Displacement     0.098335     0.001800     NO 
 RMS     Displacement     0.042172     0.001200     NO 
 Predicted change in Energy=-3.514793D-05
 GradGradGradGradGradGradGradGradGradGradGradGradGradGradGradGradGradGrad

                          Input orientation:                          
 ---------------------------------------------------------------------
 Center     Atomic      Atomic             Coordinates (Angstroms)
 Number     Number       Type             X           Y           Z
 ---------------------------------------------------------------------
      1          6           0       -0.371668   -0.430442   -0.176851
      2          7           0        0.807869   -0.672987   -0.597311
      3          1           0       -0.690831   -0.575148    0.856663
      4          1           0       -1.115432   -0.057534   -0.875827
      5          1           0        1.373069   -1.013395    0.182322
      6          8           0        2.098751   -1.667742    2.143750
      7          1           0        2.798841   -1.153000    2.556140
      8          1           0        2.389714   -2.580282    2.231852
 ---------------------------------------------------------------------
                    Distance matrix (angstroms):
                    1          2          3          4          5
     1  C    0.000000
     2  N    1.275509   0.000000
     3  H    1.091310   2.090386   0.000000
     4  H    1.086652   2.038490   1.857346   0.000000
     5  H    1.874286   1.021350   2.215058   2.868099   0.000000
     6  O    3.608195   3.188938   3.260693   4.694847   2.191343
     7  H    4.247759   3.760137   3.924276   5.319772   2.772603
     8  H    4.248399   3.760873   3.924469   5.320524   2.772954
                    6          7          8
     6  O    0.000000
     7  H    0.961848   0.000000
     8  H    0.961847   1.519764   0.000000
 Stoichiometry    CH5NO
 Framework group  C1[X(CH5NO)]
 Deg. of freedom    18
 Full point group                 C1      NOp   1
 Largest Abelian subgroup         C1      NOp   1
 Largest concise Abelian subgroup C1      NOp   1
                         Standard orientation:                         
 ---------------------------------------------------------------------
 Center     Atomic      Atomic             Coordinates (Angstroms)
 Number     Number       Type             X           Y           Z
 ---------------------------------------------------------------------
      1          6           0        1.604642    0.453487    0.000093
      2          7           0        1.084694   -0.711235   -0.000059
      3          1           0        1.025276    1.378306   -0.000540
      4          1           0        2.687105    0.548813    0.000418
      5          1           0        0.067519   -0.618987   -0.000682
      6          8           0       -1.989577    0.136220    0.000025
      7          1           0       -2.541609   -0.070377    0.760111
      8          1           0       -2.542388   -0.069788   -0.759653
 ---------------------------------------------------------------------
 Rotational constants (GHZ):          37.3944754           3.7923006           3.4986059
 Standard basis: Aug-CC-pVTZ (5D, 7F)
 There are   290 symmetry adapted cartesian basis functions of A   symmetry.
 There are   253 symmetry adapted basis functions of A   symmetry.
   253 basis functions,   351 primitive gaussians,   290 cartesian basis functions
    13 alpha electrons       13 beta electrons
       nuclear repulsion energy        66.8047716301 Hartrees.
 NAtoms=    8 NActive=    8 NUniq=    8 SFac= 1.00D+00 NAtFMM=   60 NAOKFM=F Big=F
 Integral buffers will be    131072 words long.
 Raffenetti 1 integral format.
 Two-electron integral symmetry is turned on.
 One-electron integrals computed using PRISM.
 NBasis=   253 RedAO= T EigKep=  3.98D-05  NBF=   253
 NBsUse=   253 1.00D-06 EigRej= -1.00D+00 NBFU=   253
 Initial guess from the checkpoint file:  "/scr/Gau-90342.chk"
 B after Tr=     0.000000   -0.000000    0.000000
[...]
 065900,-0.00016603,-0.00014585,-0.00040611,0.00005054,0.00019210,-0.00
 004289,-0.00003786,0.00020478,-0.00001205,0.00004485,-0.00019351,0.000
 00951,-0.00005770,0.00019888,-0.00000369,0.00007099,-0.00014925,0.0000
 4873,0.00000377,-0.00008215,-0.00006321,-0.00002572,0.00004624,0.00000
 722,-0.00000192,0.00004031,0.00000262,-0.00000200,0.00000231,0.0000116
 0,-0.00000392,0.00002330,0.00018997,0.00009998,-0.00006317,-0.00019271
 ,-0.00011472,0.00002900,0.00010530,0.00010153,-0.00000388,-0.00002228,
 -0.00003911,0.00001580,-0.00006964,0.00002664,-0.00000578,-0.00000905,
 -0.00000959,0.00002419,-0.00004168,0.00004891,-0.00007245,0.00007395,-
 0.00002869,0.00005128,0.00001603,-0.00005316,-0.00001867,-0.00004667,0
 .00001632,-0.00003578,-0.00002485,0.00001794,-0.00004508,-0.00000551,0
 .00000221,0.00004801,0.00006421,-0.00003150,0.00005711,-0.00002131,0.0
 0018401,-0.00000928,0.00001809,-0.00007162,-0.00000814,0.00010208,0.00
 000497,-0.00011418,-0.00007999,0.00004464,0.00006822,0.00002012,-0.000
 03530,0.00006719,-0.00001057,0.00000430,0.00000015,0.00000813,-0.00000
 901,0.00003539,0.00007584,-0.00011329,-0.00014061,-0.00000422,0.000015
 04,0.,-0.00011139,0.00005492,-0.00001055,-0.00003252,-0.00002811,0.000
 00223,0.00000669,0.00003345,-0.00002367,0.00004831,-0.00001828,0.00000
 775,-0.00001282,-0.00001871,0.00001756,0.00000229,-0.00007043,0.000128
 17,0.00002126,-0.00004148,-0.00003815,-0.00006421,0.00008864,-0.000083
 34,0.00008165,0.00003968,-0.00002226,-0.00006633,0.00003068,-0.0000286
 4,-0.00000870,0.00000437,-0.00002008,-0.00002286,-0.00001710,0.0000416
 1,0.00006007,-0.00002125,0.00006708,-0.00014271,-0.00010238,-0.0000978
 9,0.00001506,0.00003500,0.00001183,0.00008383,0.00003100,0.00004833,-0
 .04021252,-0.14706665,-0.42746529,-0.07843205,-0.64562868,2.34191459,0
 .00397296,-0.00301396,-0.00739023,-0.00841373,-0.00123413,-0.01361734,
 -0.00172414,-0.00133063,-0.00013607,-0.01807203,0.00131790,0.00052542,
 0.01581861,0.00145599,-0.02310921,0.37240931,-0.07323577,0.46090936,0.
 00080791,0.00046581,0.01166418,-0.38451982,-0.06979390,0.39540356,0.46
 810636,0.00558324,0.01009935,-0.00419156,0.06722819,-0.41322466,0.4464
 0349,0.47213063,-2.17205946,-0.01179716,0.00271372,0.01348420,-0.44398
 575,-0.47078239,2.14443740,-0.33131582,0.22164491,-0.38068430,0.001943
 80,-0.00022213,-0.00122046,0.00913073,-0.00153117,0.01312345,0.3197752
 6,0.21477625,0.04080522,0.17963448,-0.00188848,0.00076490,0.00033461,0
 .00708116,0.01298608,-0.00420936,-0.21997487,-0.05511124,-0.34959435,0
 .17083889,-0.17095477,0.00535559,-0.00173192,0.00156488,-0.02528414,0.
 00680562,0.01563357,0.36900922,-0.17615269,0.15484103,-0.00432270,0.00
 164901,0.00504523,0.00128819,0.00239568,-0.00788733,0.00271592,-0.0018
 5892,-0.00319801,0.00048520,-0.00000535,0.00058398,-0.00010591,0.00317
 262,0.00491499,-0.00030028,0.00058577,0.00299649,0.00105719,-0.0018344
 6,-0.00544542,-0.00008963,0.00013375,0.00058834,0.00022284,-0.00197368
 ,-0.00300103,-0.00030501,0.00126045,0.00093111,-0.00107344,-0.00090159
 ,0.00733392,-0.00309993,-0.00007666,-0.00147270,-0.00041834,0.00045805
 ,-0.00105654,0.00467144,-0.00043714,-0.00661842,-0.00053506,-0.0000113
 8,0.00072203,0.00053637,-0.00009294,-0.00041575,-0.00039347,0.00036153
 ,-0.00058259,-0.00002897,0.00000635,-0.00007435,-0.00017154,-0.0000349
 8,0.00011735,-0.00051751,0.00011921,-0.00001579,-0.00007707,0.00003559
 ,-0.00011511,0.00000501,0.00023863,0.00027804,0.00022829,-0.00005262,-
 0.00005935,0.00001416,-0.00016710,-0.00010844,-0.00023397,0.00009462,-
 0.00008845,0.00014373,0.00010136,-0.00061059,-0.00099275,0.00016008,0.
 00041728,-0.00004397,0.00007064,0.00014836,0.00017933,-0.00006436,-0.0
 0003393,0.00072085,-0.00040253,0.00068838,0.00016746,-0.00001460,-0.00
 021087,-0.00002618,0.00001965,-0.00008103,-0.00005524,-0.00000443,0.00
 005565,-0.00005481,0.00011389,0.00003688,0.00000897,-0.00000186,-0.000
 00153,0.00004055,-0.00003917,0.00004644,0.00054734,-0.00030685,-0.0001
 3320,-0.00039744,-0.00008008,0.00000577,0.00001937,0.00007115,-0.00000
 037,0.00001427,-0.00001699,-0.00007338,-0.00002662,0.00001931,0.000017
 43,-0.00000899,-0.00004837,0.00005623,-0.00004231,-0.00001638,0.000065
 04,0.00005502,0.00012571,-0.00008338,-0.00009164,-0.00000180,0.0001305
 9,0.00003843,-0.00002435,-0.00011455,-0.00007602,0.00007888,-0.0000805
 9,0.00000628,-0.00001359,-0.00000244,0.00001173,-0.00007730,0.00008382
 ,0.00006953,0.00005505,-0.00020084,0.00003953,-0.00001558,0.00019530,0
 .00003004,0.00001418,-0.00008901,-0.00008029,0.00002278,0.00005711,-0.
 00009578,-0.00010285,-0.00000032,0.00000084,0.00000679,0.00000563,0.00
 007028,-0.00000985,0.00006151,0.00056282,0.00003852,-0.00004145,-0.000
 06319,-0.00005435,0.00000217,-0.00042471,0.00010667,-0.00003113,-0.000
 03005,-0.00004266,0.00000812,0.00000659,0.00007345,-0.00002356,0.00003
 537,-0.00001720,0.00000862,0.00001207,0.00000873,-0.00000115,-0.000026
 83,-0.00030682,0.00004405,0.00009439,0.00009306,0.00001265,-0.00000132
 ,0.00008477,-0.00001759,-0.00005212,-0.00001875,0.00012311,0.00004092,
 0.00005222,-0.00010198,-0.00008378,-0.00001087,-0.00009080,0.00000488,
 0.00001283,0.00000823,0.00005213,0.00002683,0.00011045,-0.00000367,0.0
 0002313,-0.00019781,0.00003727,0.00000484,-0.00001128,0.00000437,-0.00
 009021,0.00016008,1.06957790,-0.75718583,-0.32350312,1.10143487,-0.728
 16630,1.12457642,0.06109966,-0.00859612,-0.05240855,-0.05880347,-0.013
 39378,-0.01103272,0.01136661,0.00811020,0.00381849,-0.03402065,0.00608
 255,0.00170156,0.04408968,-0.00623675,-0.01995991,0.14683668,-0.038189
 75,0.21332702,-0.00676985,0.00170749,0.00307307,-0.13529806,-0.0364742
 8,0.15825364,0.15342838,0.00374675,0.00023334,-0.00260435,0.03659533,-
 0.15803311,0.20646031,0.15526871,-0.76656319,-0.00679024,0.00040597,0.
 00731048,-0.21997706,-0.14891256,0.75741591,-1.26935308,0.80488322,-1.
 26666156,0.00286359,-0.00202217,0.00305259,-0.00586549,-0.00400779,0.0
 2143212,1.26903269,0.80698120,0.18333969,0.56588528,-0.00697275,0.0007
 4281,-0.00192543,-0.00022739,-0.00124573,-0.00755682,-0.79989408,-0.18
 783272,-1.27522544,0.56844235,-0.35797781,0.02415369,-0.00815223,0.004
 16411,0.00438513,-0.00265562,0.00283301,1.24409334,-0.55855922,0.35285
 494,-0.00803977,-0.00095659,0.00431016,0.00173178,0.00559066,-0.016197
 79,0.00139131,0.00003053,-0.00111245,0.00304547,0.00017537,0.00270448,
 0.00194378,0.00039498,-0.00714980,-0.00265512,0.00336386,0.00639581,0.
 00477110,-0.00007060,0.00078570,0.00072994,0.00104064,0.00503165,0.000
 93232,-0.00463606,-0.00497931,-0.00025676,-0.00131721,-0.00112653,-0.0
 0754764,0.00228649,0.00646596,-0.00046469,0.00058468,-0.00080834,-0.00
 151634,0.00208844,-0.00201270,0.00955805,-0.00329308,-0.00356113,-0.00
 032736,0.00006317,0.00016363,0.00000016,-0.00001683,-0.00009113,-0.000
 21694,0.00008809,-0.00000618,0.00033630,-0.00005930,-0.00018813,-0.000
 08921,-0.00009118,0.00019491,-0.00006403,-0.00032192,0.00009471,0.0001
 1323,0.00031341,-0.00018833,-0.00008455,0.00015888,0.00002011,0.000061
 61,-0.00000206,-0.00002442,-0.00000388,-0.00020629,-0.00013054,-0.0003
 1587,0.00010421,0.00020542,0.00186464,-0.00036268,-0.00071188,-0.00155
 802,0.00032497,0.00039049,-0.00031729,0.00014792,-0.00017097,-0.000453
 33,0.00006727,0.00023254,0.00072382,-0.00046300,0.00089841,-0.00004901
 ,0.00006224,0.00004023,0.00003275,-0.00003982,-0.00006793,-0.00001951,
 -0.00000837,0.00004163,-0.00001972,0.00003830,-0.00000164,-0.00001577,
 0.00001460,0.00004116,-0.00000876,0.00001436,-0.00001133,0.00020672,0.
 00000171,-0.00010113,-0.00018735,-0.00020231,0.00003881,0.00010678,0.0
 0017615,-0.00001031,-0.00001402,0.00004572,-0.00002238,-0.00002217,0.0
 0003002,-0.00001148,-0.00000870,-0.00005659,0.00007659,-0.00011099,0.0
 0000204,-0.00004549,0.00009200,0.00001651,0.00001285,-0.00016440,0.000
 06227,0.00007536,0.00004716,-0.00005749,-0.00005006,-0.00000377,0.0000
 1103,-0.00001180,0.00002858,-0.00001585,-0.00005149,-0.00002396,-0.000
 07126,0.00003593,0.00004386,0.00023003,-0.00030719,0.00005822,-0.00006
 867,0.00025363,0.00017327,0.00002169,-0.00009755,-0.00010238,0.0000328
 2,0.00005257,-0.00005795,-0.00001692,-0.00000490,-0.00004372,-0.000017
 64,0.00003576,0.00002539,-0.00001600,0.00004381,0.00015434,-0.00004794
 ,-0.00010969,0.00001163,-0.00001155,0.00001431,-0.00016059,0.00020190,
 -0.00004120,-0.00007889,-0.00014148,0.00004088,0.00001146,-0.00001966,
 0.00000841,0.00002534,-0.00002778,0.00000020,0.00000501,0.00005897,-0.
 00003010,0.00007753,-0.00009019,0.00006852,0.00013127,-0.00003729,-0.0
 0003859,-0.00009006,0.00005554,-0.00000812,-0.00009249,-0.00000973,0.0
 0002613,0.00001392,0.00006244,-0.00002264,-0.00002250,0.00000055,-0.00
 000511,0.00002463,0.00001633,-0.00004264,0.00003769,0.00004910,0.00010
 839,-0.00006796,-0.00006279,-0.00037165,0.00004101,0.00002576,0.000055
 61,0.00006570,-0.00008166,0.00025191,-0.02019634,0.00194161,-0.0063206
 7,0.00909370,-0.00027896,-0.01184188,0.04358834,-0.01305514,-0.0121561
 9,1.24398794,-0.00480836,-0.01325208,0.00461516,-1.20844997,-0.3050963
 6,-0.05143192,0.01584220,-0.02069473,2.55171735,-1.36747327,1.85873157
 ,0.00163614,-0.00077803,0.00500854,-0.00160955,0.00220205,0.00385927,-
 0.00584315,-0.00017868,0.00352422,-0.00039744,0.00235855,0.00737909,0.
 00077110,0.00146677,-0.00161500,0.00307925,0.00003210,-0.00213202,0.00
 231789,0.00139888,-0.00109480,-0.00081848,-0.00052995,0.00411580,-0.00
 391283,0.00333185,-0.00579535,-0.00156000,-0.00155458,-0.00339580,-0.0
 0001010,-0.00003686,-0.00000792,0.00165477,0.00266256,0.00286614,0.001
 09044,-0.00203581,-0.00870285,-0.00128273,-0.00007303,-0.00018124,-0.0
 0015042,-0.00202934,-0.00228593,-0.00210899,0.00013789,0.00493754,-0.0
 0206085,-0.00185005,0.00159907,-0.00018364,-0.00007785,0.00000545,0.00
 398107,-0.00099980,-0.00274639,-0.02206469,0.00864363,0.00477898,-1.28
 382705,1.21196129,-2.49974474,0.00591959,-0.00353504,-0.00515600,0.004
 07740,0.00152701,0.00015955,1.29600416,0.00095101,0.01335692,-0.006171
 22,1.22076552,0.31908301,1.35130992,-0.00311514,-0.00925303,-0.0001854
 0,-0.00011194,0.00860477,0.00314877,-1.21771676,-0.33075193,0.04018446
 ,-0.01627134,0.03366773,-2.53983696,1.36277752,-1.83706103,-0.00681366
 ,0.00032460,-0.00274472,0.00699760,0.00113801,-0.00483715,2.49807528,-
 1.34619838,1.80663453,0.00084419,-0.00009524,-0.00077044,-0.00110545,0
 .00090816,-0.00142857,-0.00010793,-0.00002626,0.00036404,-0.00027131,-
 0.00002861,0.00012683,0.00096624,-0.00160738,0.00280998,-0.00215133,-0
 .00038095,-0.00017142,0.00084009,0.00043044,0.00061955,0.00086010,0.00
 027590,0.00009014,-0.00038848,0.00033298,-0.00030877,-0.00027429,-0.00
 138369,-0.00163029,-0.00167663,0.00222240,0.00334051,0.00047996,0.0004
 8853,-0.00284231,0.00065443,0.00025875,-0.00103163,-0.00096743,-0.0000
 0579,0.00133931,-0.00146327,0.00017551,0.00077384,0.00185475,-0.001411
 67,0.00147732,-0.00172920,0.00094973,0.00217655,0.00002764,-0.00004135
 ,-0.00004825,0.00036559,-0.00022903,0.00029599,0.00002200,-0.00005533,
 0.00010552,0.00004825,-0.00000144,0.00004187,-0.00062811,0.00104288,-0
 .00139382,0.00045935,-0.00186070,0.00092268,-0.00042384,-0.00013391,-0
 .00001023,0.00030114,0.00038097,-0.00023787,0.00029814,0.00008315,0.00
 001812,-0.00008901,0.00014546,-0.00001402,-0.00006071,-0.00041776,0.00
 118286,-0.00269941,-0.00123790,-0.00124188,0.00174805,0.00108118,-0.00
 017103,0.00033794,0.00000781,-0.00051914,-0.00016287,0.00031562,-0.000
 09979,-0.00002984,-0.00005775,0.00025330,-0.00014750,-0.00004173,0.000
 11846,-0.00038653,-0.00091090,0.00062875,0.00053634,0.00099722,-0.0002
 1457,-0.00015045,0.00006244,-0.00038030,0.00007758,0.00005265,-0.00011
 090,0.00016016,-0.00002954,0.00012835,-0.00000702,0.00000688,0.0001156
 2,-0.00002616,-0.00002136,0.00004420,-0.00044754,-0.00020821,-0.000022
 84,0.00136620,0.00036363,0.00024806,0.00012912,0.00009880,0.00000291,-
 0.00125235,-0.00005329,0.00000713,0.00000075,-0.00039456,0.00020750,-0
 .00032543,-0.00006166,0.00003770,-0.00008767,-0.00007758,0.00002190,-0
 .00002397,0.00092132,-0.00059231,0.00260562,-0.00013516,-0.00069785,-0
 .00220310,0.00006380,0.00047403,-0.00037272,-0.00026286,0.00054192,0.0
 0036561,0.00004175,-0.00057511,-0.00047283,-0.00004260,-0.00034872,-0.
 00005478,-0.00002690,0.00025759,-0.00016881,0.00007072,0.00014921,0.00
 041872,0.00041886,0.00223460,0.00009103,-0.00130772,-0.00167853,0.0002
 2645,0.00043936,0.00021330,-0.00040540,0.00040653,-0.00025235,0.000351
 78,-0.00046364,-0.00039343,0.00057995,0.00052653,0.00078861,-0.0001204
 3,0.00061636,0.00030919,0.00016655,0.00008400,0.00037823,-0.00042879,-
 0.00053837,-0.00087763,-0.00015964,-0.00031355,-0.00027754,0.00051395,
 0.00043825,0.00002235,-0.00010129,-0.00006299,-0.00012713,0.00003598,0
 .00023298,0.00006097,0.00022308,0.00014770,0.00007006,-0.00011047,0.00
 008792,0.00002409,-0.00023428,-0.00013357,-0.00014190,-0.00033993,-0.0
 0017271,-0.00019404,-0.00014460,0.00000983,-0.00006884,0.00011728,0.00
 035877,0.00021285,-0.00025562,-0.00005861,-0.00025615,-0.00002690,-0.0
 0003734,0.00006703,-0.00000035,-0.00001526,0.00012672,0.00036363,0.000
 09178,0.00008412,-0.00020801,-0.00018049,-0.00000650,0.00022512,-0.000
 05362,0.00000038,-0.00012592,0.00007913,-0.00011006,-0.00019731,-0.000
 12189,-0.00014218,-0.00009054,0.00008617,0.00011204,-0.00003583,-0.000
 05744,-0.00007862,0.00013798,0.00015375,0.00005550,0.00004910,-0.00004
 297,-0.00031793,-0.00005123,0.00037720,-0.00069031,-0.00000971,-0.0001
 1947,0.00014759,-0.00003376,0.00006015,0.00009901,-0.00026961,0.000094
 24,-0.00010047,0.00025344,0.00011081,0.00065455,0.00005533,-0.00003703
 ,0.00002856,-0.00007854,0.00003021,0.00000859,-0.00005840,-0.00025176,
 -0.00107369,0.00046734,0.00005805,-0.00050175,-0.00069847,0.00005011,-
 0.00005232,-0.00001497,0.00000820,0.00024023,-0.00015712,-0.00003698,0
 .00012746,0.00039209,-0.00022374,0.00031344,0.00021160,-0.00003890,-0.
 00017626,0.00011173,-0.00001162,0.00001691,-0.00007034,-0.00000091,0.0
 0013571,-0.00002965,-0.00000890,0.00009323,-0.00035275,-0.00000370,0.0
 0000741,0.75737301,0.00000432,-0.00005180,-0.00000754,-0.00003182,0.00
 011999,-0.00007949,0.00001442,0.00002493,-0.00000600,-0.00000256,0.000
 00913,-0.00001123,-0.00005977,-0.00033503,-0.00005903,0.47321435,3.416
 33423,-0.00036241,0.00005711,0.00016870,0.00009276,-0.00011045,0.00043
 459,0.00007073,0.00000940,-0.00010354,0.00005697,-0.00000623,-0.000057
 09,0.00027595,-0.00013268,-0.00008854,1.56784121,0.42860702,-0.1867107
 6,-0.00003369,0.00004259,-0.00000190,-0.00010200,-0.00008577,0.0000386
 6,-0.00001557,-0.00003033,-0.00001994,-0.00002602,0.00001750,-0.000022
 91,0.00042453,0.00009562,0.00024095,-1.16177191,-1.45265487,-1.3829334
 1,1.13413640,0.00011366,-0.00002818,-0.00001539,-0.00013029,-0.0000667
 4,-0.00020390,0.00013482,-0.00003154,0.00003905,-0.00006089,0.00004610
 ,-0.00006595,0.00018907,0.00013306,0.00082226,-1.38159196,-0.46805921,
 -1.04019938,1.43580168,0.50229268,0.00002659,-0.00002837,0.00007559,-0
 .00001441,0.00000056,-0.00011957,-0.00001012,0.00000389,0.00000304,-0.
 00000523,-0.00000400,-0.00002716,0.00011192,0.00011298,0.00016657,-1.3
 8162352,-1.09236859,-0.36329400,1.38870036,1.08105345,0.33231336,-0.00
 010139,0.00000815,-0.00000980,-0.00001371,-0.00002106,0.00015242,-0.00
 006183,0.00006392,-0.00002283,0.00000868,-0.00000556,0.00001638,0.0002
 4343,-0.00003840,-0.00023723,0.40452829,0.97951595,-0.18504181,0.02738
 826,-0.05445609,-0.00718560,-0.43199173,-0.00007210,0.00004148,-0.0000
 0978,0.00006590,-0.00022599,0.00011253,-0.00009497,0.00002541,-0.00002
 446,0.00006531,-0.00003176,0.00007498,-0.00015244,0.00068443,-0.000618
 88,0.90844164,-2.94804223,0.61177520,0.01681358,-0.03428617,0.01123009
 ,-0.92506691,2.98183483,-0.00001453,-0.00000521,0.00008268,0.00003209,
 -0.00004566,-0.00005074,-0.00006102,0.00002198,-0.00001116,0.00002983,
 0.00000225,0.00001007,-0.00001832,0.00007160,-0.00020508,-0.18629470,0
 .66392488,0.54965063,-0.00600183,-0.04143015,0.03088215,0.19232848,-0.
 62253969,-0.58035855,-0.00083354,-0.00014956,-0.00077558,0.00035505,0.
 00064340,0.00026467,0.00062501,0.00051156,-0.00015786,-0.00021790,-0.0
 0005293,0.00042067,-0.00035291,-0.00025092,-0.00058516,-0.00046663,-0.
 00028349,0.00001289,0.00025498,0.00061532,-0.00004291,0.00017145,-0.00
 013734,-0.00005836,0.00004682,0.00023047,0.00006499,-0.00008803,0.0000
 1274,0.00017582,-0.00012452,0.00001756,0.00004643,-0.00019696,0.000010
 30,-0.00012530,-0.00000931,-0.00026150,-0.00014880,0.00016532,-0.00004
 152,-0.00022106,-0.00005381,0.00034231,0.00054316,0.00027675,-0.000174
 80,-0.00016580,-0.00043095,0.00005303,0.00010761,-0.00011551,0.0000389
 0,-0.00000470,0.00022082,-0.00006143,0.00031928,-0.00019805,-0.0000824
 1,-0.00008414,0.00019610,-0.00003282,-0.00004141,-0.00009637,0.0000982
 4,-0.00024550,0.00005426,-0.00015768,-0.00010128,-0.00007853,0.0000656
 3,0.00012696,-0.00001933,-0.00007067,-0.00006811,0.00006182,0.00014441
 ,0.00005611,-0.00024088,-0.00002906,-0.00005916,-0.00006728,-0.0000059
 8,0.00014027,-0.00006231,-0.00005477,-0.00008325,0.00003204,0.00007011
 ,0.00002366,0.00052417,0.00027825,-0.00014793,0.00005407,-0.00021801,0
 .00015254,-0.00039770,-0.00003493,-0.00001513,0.00006471,-0.00001718,0
 .00005196,0.00000402,-0.00000696,0.00000577,-0.00003578,0.00007634,0.0
 0001282,-0.00010346,-0.00033476,0.00020426,0.00003066,0.00007174,-0.00
 011153,0.00002537,-0.00004804,-0.00000955,-0.00006304,0.00040396,-0.00
 059145,-0.00000305,-0.00008236,0.00030780,0.00032195,0.00015469,-0.000
 33619,0.00002398,-0.00000165,-0.00006063,0.00009948,-0.00001586,-0.000
 06025,-0.00098762,-0.00005497,-0.00022404,0.82287202,-0.00006917,-0.00
 001315,-0.00001942,0.00005923,0.00055548,0.00014470,-0.00001997,-0.000
 02702,-0.00000666,-0.00001281,-0.00000718,-0.00000268,-0.00007894,-0.0
 0127530,-0.00027489,0.39301752,3.36533984,0.00025489,0.00000437,-0.000
 37182,0.00006977,0.00002466,0.00040119,0.00002726,-0.00003490,0.000082
 91,-0.00008332,-0.00000166,0.00007918,-0.00010399,-0.00030826,0.000155
 27,1.73140980,0.37061252,-0.22224942,0.00001172,0.00003235,-0.00012027
 ,-0.00020972,-0.00031320,0.00007130,0.00001944,-0.00001732,0.00002552,
 -0.00004147,0.00003479,0.00001223,0.00053288,0.00044677,0.00030121,-1.
 24755137,-1.45565073,-1.50510042,1.24477005,0.00005789,0.00000805,-0.0
 0003073,0.00000118,-0.00017669,0.00000835,0.00001769,-0.00001876,0.000
 00596,-0.00001659,0.00001057,-0.00000022,0.00004310,0.00043582,0.00008
 817,-1.45856721,-0.35872193,-1.09659800,1.45768611,0.35414392,-0.00007
 247,-0.00002591,0.00015370,-0.00009103,-0.00003713,-0.00024389,0.00001
 483,0.00002115,-0.00003259,0.00002273,-0.00000288,-0.00004453,0.000117
 72,0.00020626,0.00021552,-1.50482931,-1.09439884,-0.37661751,1.4997233
 6,1.09580602,0.37708680,-0.00000751,0.00002922,-0.00010140,-0.00006792
 ,0.00018485,0.00016366,0.00000424,-0.00000576,0.00002081,-0.00004116,-
 0.00001063,0.00000618,0.00026898,-0.00039298,0.00006910,0.42522458,1.0
 6275486,-0.22647400,0.00246848,0.00077782,0.00511418,-0.42784968,-0.00
 001575,0.00001284,0.00002817,-0.00003820,-0.00032915,-0.00008631,-0.00
 003342,0.00000537,-0.00000691,0.00003119,-0.00000358,0.00001716,0.0000
 6251,0.00079226,0.00001746,1.06554982,-3.00585078,0.72630127,-0.002218
 76,0.00431901,-0.00156867,-1.06333739,3.00105404,-0.00008002,0.0000044
 7,0.00017783,-0.00005920,0.00006071,-0.00023747,-0.00000627,-0.0000081
 4,-0.00004403,0.00003635,0.00000647,-0.00003875,0.00002777,-0.00002707
 ,0.00012466,-0.22620718,0.72394525,0.59852019,0.00508708,0.00072046,-0
 .00051751,0.22120147,-0.72470216,-0.59798492\\@
 The archive entry for this job was punched.


 THE SECRET OF SUCCESS IN LIFE IS TO EAT WHAT YOU LIKE, AND LET THE FOOD
 FIGHT IT OUT INSIDE YOU. -- FROM A FORTUNE COOKIE
 Job cpu time:       9 days 10 hours 48 minutes 54.5 seconds.
 Elapsed time:       0 days  5 hours 45 minutes 58.4 seconds.
 File lengths (MBytes):  RWF=  10102 Int=      0 D2E=      0 Chk=     49 Scr=      1
 Normal termination of Gaussian 16 at Fri Apr  4 08:51:00 2025.
