 Entering Gaussian System, Link 0=g16
 Input=imine_h2o_mp2_avdz_opt_anharm.gjf
 Output=imine_h2o_mp2_avdz_opt_anharm.log
 Initial command:
 /sw/contrib/chem-src/g16/c01/g16/l1.exe "/scr/Gau-24301.inp" -scrdir="/scr/"
 Entering Link 1 = /sw/contrib/chem-src/g16/c01/g16/l1.exe PID=     24555.
  
 Copyright (c) 1988-2019, Gaussian, Inc.  All Rights Reserved.
  
 This is part of the Gaussian(R) 16 program.  It is based on
 the Gaussian(R) 09 system (copyright 2009, Gaussian, Inc.),
 the Gaussian(R) 03 system (copyright 2003, Gaussian, Inc.),
 the Gaussian(R) 98 system (copyright 1998, Gaussian, Inc.),
 the Gaussian(R) 94 system (copyright 1995, Gaussian, Inc.),
 the Gaussian 92(TM) system (copyright 1992, Gaussian, Inc.),
 the Gaussian 90(TM) system (copyright 1990, Gaussian, Inc.),
 the Gaussian 88(TM) system (copyright 1988, Gaussian, Inc.),
 the Gaussian 86(TM) system (copyright 1986, Carnegie Mellon
 University), and the Gaussian 82(TM) system (copyright 1983,
 Carnegie Mellon University). Gaussian is a federally registered
 trademark of Gaussian, Inc.
  
 This software contains proprietary and confidential information,
 including trade secrets, belonging to Gaussian, Inc.
  
 This software is provided under written license and may be
 used, copied, transmitted, or stored only in accord with that
 written license.
  
 The following legend is applicable only to US Government
 contracts under FAR:
  
                    RESTRICTED RIGHTS LEGEND
  
 Use, reproduction and disclosure by the US Government is
 subject to restrictions as set forth in subparagraphs (a)
 and (c) of the Commercial Computer Software - Restricted
 Rights clause in FAR 52.227-19.
  
 Gaussian, Inc.
 340 Quinnipiac St., Bldg. 40, Wallingford CT 06492
  
  
 ---------------------------------------------------------------
 Warning -- This program may not be used in any manner that
 competes with the business of Gaussian, Inc. or will provide
 assistance to any competitor of Gaussian, Inc.  The licensee
 of this program is prohibited from giving any competitor of
 Gaussian, Inc. access to this program.  By using this program,
 the user acknowledges that Gaussian, Inc. is engaged in the
 business of creating and licensing software in the field of
 computational chemistry and represents and warrants to the
 licensee that it is not a competitor of Gaussian, Inc. and that
 it will not use this program in any manner prohibited above.
 ---------------------------------------------------------------
  

 Cite this work as:
 Gaussian 16, Revision C.01,
 M. J. Frisch, G. W. Trucks, H. B. Schlegel, G. E. Scuseria, 
 M. A. Robb, J. R. Cheeseman, G. Scalmani, V. Barone, 
 G. A. Petersson, H. Nakatsuji, X. Li, M. Caricato, A. V. Marenich, 
 J. Bloino, B. G. Janesko, R. Gomperts, B. Mennucci, H. P. Hratchian, 
 J. V. Ortiz, A. F. Izmaylov, J. L. Sonnenberg, D. Williams-Young, 
 F. Ding, F. Lipparini, F. Egidi, J. Goings, B. Peng, A. Petrone, 
 T. Henderson, D. Ranasinghe, V. G. Zakrzewski, J. Gao, N. Rega, 
 G. Zheng, W. Liang, M. Hada, M. Ehara, K. Toyota, R. Fukuda, 
 J. Hasegawa, M. Ishida, T. Nakajima, Y. Honda, O. Kitao, H. Nakai, 
 T. Vreven, K. Throssell, J. A. Montgomery, Jr., J. E. Peralta, 
 F. Ogliaro, M. J. Bearpark, J. J. Heyd, E. N. Brothers, K. N. Kudin, 
 V. N. Staroverov, T. A. Keith, R. Kobayashi, J. Normand, 
 K. Raghavachari, A. P. Rendell, J. C. Burant, S. S. Iyengar, 
 J. Tomasi, M. Cossi, J. M. Millam, M. Klene, C. Adamo, R. Cammi, 
 J. W. Ochterski, R. L. Martin, K. Morokuma, O. Farkas, 
 J. B. Foresman, and D. J. Fox, Gaussian, Inc., Wallingford CT, 2019.
 
 ******************************************
 Gaussian 16:  EM64L-G16RevC.01  3-Jul-2019
                 4-Apr-2025 
 ******************************************
 %nprocshared=24
 Will use up to   24 processors via shared memory.
 %mem=50gb
 ----------------------------------------------
 # MP2/aug-cc-pVDZ opt freq=(vibrot,anharmonic)
 ----------------------------------------------
 1/18=20,19=15,38=1,80=1/1,3;
 2/9=110,12=2,17=6,18=5,40=1/2;
 3/5=16,7=10,11=9,25=1,30=1,71=1/1,2,3;
 4//1;
 5/5=2,38=5/2;
 8/6=4,10=1/1;
 9/15=2,16=-3/6;
 10/5=1/2;
 6/7=2,8=2,9=2,10=2/1;
 7/12=2/1,2,3,16;
 1/18=20,19=15,80=1/3(2);
 2/9=110/2;
 99//99;
 2/9=110/2;
 3/5=16,7=10,11=9,25=1,30=1,71=1/1,2,3;
 4/5=5,16=3,69=1/1;
 5/5=2,38=5/2;
 8/6=4,10=1/1;
 9/15=2,16=-3/6;
 10/5=1/2;
 7/12=2/1,2,3,16;
 1/18=20,19=15,80=1/3(-8);
 2/9=110/2;
 6/7=2,8=2,9=2,10=2/1;
 99/9=10/99;
 ----
 blah
 ----
 Symbolic Z-matrix:
 Charge =  0 Multiplicity = 1
 C                    -0.35155  -0.43902  -0.16536 
 N                     0.87969  -0.74103  -0.38935 
 H                    -0.79937  -0.53895   0.83667 
 H                    -0.9961   -0.06906  -0.97775 
 H                     1.30602  -1.06681   0.50377 
 O                     2.05975  -1.63284   2.03973 
 H                     2.80092  -1.11683   2.39909 
 H                     2.39096  -2.546     2.07394 
 
 Add virtual bond connecting atoms O6         and H5         Dist= 3.41D+00.

 GradGradGradGradGradGradGradGradGradGradGradGradGradGradGradGradGradGrad
 Berny optimization.
 Initialization pass.
                           ----------------------------
                           !    Initial Parameters    !
                           ! (Angstroms and Degrees)  !
 --------------------------                            --------------------------
 ! Name  Definition              Value          Derivative Info.                !
 --------------------------------------------------------------------------------
 ! R1    R(1,2)                  1.2874         estimate D2E/DX2                !
 ! R2    R(1,3)                  1.1021         estimate D2E/DX2                !
 ! R3    R(1,4)                  1.101          estimate D2E/DX2                !
 ! R4    R(2,5)                  1.0419         estimate D2E/DX2                !
 ! R5    R(5,6)                  1.8021         estimate D2E/DX2                !
 ! R6    R(6,7)                  0.972          estimate D2E/DX2                !
 ! R7    R(6,8)                  0.972          estimate D2E/DX2                !
 ! A1    A(2,1,3)              121.7047         estimate D2E/DX2                !
 ! A2    A(2,1,4)              120.6859         estimate D2E/DX2                !
 ! A3    A(3,1,4)              117.6093         estimate D2E/DX2                !
 ! A4    A(1,2,5)              108.3942         estimate D2E/DX2                !
 ! A5    A(5,6,7)              117.8595         estimate D2E/DX2                !
 ! A6    A(5,6,8)              117.8788         estimate D2E/DX2                !
 ! A7    A(7,6,8)              103.0559         estimate D2E/DX2                !
 ! A8    L(2,5,6,3,-1)         180.5958         estimate D2E/DX2                !
 ! A9    L(2,5,6,3,-2)         180.0041         estimate D2E/DX2                !
 ! D1    D(3,1,2,5)              0.0            estimate D2E/DX2                !
 ! D2    D(4,1,2,5)            180.0            estimate D2E/DX2                !
 ! D3    D(2,1,3,4)            180.0            estimate D2E/DX2                !
 ! D4    D(1,2,6,7)           -117.7829         estimate D2E/DX2                !
 ! D5    D(1,2,6,8)            117.7628         estimate D2E/DX2                !
 ! D6    D(5,6,7,8)           -131.7217         estimate D2E/DX2                !
 --------------------------------------------------------------------------------
 Trust Radius=3.00D-01 FncErr=1.00D-07 GrdErr=1.00D-07 EigMax=2.50D+02 EigMin=1.00D-04
 Number of steps in this run=     32 maximum allowed number of steps=    100.
 GradGradGradGradGradGradGradGradGradGradGradGradGradGradGradGradGradGrad

                          Input orientation:                          
 ---------------------------------------------------------------------
 Center     Atomic      Atomic             Coordinates (Angstroms)
 Number     Number       Type             X           Y           Z
 ---------------------------------------------------------------------
      1          6           0       -0.351547   -0.439016   -0.165361
      2          7           0        0.879687   -0.741033   -0.389348
      3          1           0       -0.799369   -0.538948    0.836666
      4          1           0       -0.996105   -0.069057   -0.977749
      5          1           0        1.306017   -1.066812    0.503774
      6          8           0        2.059749   -1.632836    2.039726
      7          1           0        2.800919   -1.116830    2.399094
      8          1           0        2.390962   -2.545999    2.073937
 ---------------------------------------------------------------------
                    Distance matrix (angstroms):
                    1          2          3          4          5
     1  C    0.000000
     2  N    1.287370   0.000000
     3  H    1.102083   2.088821   0.000000
     4  H    1.101045   2.077586   1.884570   0.000000
     5  H    1.894568   1.041900   2.195930   2.913794   0.000000
     6  O    3.478787   2.843987   3.289149   4.570428   1.802122
     7  H    4.119939   3.407017   3.967014   5.188284   2.414429
     8  H    4.120095   3.407290   3.967027   5.188473   2.414645
                    6          7          8
     6  O    0.000000
     7  H    0.971977   0.000000
     8  H    0.971976   1.521944   0.000000
 Stoichiometry    CH5NO
 Framework group  C1[X(CH5NO)]
 Deg. of freedom    18
 Full point group                 C1      NOp   1
 Largest Abelian subgroup         C1      NOp   1
 Largest concise Abelian subgroup C1      NOp   1
                         Standard orientation:                         
 ---------------------------------------------------------------------
 Center     Atomic      Atomic             Coordinates (Angstroms)
 Number     Number       Type             X           Y           Z
 ---------------------------------------------------------------------
      1          6           0        1.622102    0.373325    0.000022
      2          7           0        0.868327   -0.670295   -0.000048
      3          1           0        1.201139    1.391842    0.000051
      4          1           0        2.718697    0.274424    0.000055
      5          1           0       -0.125650   -0.357940   -0.000067
      6          8           0       -1.850407    0.164418    0.000018
      7          1           0       -2.400809   -0.086047    0.760981
      8          1           0       -2.401025   -0.085512   -0.760963
 ---------------------------------------------------------------------
 Rotational constants (GHZ):          43.4403476           4.2591295           3.9495929
 Standard basis: Aug-CC-pVDZ (5D, 7F)
 There are   120 symmetry adapted cartesian basis functions of A   symmetry.
 There are   114 symmetry adapted basis functions of A   symmetry.
   114 basis functions,   184 primitive gaussians,   120 cartesian basis functions
    13 alpha electrons       13 beta electrons
       nuclear repulsion energy        68.4870198277 Hartrees.
 NAtoms=    8 NActive=    8 NUniq=    8 SFac= 1.00D+00 NAtFMM=   60 NAOKFM=F Big=F
 Integral buffers will be    131072 words long.
 Raffenetti 1 integral format.
 Two-electron integral symmetry is turned on.
 One-electron integrals computed using PRISM.
 NBasis=   114 RedAO= T EigKep=  3.88D-04  NBF=   114
 NBsUse=   114 1.00D-06 EigRej= -1.00D+00 NBFU=   114
 ExpMin= 2.97D-02 ExpMax= 1.17D+04 ExpMxC= 4.01D+02 IAcc=3 IRadAn=         5 AccDes= 0.00D+00
 Harris functional with IExCor=  205 and IRadAn=       5 diagonalized for initial guess.
 HarFok:  IExCor=  205 AccDes= 0.00D+00 IRadAn=         5 IDoV= 1 UseB2=F ITyADJ=14
 ICtDFT=  3500011 ScaDFX=  1.000000  1.000000  1.000000  1.000000
 FoFCou: FMM=F IPFlag=           0 FMFlag=      100000 FMFlg1=           0
         NFxFlg=           0 DoJE=T BraDBF=F KetDBF=T FulRan=T
         wScrn=  0.000000 ICntrl=       500 IOpCl=  0 I1Cent=   200000004 NGrid=           0
         NMat0=    1 NMatS0=      1 NMatT0=    0 NMatD0=    1 NMtDS0=    0 NMtDT0=    0
 Petite list used in FoFCou.
 Keep R1 ints in memory in canonical form, NReq=26611667.
 Requested convergence on RMS density matrix=1.00D-08 within 128 cycles.
 Requested convergence on MAX density matrix=1.00D-06.
 Requested convergence on             energy=1.00D-06.
 No special actions if energy rises.
 SCF Done:  E(RHF) =  -170.084100549     A.U. after   12 cycles
            NFock= 12  Conv=0.70D-08     -V/T= 2.0025
 ExpMin= 2.97D-02 ExpMax= 1.17D+04 ExpMxC= 4.01D+02 IAcc=3 IRadAn=         5 AccDes= 0.00D+00
 HarFok:  IExCor=  205 AccDes= 0.00D+00 IRadAn=         5 IDoV=-2 UseB2=F ITyADJ=14
 ICtDFT= 12500011 ScaDFX=  1.000000  1.000000  1.000000  1.000000
 Range of M.O.s used for correlation:     4   114
 NBasis=   114 NAE=    13 NBE=    13 NFC=     3 NFV=     0
 NROrb=    111 NOA=    10 NOB=    10 NVA=   101 NVB=   101

 **** Warning!!: The largest alpha MO coefficient is  0.15114896D+02

 Fully direct method using O(ONN) memory.
 JobTyp=1 Pass  1:  I=   4 to  13 NPSUse= 24 ParTrn=T ParDer=T DoDerP=T.
 Spin components of T(2) and E(2):
     alpha-alpha T2 =       0.2169934211D-01 E2=     -0.6686281268D-01
     alpha-beta  T2 =       0.1305792773D+00 E2=     -0.4085173444D+00
     beta-beta   T2 =       0.2169934211D-01 E2=     -0.6686281268D-01
 ANorm=    0.1083502636D+01
 E2 =    -0.5422429698D+00 EUMP2 =    -0.17062634351826D+03
          IDoAtm=11111111
          Differentiating once with respect to electric field.
                with respect to dipole field.
          Differentiating once with respect to nuclear coordinates.
 Keep R1 ints in memory in canonical form, NReq=26615105.
          There are     1 degrees of freedom in the 1st order CPHF.  IDoFFX=0 NUNeed=     1.
 LinEq1:  Iter=  0 NonCon=     1 RMS=4.86D-03 Max=3.97D-02 NDo=     1
 AX will form     1 AO Fock derivatives at one time.
 LinEq1:  Iter=  1 NonCon=     1 RMS=1.09D-03 Max=1.13D-02 NDo=     1
 LinEq1:  Iter=  2 NonCon=     1 RMS=3.78D-04 Max=2.86D-03 NDo=     1
 LinEq1:  Iter=  3 NonCon=     1 RMS=1.12D-04 Max=1.55D-03 NDo=     1
 LinEq1:  Iter=  4 NonCon=     1 RMS=3.80D-05 Max=3.66D-04 NDo=     1
 LinEq1:  Iter=  5 NonCon=     1 RMS=1.58D-05 Max=3.40D-04 NDo=     1
 LinEq1:  Iter=  6 NonCon=     1 RMS=5.40D-06 Max=3.73D-05 NDo=     1
 LinEq1:  Iter=  7 NonCon=     1 RMS=1.50D-06 Max=1.76D-05 NDo=     1
 LinEq1:  Iter=  8 NonCon=     1 RMS=2.16D-07 Max=1.71D-06 NDo=     1
 LinEq1:  Iter=  9 NonCon=     1 RMS=2.95D-08 Max=2.19D-07 NDo=     1
 LinEq1:  Iter= 10 NonCon=     1 RMS=5.68D-09 Max=3.28D-08 NDo=     1
 LinEq1:  Iter= 11 NonCon=     1 RMS=1.00D-09 Max=7.14D-09 NDo=     1
 LinEq1:  Iter= 12 NonCon=     1 RMS=1.73D-10 Max=1.28D-09 NDo=     1
 LinEq1:  Iter= 13 NonCon=     0 RMS=2.90D-11 Max=2.33D-10 NDo=     1
 Linear equations converged to 1.000D-10 1.000D-09 after    13 iterations.
 End of Minotr F.D. properties file   721 does not exist.
 End of Minotr F.D. properties file   722 does not exist.
 End of Minotr F.D. properties file   788 does not exist.

 **********************************************************************

            Population analysis using the SCF Density.

 **********************************************************************

 Orbital symmetries:
       Occupied  (A) (A) (A) (A) (A) (A) (A) (A) (A) (A) (A) (A)
                 (A)
       Virtual   (A) (A) (A) (A) (A) (A) (A) (A) (A) (A) (A) (A)
                 (A) (A) (A) (A) (A) (A) (A) (A) (A) (A) (A) (A)
                 (A) (A) (A) (A) (A) (A) (A) (A) (A) (A) (A) (A)
                 (A) (A) (A) (A) (A) (A) (A) (A) (A) (A) (A) (A)
                 (A) (A) (A) (A) (A) (A) (A) (A) (A) (A) (A) (A)
                 (A) (A) (A) (A) (A) (A) (A) (A) (A) (A) (A) (A)
                 (A) (A) (A) (A) (A) (A) (A) (A) (A) (A) (A) (A)
                 (A) (A) (A) (A) (A) (A) (A) (A) (A) (A) (A) (A)
                 (A) (A) (A) (A) (A)
 The electronic state is 1-A.
 Alpha  occ. eigenvalues --  -20.60397 -15.54678 -11.27336  -1.37840  -1.17649
 Alpha  occ. eigenvalues --   -0.81718  -0.73402  -0.66872  -0.61023  -0.57542
 Alpha  occ. eigenvalues --   -0.53159  -0.41838  -0.40328
 Alpha virt. eigenvalues --    0.02807   0.04830   0.05429   0.06266   0.08015
 Alpha virt. eigenvalues --    0.10053   0.12592   0.16962   0.17194   0.18286
 Alpha virt. eigenvalues --    0.18854   0.21071   0.21944   0.22085   0.23910
 Alpha virt. eigenvalues --    0.24532   0.26358   0.27874   0.30479   0.33559
 Alpha virt. eigenvalues --    0.36048   0.36506   0.36723   0.39651   0.43494
 Alpha virt. eigenvalues --    0.43857   0.48017   0.48061   0.52318   0.54022
 Alpha virt. eigenvalues --    0.54747   0.54753   0.54901   0.57272   0.59677
 Alpha virt. eigenvalues --    0.63229   0.64694   0.65361   0.65797   0.68921
 Alpha virt. eigenvalues --    0.70949   0.73302   0.80163   0.82186   0.82339
 Alpha virt. eigenvalues --    0.85215   0.88872   0.92876   0.97438   0.97618
 Alpha virt. eigenvalues --    1.05156   1.10936   1.12339   1.16148   1.17327
 Alpha virt. eigenvalues --    1.22630   1.24042   1.32163   1.41434   1.44433
 Alpha virt. eigenvalues --    1.49521   1.53200   1.57999   1.61225   1.63129
 Alpha virt. eigenvalues --    1.66526   1.71272   1.75373   1.93646   1.96270
 Alpha virt. eigenvalues --    1.96708   1.97275   2.01131   2.04746   2.10509
 Alpha virt. eigenvalues --    2.15786   2.19031   2.22239   2.28127   2.33068
 Alpha virt. eigenvalues --    2.36779   2.41854   2.44289   2.48452   2.59536
 Alpha virt. eigenvalues --    2.69001   2.70812   2.72113   2.77591   2.78333
 Alpha virt. eigenvalues --    2.91512   3.01053   3.09544   3.29997   3.32573
 Alpha virt. eigenvalues --    3.69743   3.69872   3.72419   3.84600   4.05188
 Alpha virt. eigenvalues --    4.28123
          Condensed to atoms (all electrons):
               1          2          3          4          5          6
     1  C    4.400078   0.447387   0.258569   0.401425  -0.108872   0.006415
     2  N    0.447387   6.822930   0.047267  -0.087229   0.239880  -0.047565
     3  H    0.258569   0.047267   1.109606  -0.243043  -0.055929   0.006998
     4  H    0.401425  -0.087229  -0.243043   1.052593   0.041414  -0.003701
     5  H   -0.108872   0.239880  -0.055929   0.041414   0.763565  -0.058114
     6  O    0.006415  -0.047565   0.006998  -0.003701  -0.058114   7.834748
     7  H    0.001730  -0.001947  -0.000225   0.000043  -0.004806   0.358525
     8  H    0.001729  -0.001944  -0.000224   0.000043  -0.004805   0.358520
               7          8
     1  C    0.001730   0.001729
     2  N   -0.001947  -0.001944
     3  H   -0.000225  -0.000224
     4  H    0.000043   0.000043
     5  H   -0.004806  -0.004805
     6  O    0.358525   0.358520
     7  H    0.500810  -0.044106
     8  H   -0.044106   0.500801
 Mulliken charges:
               1
     1  C    0.591538
     2  N   -0.418779
     3  H   -0.123018
     4  H   -0.161544
     5  H    0.187667
     6  O   -0.455825
     7  H    0.189975
     8  H    0.189986
 Sum of Mulliken charges =  -0.00000
 Mulliken charges with hydrogens summed into heavy atoms:
               1
     1  C    0.306976
     2  N   -0.231112
     6  O   -0.075864
 Electronic spatial extent (au):  <R**2>=            310.4221
 Charge=             -0.0000 electrons
 Dipole moment (field-independent basis, Debye):
    X=             -2.8592    Y=              1.4448    Z=              0.0000  Tot=              3.2035
 Quadrupole moment (field-independent basis, Debye-Ang):
   XX=             -9.6694   YY=            -22.6953   ZZ=            -18.4532
   XY=              4.9559   XZ=              0.0008   YZ=             -0.0012
 Traceless Quadrupole moment (field-independent basis, Debye-Ang):
   XX=              7.2699   YY=             -5.7560   ZZ=             -1.5139
   XY=              4.9559   XZ=              0.0008   YZ=             -0.0012
 Octapole moment (field-independent basis, Debye-Ang**2):
  XXX=            -29.1676  YYY=              4.8348  ZZZ=              0.0001  XYY=             -4.6621
  XXY=             -1.3114  XXZ=             -0.0018  XZZ=            -11.1168  YZZ=              0.2471
  YYZ=              0.0002  XYZ=              0.0026
 Hexadecapole moment (field-independent basis, Debye-Ang**3):
 XXXX=           -222.5854 YYYY=            -56.9218 ZZZZ=            -22.1468 XXXY=             14.9312
 XXXZ=              0.0086 YYYX=              5.7370 YYYZ=             -0.0010 ZZZX=              0.0005
 ZZZY=             -0.0015 XXYY=            -68.0611 XXZZ=            -44.2209 YYZZ=            -13.2935
 XXYZ=             -0.0065 YYXZ=              0.0001 ZZXY=              1.1529
 N-N= 6.848701982768D+01 E-N=-5.373257304738D+02  KE= 1.696591350789D+02
 Calling FoFJK, ICntrl=  10002127 FMM=F ISym2X=0 I1Cent= 0 IOpClX= 0 NMat=1 NMatS=1 NMatT=0.
 ***** Axes restored to original set *****
 -------------------------------------------------------------------
 Center     Atomic                   Forces (Hartrees/Bohr)
 Number     Number              X              Y              Z
 -------------------------------------------------------------------
      1        6           0.000053028   -0.000658594    0.002823346
      2        7           0.002701752   -0.000965656    0.000839494
      3        1          -0.004038224    0.001118809    0.000172039
      4        1           0.001956003   -0.000729565    0.000739898
      5        1          -0.004388980    0.004151846   -0.012702546
      6        8           0.010772832   -0.005531960    0.010727412
      7        1          -0.004245988   -0.001194628   -0.001868965
      8        1          -0.002810422    0.003809747   -0.000730678
 -------------------------------------------------------------------
 Cartesian Forces:  Max     0.012702546 RMS     0.004766740

 GradGradGradGradGradGradGradGradGradGradGradGradGradGradGradGradGradGrad
 Berny optimization.
 FormGI is forming the generalized inverse of G from B-inverse, IUseBI=4.
 Internal  Forces:  Max     0.009397400 RMS     0.003235157
 Search for a local minimum.
 Step number   1 out of a maximum of   32
 All quantities printed in internal units (Hartrees-Bohrs-Radians)
 Mixed Optimization -- RFO/linear search
 Second derivative matrix not updated -- first step.
 ITU=  0
     Eigenvalues ---    0.00230   0.00230   0.00230   0.01254   0.03182
     Eigenvalues ---    0.03382   0.06090   0.13872   0.16000   0.16000
     Eigenvalues ---    0.16000   0.16000   0.33453   0.33567   0.41020
     Eigenvalues ---    0.52975   0.52975   0.70827
 RFO step:  Lambda=-2.12059207D-03 EMin= 2.30000000D-03
 Linear search not attempted -- first point.
 Iteration  1 RMS(Cart)=  0.08829003 RMS(Int)=  0.00375447
 Iteration  2 RMS(Cart)=  0.00946696 RMS(Int)=  0.00005860
 Iteration  3 RMS(Cart)=  0.00001042 RMS(Int)=  0.00005798
 Iteration  4 RMS(Cart)=  0.00000000 RMS(Int)=  0.00005798
 Variable       Old X    -DE/DX   Delta X   Delta X   Delta X     New X
                                 (Linear)    (Quad)   (Total)
    R1        2.43278   0.00253   0.00000   0.00356   0.00356   2.43633
    R2        2.08263   0.00170   0.00000   0.00504   0.00504   2.08767
    R3        2.08067  -0.00194   0.00000  -0.00573  -0.00573   2.07494
    R4        1.96891  -0.00458   0.00000  -0.01111  -0.01112   1.95779
    R5        3.40552   0.00940   0.00000   0.14911   0.14911   3.55463
    R6        1.83677  -0.00456   0.00000  -0.00858  -0.00858   1.82819
    R7        1.83677  -0.00456   0.00000  -0.00858  -0.00858   1.82819
    A1        2.12415   0.00607   0.00000   0.03745   0.03745   2.16160
    A2        2.10637  -0.00415   0.00000  -0.02563  -0.02563   2.08074
    A3        2.05267  -0.00192   0.00000  -0.01182  -0.01182   2.04085
    A4        1.89184   0.00189   0.00000   0.01163   0.01163   1.90347
    A5        2.05704  -0.00069   0.00000  -0.00178  -0.00185   2.05519
    A6        2.05737  -0.00070   0.00000  -0.00228  -0.00229   2.05508
    A7        1.79866   0.00165   0.00000   0.01413   0.01400   1.81267
    A8        3.15199  -0.00060   0.00000  -0.17474  -0.17469   2.97730
    A9        3.14166   0.00000   0.00000   0.00010   0.00010   3.14177
    D1       -0.00000   0.00000   0.00000   0.00000   0.00000   0.00000
    D2        3.14159   0.00000   0.00000   0.00000   0.00000  -3.14159
    D3        3.14159   0.00000   0.00000   0.00000   0.00000  -3.14159
    D4       -2.05570   0.00066   0.00000   0.03853   0.03868  -2.01702
    D5        2.05535  -0.00066   0.00000  -0.03855  -0.03869   2.01666
    D6       -2.29898  -0.00001   0.00000  -0.00841  -0.00831  -2.30728
         Item               Value     Threshold  Converged?
 Maximum Force            0.009397     0.000450     NO 
 RMS     Force            0.003235     0.000300     NO 
 Maximum Displacement     0.255082     0.001800     NO 
 RMS     Displacement     0.091883     0.001200     NO 
 Predicted change in Energy=-1.122800D-03
 GradGradGradGradGradGradGradGradGradGradGradGradGradGradGradGradGradGrad

                          Input orientation:                          
 ---------------------------------------------------------------------
 Center     Atomic      Atomic             Coordinates (Angstroms)
 Number     Number       Type             X           Y           Z
 ---------------------------------------------------------------------
      1          6           0       -0.338408   -0.447962   -0.142667
      2          7           0        0.878203   -0.722445   -0.469297
      3          1           0       -0.742651   -0.564811    0.878804
      4          1           0       -1.028493   -0.074961   -0.910966
      5          1           0        1.385806   -1.059017    0.368790
      6          8           0        2.040027   -1.626809    2.038484
      7          1           0        2.753120   -1.112119    2.441631
      8          1           0        2.342708   -2.542406    2.115959
 ---------------------------------------------------------------------
                    Distance matrix (angstroms):
                    1          2          3          4          5
     1  C    0.000000
     2  N    1.289252   0.000000
     3  H    1.104749   2.114094   0.000000
     4  H    1.098012   2.061504   1.877482   0.000000
     5  H    1.899446   1.036017   2.243810   2.904305   0.000000
     6  O    3.435704   2.908037   3.196247   4.530266   1.881029
     7  H    4.083779   3.484345   3.868125   5.159090   2.483755
     8  H    4.083684   3.484333   3.867928   5.159027   2.483687
                    6          7          8
     6  O    0.000000
     7  H    0.967437   0.000000
     8  H    0.967437   1.523227   0.000000
 Stoichiometry    CH5NO
 Framework group  C1[X(CH5NO)]
 Deg. of freedom    18
 Full point group                 C1      NOp   1
 Largest Abelian subgroup         C1      NOp   1
 Largest concise Abelian subgroup C1      NOp   1
                         Standard orientation:                         
 ---------------------------------------------------------------------
 Center     Atomic      Atomic             Coordinates (Angstroms)
 Number     Number       Type             X           Y           Z
 ---------------------------------------------------------------------
      1          6           0        1.574924    0.414734    0.000016
      2          7           0        0.928855   -0.700957   -0.000025
      3          1           0        1.089328    1.407037   -0.000046
      4          1           0        2.672813    0.398320    0.000115
      5          1           0       -0.088082   -0.503038   -0.000122
      6          8           0       -1.850831    0.153458    0.000028
      7          1           0       -2.409509   -0.056000    0.761567
      8          1           0       -2.409425   -0.055681   -0.761660
 ---------------------------------------------------------------------
 Rotational constants (GHZ):          39.4857691           4.2842412           3.9352700
 Standard basis: Aug-CC-pVDZ (5D, 7F)
 There are   120 symmetry adapted cartesian basis functions of A   symmetry.
 There are   114 symmetry adapted basis functions of A   symmetry.
   114 basis functions,   184 primitive gaussians,   120 cartesian basis functions
    13 alpha electrons       13 beta electrons
       nuclear repulsion energy        68.2789566006 Hartrees.
 NAtoms=    8 NActive=    8 NUniq=    8 SFac= 1.00D+00 NAtFMM=   60 NAOKFM=F Big=F
 Integral buffers will be    131072 words long.
 Raffenetti 1 integral format.
 Two-electron integral symmetry is turned on.
 One-electron integrals computed using PRISM.
 NBasis=   114 RedAO= T EigKep=  4.12D-04  NBF=   114
 NBsUse=   114 1.00D-06 EigRej= -1.00D+00 NBFU=   114
 Initial guess from the checkpoint file:  "/scr/Gau-24555.chk"
 B after Tr=     0.000000    0.000000    0.000000
         Rot=    0.999969    0.000025    0.000004   -0.007837 Ang=   0.90 deg.
 ExpMin= 2.97D-02 ExpMax= 1.17D+04 ExpMxC= 4.01D+02 IAcc=3 IRadAn=         5 AccDes= 0.00D+00
 Harris functional with IExCor=  205 and IRadAn=       5 diagonalized for initial guess.
 HarFok:  IExCor=  205 AccDes= 0.00D+00 IRadAn=         5 IDoV= 1 UseB2=F ITyADJ=14
 ICtDFT=  3500011 ScaDFX=  1.000000  1.000000  1.000000  1.000000
 FoFCou: FMM=F IPFlag=           0 FMFlag=      100000 FMFlg1=           0
         NFxFlg=           0 DoJE=T BraDBF=F KetDBF=T FulRan=T
         wScrn=  0.000000 ICntrl=       500 IOpCl=  0 I1Cent=   200000004 NGrid=           0
         NMat0=    1 NMatS0=      1 NMatT0=    0 NMatD0=    1 NMtDS0=    0 NMtDT0=    0
 Petite list used in FoFCou.
 Keep R1 ints in memory in canonical form, NReq=26611511.
 Requested convergence on RMS density matrix=1.00D-08 within 128 cycles.
 Requested convergence on MAX density matrix=1.00D-06.
 Requested convergence on             energy=1.00D-06.
 No special actions if energy rises.
 SCF Done:  E(RHF) =  -170.086340388     A.U. after   12 cycles
            NFock= 12  Conv=0.38D-08     -V/T= 2.0025
 ExpMin= 2.97D-02 ExpMax= 1.17D+04 ExpMxC= 4.01D+02 IAcc=3 IRadAn=         5 AccDes= 0.00D+00
 HarFok:  IExCor=  205 AccDes= 0.00D+00 IRadAn=         5 IDoV=-2 UseB2=F ITyADJ=14
 ICtDFT= 12500011 ScaDFX=  1.000000  1.000000  1.000000  1.000000
 Range of M.O.s used for correlation:     4   114
 NBasis=   114 NAE=    13 NBE=    13 NFC=     3 NFV=     0
 NROrb=    111 NOA=    10 NOB=    10 NVA=   101 NVB=   101

 **** Warning!!: The largest alpha MO coefficient is  0.15000727D+02

 Fully direct method using O(ONN) memory.
 JobTyp=1 Pass  1:  I=   4 to  13 NPSUse= 24 ParTrn=T ParDer=T DoDerP=T.
 Spin components of T(2) and E(2):
     alpha-alpha T2 =       0.2163553057D-01 E2=     -0.6669037703D-01
     alpha-beta  T2 =       0.1304001243D+00 E2=     -0.4080518925D+00
     beta-beta   T2 =       0.2163553057D-01 E2=     -0.6669037703D-01
 ANorm=    0.1083361060D+01
 E2 =    -0.5414326466D+00 EUMP2 =    -0.17062777303473D+03
          IDoAtm=11111111
          Differentiating once with respect to electric field.
                with respect to dipole field.
          Differentiating once with respect to nuclear coordinates.
 Keep R1 ints in memory in canonical form, NReq=26615066.
          There are     1 degrees of freedom in the 1st order CPHF.  IDoFFX=0 NUNeed=     1.
 LinEq1:  Iter=  0 NonCon=     1 RMS=4.86D-03 Max=5.08D-02 NDo=     1
 AX will form     1 AO Fock derivatives at one time.
 LinEq1:  Iter=  1 NonCon=     1 RMS=1.09D-03 Max=1.12D-02 NDo=     1
 LinEq1:  Iter=  2 NonCon=     1 RMS=3.75D-04 Max=3.08D-03 NDo=     1
 LinEq1:  Iter=  3 NonCon=     1 RMS=1.12D-04 Max=1.55D-03 NDo=     1
 LinEq1:  Iter=  4 NonCon=     1 RMS=3.75D-05 Max=3.10D-04 NDo=     1
 LinEq1:  Iter=  5 NonCon=     1 RMS=1.57D-05 Max=3.39D-04 NDo=     1
 LinEq1:  Iter=  6 NonCon=     1 RMS=5.37D-06 Max=3.43D-05 NDo=     1
 LinEq1:  Iter=  7 NonCon=     1 RMS=1.49D-06 Max=1.76D-05 NDo=     1
 LinEq1:  Iter=  8 NonCon=     1 RMS=2.15D-07 Max=1.72D-06 NDo=     1
 LinEq1:  Iter=  9 NonCon=     1 RMS=2.96D-08 Max=2.40D-07 NDo=     1
 LinEq1:  Iter= 10 NonCon=     1 RMS=5.69D-09 Max=3.65D-08 NDo=     1
 LinEq1:  Iter= 11 NonCon=     1 RMS=9.92D-10 Max=7.83D-09 NDo=     1
 LinEq1:  Iter= 12 NonCon=     1 RMS=1.70D-10 Max=1.44D-09 NDo=     1
 LinEq1:  Iter= 13 NonCon=     0 RMS=2.76D-11 Max=2.36D-10 NDo=     1
 Linear equations converged to 1.000D-10 1.000D-09 after    13 iterations.
 End of Minotr F.D. properties file   721 does not exist.
 End of Minotr F.D. properties file   722 does not exist.
 End of Minotr F.D. properties file   788 does not exist.
 Calling FoFJK, ICntrl=  10002127 FMM=F ISym2X=0 I1Cent= 0 IOpClX= 0 NMat=1 NMatS=1 NMatT=0.
 ***** Axes restored to original set *****
 -------------------------------------------------------------------
 Center     Atomic                   Forces (Hartrees/Bohr)
 Number     Number              X              Y              Z
 -------------------------------------------------------------------
      1        6           0.001611298   -0.000655668    0.000847942
      2        7           0.000380895   -0.000212733    0.000446252
      3        1           0.000278297   -0.000008612   -0.000312164
      4        1          -0.000204572    0.000129332   -0.000308395
      5        1          -0.004613243    0.002754268   -0.006272830
      6        8           0.003791013   -0.002438974    0.005931290
      7        1          -0.000687154   -0.000010112   -0.000218086
      8        1          -0.000556535    0.000442499   -0.000114009
 -------------------------------------------------------------------
 Cartesian Forces:  Max     0.006272830 RMS     0.002320369

 GradGradGradGradGradGradGradGradGradGradGradGradGradGradGradGradGradGrad
 Berny optimization.
 Using GEDIIS/GDIIS optimizer.
 FormGI is forming the generalized inverse of G from B-inverse, IUseBI=4.
 Internal  Forces:  Max     0.006462657 RMS     0.001560695
 Search for a local minimum.
 Step number   2 out of a maximum of   32
 All quantities printed in internal units (Hartrees-Bohrs-Radians)
 Mixed Optimization -- RFO/linear search
 Update second derivatives using D2CorX and points    1    2
 DE= -1.43D-03 DEPred=-1.12D-03 R= 1.27D+00
 TightC=F SS=  1.41D+00  RLast= 2.42D-01 DXNew= 5.0454D-01 7.2681D-01
 Trust test= 1.27D+00 RLast= 2.42D-01 DXMaxT set to 5.05D-01
 ITU=  1  0
 Use linear search instead of GDIIS.
     Eigenvalues ---    0.00230   0.00230   0.00333   0.01242   0.02290
     Eigenvalues ---    0.03182   0.03260   0.14065   0.15818   0.16000
     Eigenvalues ---    0.16000   0.18909   0.33498   0.33992   0.40615
     Eigenvalues ---    0.52975   0.53363   0.71969
 RFO step:  Lambda=-1.51997521D-03 EMin= 2.29999948D-03
 Quartic linear search produced a step of  0.80758.
 Iteration  1 RMS(Cart)=  0.12025910 RMS(Int)=  0.02492938
 Iteration  2 RMS(Cart)=  0.03335102 RMS(Int)=  0.00057308
 Iteration  3 RMS(Cart)=  0.00018630 RMS(Int)=  0.00056303
 Iteration  4 RMS(Cart)=  0.00000009 RMS(Int)=  0.00056303
 Variable       Old X    -DE/DX   Delta X   Delta X   Delta X     New X
                                 (Linear)    (Quad)   (Total)
    R1        2.43633  -0.00165   0.00287  -0.00410  -0.00123   2.43511
    R2        2.08767  -0.00039   0.00407  -0.00188   0.00219   2.08986
    R3        2.07494   0.00039  -0.00463   0.00183  -0.00279   2.07215
    R4        1.95779  -0.00180  -0.00898  -0.00856  -0.01754   1.94025
    R5        3.55463   0.00646   0.12042   0.20244   0.32286   3.87749
    R6        1.82819  -0.00060  -0.00693  -0.00248  -0.00941   1.81879
    R7        1.82819  -0.00060  -0.00693  -0.00247  -0.00940   1.81879
    A1        2.16160  -0.00017   0.03025   0.00016   0.03041   2.19201
    A2        2.08074   0.00003  -0.02070  -0.00111  -0.02181   2.05893
    A3        2.04085   0.00014  -0.00955   0.00095  -0.00860   2.03225
    A4        1.90347  -0.00187   0.00939  -0.02059  -0.01120   1.89227
    A5        2.05519  -0.00001  -0.00149   0.00344   0.00132   2.05651
    A6        2.05508  -0.00016  -0.00185   0.00259   0.00069   2.05577
    A7        1.81267   0.00052   0.01131   0.01181   0.02193   1.83460
    A8        2.97730   0.00096  -0.14108   0.29433   0.15370   3.13100
    A9        3.14177  -0.00000   0.00008  -0.00105  -0.00097   3.14080
    D1        0.00000  -0.00000   0.00000  -0.00000  -0.00000  -0.00000
    D2       -3.14159  -0.00000   0.00000  -0.00003  -0.00003   3.14157
    D3       -3.14159  -0.00000   0.00000  -0.00003  -0.00003   3.14157
    D4       -2.01702   0.00008   0.03123  -0.04130  -0.00867  -2.02569
    D5        2.01666  -0.00008  -0.03124   0.04143   0.00878   2.02544
    D6       -2.30728  -0.00025  -0.00671  -0.01742  -0.02311  -2.33039
         Item               Value     Threshold  Converged?
 Maximum Force            0.006463     0.000450     NO 
 RMS     Force            0.001561     0.000300     NO 
 Maximum Displacement     0.265827     0.001800     NO 
 RMS     Displacement     0.148136     0.001200     NO 
 Predicted change in Energy=-1.186790D-03
 GradGradGradGradGradGradGradGradGradGradGradGradGradGradGradGradGradGrad

                          Input orientation:                          
 ---------------------------------------------------------------------
 Center     Atomic      Atomic             Coordinates (Angstroms)
 Number     Number       Type             X           Y           Z
 ---------------------------------------------------------------------
      1          6           0       -0.402499   -0.417621   -0.195445
      2          7           0        0.824064   -0.708528   -0.462686
      3          1           0       -0.883320   -0.505128    0.796613
      4          1           0       -1.033971   -0.050781   -1.013404
      5          1           0        1.275677   -1.033955    0.400057
      6          8           0        2.159123   -1.682821    2.134622
      7          1           0        2.881604   -1.158444    2.494317
      8          1           0        2.469635   -2.593253    2.166664
 ---------------------------------------------------------------------
                    Distance matrix (angstroms):
                    1          2          3          4          5
     1  C    0.000000
     2  N    1.288604   0.000000
     3  H    1.105906   2.131283   0.000000
     4  H    1.096533   2.046512   1.872242   0.000000
     5  H    1.884348   1.026735   2.257916   2.880795   0.000000
     6  O    3.686712   3.078577   3.526143   4.771736   2.051881
     7  H    4.309173   3.630394   4.181348   5.372406   2.642048
     8  H    4.308374   3.629542   4.180863   5.371429   2.641562
                    6          7          8
     6  O    0.000000
     7  H    0.962460   0.000000
     8  H    0.962462   1.528317   0.000000
 Stoichiometry    CH5NO
 Framework group  C1[X(CH5NO)]
 Deg. of freedom    18
 Full point group                 C1      NOp   1
 Largest Abelian subgroup         C1      NOp   1
 Largest concise Abelian subgroup C1      NOp   1
                         Standard orientation:                         
 ---------------------------------------------------------------------
 Center     Atomic      Atomic             Coordinates (Angstroms)
 Number     Number       Type             X           Y           Z
 ---------------------------------------------------------------------
      1          6           0        1.687184    0.394672   -0.000041
      2          7           0        0.972382   -0.677502    0.000079
      3          1           0        1.295975    1.429072    0.000310
      4          1           0        2.778252    0.285331   -0.000506
      5          1           0       -0.018096   -0.407066    0.000555
      6          8           0       -1.991686    0.154327   -0.000015
      7          1           0       -2.526691   -0.083492    0.763884
      8          1           0       -2.525735   -0.083977   -0.764433
 ---------------------------------------------------------------------
 Rotational constants (GHZ):          41.8574420           3.7598597           3.5063109
 Standard basis: Aug-CC-pVDZ (5D, 7F)
 There are   120 symmetry adapted cartesian basis functions of A   symmetry.
 There are   114 symmetry adapted basis functions of A   symmetry.
   114 basis functions,   184 primitive gaussians,   120 cartesian basis functions
    13 alpha electrons       13 beta electrons
       nuclear repulsion energy        66.7310762527 Hartrees.
 NAtoms=    8 NActive=    8 NUniq=    8 SFac= 1.00D+00 NAtFMM=   60 NAOKFM=F Big=F
 Integral buffers will be    131072 words long.
 Raffenetti 1 integral format.
 Two-electron integral symmetry is turned on.
 One-electron integrals computed using PRISM.
 NBasis=   114 RedAO= T EigKep=  4.11D-04  NBF=   114
 NBsUse=   114 1.00D-06 EigRej= -1.00D+00 NBFU=   114
 Initial guess from the checkpoint file:  "/scr/Gau-24555.chk"
 B after Tr=    -0.000000   -0.000000    0.000000
         Rot=    0.999997    0.000084    0.000008    0.002546 Ang=   0.29 deg.
 ExpMin= 2.97D-02 ExpMax= 1.17D+04 ExpMxC= 4.01D+02 IAcc=3 IRadAn=         5 AccDes= 0.00D+00
 Harris functional with IExCor=  205 and IRadAn=       5 diagonalized for initial guess.
 HarFok:  IExCor=  205 AccDes= 0.00D+00 IRadAn=         5 IDoV= 1 UseB2=F ITyADJ=14
 ICtDFT=  3500011 ScaDFX=  1.000000  1.000000  1.000000  1.000000
 FoFCou: FMM=F IPFlag=           0 FMFlag=      100000 FMFlg1=           0
         NFxFlg=           0 DoJE=T BraDBF=F KetDBF=T FulRan=T
         wScrn=  0.000000 ICntrl=       500 IOpCl=  0 I1Cent=   200000004 NGrid=           0
         NMat0=    1 NMatS0=      1 NMatT0=    0 NMatD0=    1 NMtDS0=    0 NMtDT0=    0
 Petite list used in FoFCou.
 Keep R1 ints in memory in canonical form, NReq=26610406.
 Requested convergence on RMS density matrix=1.00D-08 within 128 cycles.
 Requested convergence on MAX density matrix=1.00D-06.
 Requested convergence on             energy=1.00D-06.
 No special actions if energy rises.
 SCF Done:  E(RHF) =  -170.089050477     A.U. after   12 cycles
            NFock= 12  Conv=0.44D-08     -V/T= 2.0024
 ExpMin= 2.97D-02 ExpMax= 1.17D+04 ExpMxC= 4.01D+02 IAcc=3 IRadAn=         5 AccDes= 0.00D+00
 HarFok:  IExCor=  205 AccDes= 0.00D+00 IRadAn=         5 IDoV=-2 UseB2=F ITyADJ=14
 ICtDFT= 12500011 ScaDFX=  1.000000  1.000000  1.000000  1.000000
 Range of M.O.s used for correlation:     4   114
 NBasis=   114 NAE=    13 NBE=    13 NFC=     3 NFV=     0
 NROrb=    111 NOA=    10 NOB=    10 NVA=   101 NVB=   101

 **** Warning!!: The largest alpha MO coefficient is  0.14615300D+02

 Fully direct method using O(ONN) memory.
 JobTyp=1 Pass  1:  I=   4 to  13 NPSUse= 24 ParTrn=T ParDer=T DoDerP=T.
 Spin components of T(2) and E(2):
     alpha-alpha T2 =       0.2148557327D-01 E2=     -0.6633562826D-01
     alpha-beta  T2 =       0.1299290541D+00 E2=     -0.4071135901D+00
     beta-beta   T2 =       0.2148557327D-01 E2=     -0.6633562826D-01
 ANorm=    0.1083005171D+01
 E2 =    -0.5397848466D+00 EUMP2 =    -0.17062883532323D+03
          IDoAtm=11111111
          Differentiating once with respect to electric field.
                with respect to dipole field.
          Differentiating once with respect to nuclear coordinates.
 Keep R1 ints in memory in canonical form, NReq=26613701.
          There are     1 degrees of freedom in the 1st order CPHF.  IDoFFX=0 NUNeed=     1.
 LinEq1:  Iter=  0 NonCon=     1 RMS=4.83D-03 Max=4.00D-02 NDo=     1
 AX will form     1 AO Fock derivatives at one time.
 LinEq1:  Iter=  1 NonCon=     1 RMS=1.08D-03 Max=1.07D-02 NDo=     1
 LinEq1:  Iter=  2 NonCon=     1 RMS=3.70D-04 Max=3.25D-03 NDo=     1
 LinEq1:  Iter=  3 NonCon=     1 RMS=1.13D-04 Max=1.57D-03 NDo=     1
 LinEq1:  Iter=  4 NonCon=     1 RMS=3.69D-05 Max=2.78D-04 NDo=     1
 LinEq1:  Iter=  5 NonCon=     1 RMS=1.54D-05 Max=3.32D-04 NDo=     1
 LinEq1:  Iter=  6 NonCon=     1 RMS=5.23D-06 Max=3.59D-05 NDo=     1
 LinEq1:  Iter=  7 NonCon=     1 RMS=1.44D-06 Max=1.60D-05 NDo=     1
 LinEq1:  Iter=  8 NonCon=     1 RMS=2.12D-07 Max=1.71D-06 NDo=     1
 LinEq1:  Iter=  9 NonCon=     1 RMS=3.05D-08 Max=2.15D-07 NDo=     1
 LinEq1:  Iter= 10 NonCon=     1 RMS=6.06D-09 Max=4.17D-08 NDo=     1
 LinEq1:  Iter= 11 NonCon=     1 RMS=1.02D-09 Max=8.34D-09 NDo=     1
 LinEq1:  Iter= 12 NonCon=     1 RMS=1.66D-10 Max=1.49D-09 NDo=     1
 LinEq1:  Iter= 13 NonCon=     0 RMS=2.54D-11 Max=2.13D-10 NDo=     1
 Linear equations converged to 1.000D-10 1.000D-09 after    13 iterations.
 End of Minotr F.D. properties file   721 does not exist.
 End of Minotr F.D. properties file   722 does not exist.
 End of Minotr F.D. properties file   788 does not exist.
 Calling FoFJK, ICntrl=  10002127 FMM=F ISym2X=0 I1Cent= 0 IOpClX= 0 NMat=1 NMatS=1 NMatT=0.
 ***** Axes restored to original set *****
 -------------------------------------------------------------------
 Center     Atomic                   Forces (Hartrees/Bohr)
 Number     Number              X              Y              Z
 -------------------------------------------------------------------
      1        6          -0.002464576    0.001416498   -0.003114637
      2        7          -0.001931370    0.000195442    0.001591580
      3        1           0.003070280   -0.000761190   -0.000524567
      4        1          -0.001962520    0.000679769   -0.000524475
      5        1           0.002654871   -0.000977757    0.000938429
      6        8          -0.004860405    0.001468766   -0.000311348
      7        1           0.003257500    0.000767051    0.001378967
      8        1           0.002236221   -0.002788580    0.000566049
 -------------------------------------------------------------------
 Cartesian Forces:  Max     0.004860405 RMS     0.002040365

 GradGradGradGradGradGradGradGradGradGradGradGradGradGradGradGradGradGrad
 Berny optimization.
 Using GEDIIS/GDIIS optimizer.
 FormGI is forming the generalized inverse of G from B-inverse, IUseBI=4.
 Internal  Forces:  Max     0.004602075 RMS     0.002095263
 Search for a local minimum.
 Step number   3 out of a maximum of   32
 All quantities printed in internal units (Hartrees-Bohrs-Radians)
 Mixed Optimization -- RFO/linear search
 Update second derivatives using D2CorX and points    1    2    3
 DE= -1.06D-03 DEPred=-1.19D-03 R= 8.95D-01
 TightC=F SS=  1.41D+00  RLast= 3.62D-01 DXNew= 8.4853D-01 1.0864D+00
 Trust test= 8.95D-01 RLast= 3.62D-01 DXMaxT set to 8.49D-01
 ITU=  1  1  0
 Use linear search instead of GDIIS.
     Eigenvalues ---    0.00230   0.00230   0.00363   0.01232   0.01466
     Eigenvalues ---    0.03181   0.03182   0.14107   0.15998   0.16000
     Eigenvalues ---    0.17289   0.20325   0.33502   0.34373   0.42324
     Eigenvalues ---    0.52975   0.56345   0.71984
 RFO step:  Lambda=-5.91699027D-04 EMin= 2.29999995D-03
 Quartic linear search produced a step of  0.03187.
 Iteration  1 RMS(Cart)=  0.09755443 RMS(Int)=  0.00401766
 Iteration  2 RMS(Cart)=  0.00939551 RMS(Int)=  0.00007967
 Iteration  3 RMS(Cart)=  0.00001499 RMS(Int)=  0.00007904
 Iteration  4 RMS(Cart)=  0.00000000 RMS(Int)=  0.00007904
 Variable       Old X    -DE/DX   Delta X   Delta X   Delta X     New X
                                 (Linear)    (Quad)   (Total)
    R1        2.43511   0.00073  -0.00004   0.00094   0.00090   2.43600
    R2        2.08986  -0.00175   0.00007  -0.00443  -0.00436   2.08550
    R3        2.07215   0.00175  -0.00009   0.00423   0.00414   2.07629
    R4        1.94025   0.00409  -0.00056   0.00498   0.00442   1.94467
    R5        3.87749   0.00183   0.01029   0.12146   0.13175   4.00925
    R6        1.81879   0.00338  -0.00030   0.00356   0.00326   1.82205
    R7        1.81879   0.00338  -0.00030   0.00356   0.00326   1.82205
    A1        2.19201  -0.00460   0.00097  -0.01911  -0.01814   2.17386
    A2        2.05893   0.00358  -0.00070   0.01556   0.01486   2.07379
    A3        2.03225   0.00102  -0.00027   0.00355   0.00328   2.03553
    A4        1.89227   0.00282  -0.00036   0.01564   0.01528   1.90755
    A5        2.05651   0.00052   0.00004  -0.00005  -0.00010   2.05641
    A6        2.05577   0.00062   0.00002   0.00048   0.00050   2.05627
    A7        1.83460  -0.00154   0.00070  -0.00848  -0.00793   1.82667
    A8        3.13100  -0.00070   0.00490  -0.17246  -0.16750   2.96350
    A9        3.14080   0.00000  -0.00003   0.00093   0.00090   3.14170
    D1       -0.00000   0.00000  -0.00000   0.00000   0.00000   0.00000
    D2        3.14157   0.00000  -0.00000   0.00009   0.00009  -3.14153
    D3        3.14157   0.00000  -0.00000   0.00008   0.00008  -3.14153
    D4       -2.02569  -0.00048  -0.00028   0.02100   0.02092  -2.00477
    D5        2.02544   0.00048   0.00028  -0.02088  -0.02080   2.00464
    D6       -2.33039   0.00019  -0.00074   0.00770   0.00711  -2.32328
         Item               Value     Threshold  Converged?
 Maximum Force            0.004602     0.000450     NO 
 RMS     Force            0.002095     0.000300     NO 
 Maximum Displacement     0.247311     0.001800     NO 
 RMS     Displacement     0.102281     0.001200     NO 
 Predicted change in Energy=-3.078928D-04
 GradGradGradGradGradGradGradGradGradGradGradGradGradGradGradGradGradGrad

                          Input orientation:                          
 ---------------------------------------------------------------------
 Center     Atomic      Atomic             Coordinates (Angstroms)
 Number     Number       Type             X           Y           Z
 ---------------------------------------------------------------------
      1          6           0       -0.387939   -0.424024   -0.185299
      2          7           0        0.821242   -0.688846   -0.545121
      3          1           0       -0.776791   -0.546171    0.840275
      4          1           0       -1.094771   -0.049720   -0.938611
      5          1           0        1.352084   -1.026636    0.269186
      6          8           0        2.123596   -1.673195    2.136784
      7          1           0        2.832021   -1.154335    2.535001
      8          1           0        2.420870   -2.587603    2.208522
 ---------------------------------------------------------------------
                    Distance matrix (angstroms):
                    1          2          3          4          5
     1  C    0.000000
     2  N    1.289078   0.000000
     3  H    1.103597   2.119762   0.000000
     4  H    1.098724   2.057771   1.874036   0.000000
     5  H    1.896675   1.029073   2.255902   2.898316   0.000000
     6  O    3.641470   3.139695   3.370958   4.738313   2.121601
     7  H    4.278028   3.707704   4.033049   5.357784   2.709325
     8  H    4.277951   3.707647   4.032937   5.357708   2.709234
                    6          7          8
     6  O    0.000000
     7  H    0.964188   0.000000
     8  H    0.964189   1.526398   0.000000
 Stoichiometry    CH5NO
 Framework group  C1[X(CH5NO)]
 Deg. of freedom    18
 Full point group                 C1      NOp   1
 Largest Abelian subgroup         C1      NOp   1
 Largest concise Abelian subgroup C1      NOp   1
                         Standard orientation:                         
 ---------------------------------------------------------------------
 Center     Atomic      Atomic             Coordinates (Angstroms)
 Number     Number       Type             X           Y           Z
 ---------------------------------------------------------------------
      1          6           0        1.641816    0.432138    0.000012
      2          7           0        1.034069   -0.704685   -0.000004
      3          1           0        1.135347    1.412656   -0.000040
      4          1           0        2.740460    0.445381    0.000024
      5          1           0        0.017204   -0.546643   -0.000074
      6          8           0       -1.988349    0.145420    0.000013
      7          1           0       -2.537842   -0.067436    0.763169
      8          1           0       -2.537757   -0.067354   -0.763229
 ---------------------------------------------------------------------
 Rotational constants (GHZ):          38.5220366           3.7819108           3.4998135
 Standard basis: Aug-CC-pVDZ (5D, 7F)
 There are   120 symmetry adapted cartesian basis functions of A   symmetry.
 There are   114 symmetry adapted basis functions of A   symmetry.
   114 basis functions,   184 primitive gaussians,   120 cartesian basis functions
    13 alpha electrons       13 beta electrons
       nuclear repulsion energy        66.5484771261 Hartrees.
 NAtoms=    8 NActive=    8 NUniq=    8 SFac= 1.00D+00 NAtFMM=   60 NAOKFM=F Big=F
 Integral buffers will be    131072 words long.
 Raffenetti 1 integral format.
 Two-electron integral symmetry is turned on.
 One-electron integrals computed using PRISM.
 NBasis=   114 RedAO= T EigKep=  4.25D-04  NBF=   114
 NBsUse=   114 1.00D-06 EigRej= -1.00D+00 NBFU=   114
 Initial guess from the checkpoint file:  "/scr/Gau-24555.chk"
 B after Tr=     0.000000    0.000000   -0.000000
         Rot=    0.999969   -0.000065   -0.000009   -0.007889 Ang=  -0.90 deg.
 ExpMin= 2.97D-02 ExpMax= 1.17D+04 ExpMxC= 4.01D+02 IAcc=3 IRadAn=         5 AccDes= 0.00D+00
 Harris functional with IExCor=  205 and IRadAn=       5 diagonalized for initial guess.
 HarFok:  IExCor=  205 AccDes= 0.00D+00 IRadAn=         5 IDoV= 1 UseB2=F ITyADJ=14
 ICtDFT=  3500011 ScaDFX=  1.000000  1.000000  1.000000  1.000000
 FoFCou: FMM=F IPFlag=           0 FMFlag=      100000 FMFlg1=           0
         NFxFlg=           0 DoJE=T BraDBF=F KetDBF=T FulRan=T
         wScrn=  0.000000 ICntrl=       500 IOpCl=  0 I1Cent=   200000004 NGrid=           0
         NMat0=    1 NMatS0=      1 NMatT0=    0 NMatD0=    1 NMtDS0=    0 NMtDT0=    0
 Petite list used in FoFCou.
 Keep R1 ints in memory in canonical form, NReq=26610016.
 Requested convergence on RMS density matrix=1.00D-08 within 128 cycles.
 Requested convergence on MAX density matrix=1.00D-06.
 Requested convergence on             energy=1.00D-06.
 No special actions if energy rises.
 SCF Done:  E(RHF) =  -170.089415461     A.U. after   12 cycles
            NFock= 12  Conv=0.41D-08     -V/T= 2.0026
 ExpMin= 2.97D-02 ExpMax= 1.17D+04 ExpMxC= 4.01D+02 IAcc=3 IRadAn=         5 AccDes= 0.00D+00
 HarFok:  IExCor=  205 AccDes= 0.00D+00 IRadAn=         5 IDoV=-2 UseB2=F ITyADJ=14
 ICtDFT= 12500011 ScaDFX=  1.000000  1.000000  1.000000  1.000000
 Range of M.O.s used for correlation:     4   114
 NBasis=   114 NAE=    13 NBE=    13 NFC=     3 NFV=     0
 NROrb=    111 NOA=    10 NOB=    10 NVA=   101 NVB=   101

 **** Warning!!: The largest alpha MO coefficient is  0.14622279D+02

 Fully direct method using O(ONN) memory.
 JobTyp=1 Pass  1:  I=   4 to  13 NPSUse= 24 ParTrn=T ParDer=T DoDerP=T.
 Spin components of T(2) and E(2):
     alpha-alpha T2 =       0.2148962613D-01 E2=     -0.6628772192D-01
     alpha-beta  T2 =       0.1301045799D+00 E2=     -0.4071896140D+00
     beta-beta   T2 =       0.2148962613D-01 E2=     -0.6628772192D-01
 ANorm=    0.1083089946D+01
 E2 =    -0.5397650578D+00 EUMP2 =    -0.17062918051868D+03
          IDoAtm=11111111
          Differentiating once with respect to electric field.
                with respect to dipole field.
          Differentiating once with respect to nuclear coordinates.
 Keep R1 ints in memory in canonical form, NReq=26613701.
          There are     1 degrees of freedom in the 1st order CPHF.  IDoFFX=0 NUNeed=     1.
 LinEq1:  Iter=  0 NonCon=     1 RMS=4.84D-03 Max=4.63D-02 NDo=     1
 AX will form     1 AO Fock derivatives at one time.
 LinEq1:  Iter=  1 NonCon=     1 RMS=1.08D-03 Max=1.06D-02 NDo=     1
 LinEq1:  Iter=  2 NonCon=     1 RMS=3.70D-04 Max=3.37D-03 NDo=     1
 LinEq1:  Iter=  3 NonCon=     1 RMS=1.12D-04 Max=1.52D-03 NDo=     1
 LinEq1:  Iter=  4 NonCon=     1 RMS=3.63D-05 Max=2.68D-04 NDo=     1
 LinEq1:  Iter=  5 NonCon=     1 RMS=1.49D-05 Max=3.20D-04 NDo=     1
 LinEq1:  Iter=  6 NonCon=     1 RMS=5.09D-06 Max=3.57D-05 NDo=     1
 LinEq1:  Iter=  7 NonCon=     1 RMS=1.43D-06 Max=1.57D-05 NDo=     1
 LinEq1:  Iter=  8 NonCon=     1 RMS=2.12D-07 Max=1.79D-06 NDo=     1
 LinEq1:  Iter=  9 NonCon=     1 RMS=2.99D-08 Max=2.16D-07 NDo=     1
 LinEq1:  Iter= 10 NonCon=     1 RMS=5.80D-09 Max=3.99D-08 NDo=     1
 LinEq1:  Iter= 11 NonCon=     1 RMS=9.87D-10 Max=8.44D-09 NDo=     1
 LinEq1:  Iter= 12 NonCon=     1 RMS=1.64D-10 Max=1.56D-09 NDo=     1
 LinEq1:  Iter= 13 NonCon=     0 RMS=2.56D-11 Max=2.22D-10 NDo=     1
 Linear equations converged to 1.000D-10 1.000D-09 after    13 iterations.
 End of Minotr F.D. properties file   721 does not exist.
 End of Minotr F.D. properties file   722 does not exist.
 End of Minotr F.D. properties file   788 does not exist.
 Calling FoFJK, ICntrl=  10002127 FMM=F ISym2X=0 I1Cent= 0 IOpClX= 0 NMat=1 NMatS=1 NMatT=0.
 ***** Axes restored to original set *****
 -------------------------------------------------------------------
 Center     Atomic                   Forces (Hartrees/Bohr)
 Number     Number              X              Y              Z
 -------------------------------------------------------------------
      1        6          -0.000302133    0.000197497   -0.000509429
      2        7          -0.000743218    0.000430740   -0.000963582
      3        1           0.001207325   -0.000396666    0.000225435
      4        1           0.000334184   -0.000079643   -0.000056869
      5        1          -0.000798224    0.000090355    0.000623441
      6        8          -0.002676016    0.000932395   -0.000730676
      7        1           0.001761502    0.000361740    0.000921910
      8        1           0.001216581   -0.001536418    0.000489768
 -------------------------------------------------------------------
 Cartesian Forces:  Max     0.002676016 RMS     0.000948810

 GradGradGradGradGradGradGradGradGradGradGradGradGradGradGradGradGradGrad
 Berny optimization.
 Using GEDIIS/GDIIS optimizer.
 FormGI is forming the generalized inverse of G from B-inverse, IUseBI=4.
 Internal  Forces:  Max     0.002149132 RMS     0.000951413
 Search for a local minimum.
 Step number   4 out of a maximum of   32
 All quantities printed in internal units (Hartrees-Bohrs-Radians)
 Mixed Optimization -- En-DIIS/RFO-DIIS
 Update second derivatives using D2CorX and points    2    3    4
 DE= -3.45D-04 DEPred=-3.08D-04 R= 1.12D+00
 TightC=F SS=  1.41D+00  RLast= 2.17D-01 DXNew= 1.4270D+00 6.5226D-01
 Trust test= 1.12D+00 RLast= 2.17D-01 DXMaxT set to 8.49D-01
 ITU=  1  1  1  0
 Use linear search instead of GDIIS.
     Eigenvalues ---    0.00230   0.00230   0.00354   0.01149   0.01240
     Eigenvalues ---    0.03128   0.03182   0.14152   0.15978   0.16000
     Eigenvalues ---    0.18526   0.20680   0.33490   0.34711   0.42045
     Eigenvalues ---    0.52975   0.53639   0.72643
 RFO step:  Lambda=-1.35360685D-04 EMin= 2.29999955D-03
 Quartic linear search produced a step of  0.34786.
 Iteration  1 RMS(Cart)=  0.07775222 RMS(Int)=  0.00219585
 Iteration  2 RMS(Cart)=  0.00497887 RMS(Int)=  0.00001458
 Iteration  3 RMS(Cart)=  0.00000464 RMS(Int)=  0.00001429
 Iteration  4 RMS(Cart)=  0.00000000 RMS(Int)=  0.00001429
 Variable       Old X    -DE/DX   Delta X   Delta X   Delta X     New X
                                 (Linear)    (Quad)   (Total)
    R1        2.43600  -0.00131   0.00031  -0.00239  -0.00208   2.43392
    R2        2.08550  -0.00017  -0.00152   0.00051  -0.00100   2.08449
    R3        2.07629  -0.00020   0.00144  -0.00222  -0.00078   2.07551
    R4        1.94467   0.00083   0.00154  -0.00077   0.00077   1.94544
    R5        4.00925   0.00078   0.04583   0.06058   0.10641   4.11566
    R6        1.82205   0.00187   0.00114   0.00264   0.00377   1.82582
    R7        1.82205   0.00187   0.00114   0.00263   0.00377   1.82582
    A1        2.17386  -0.00158  -0.00631  -0.00448  -0.01079   2.16307
    A2        2.07379   0.00050   0.00517  -0.00241   0.00277   2.07656
    A3        2.03553   0.00108   0.00114   0.00689   0.00803   2.04356
    A4        1.90755  -0.00215   0.00532  -0.01998  -0.01466   1.89289
    A5        2.05641   0.00037  -0.00003   0.00090   0.00084   2.05725
    A6        2.05627   0.00038   0.00017   0.00120   0.00136   2.05763
    A7        1.82667  -0.00092  -0.00276  -0.00660  -0.00940   1.81727
    A8        2.96350  -0.00003  -0.05827  -0.04274  -0.10100   2.86250
    A9        3.14170  -0.00000   0.00031  -0.00059  -0.00027   3.14143
    D1        0.00000  -0.00000   0.00000   0.00004   0.00004   0.00004
    D2       -3.14153  -0.00000   0.00003  -0.00023  -0.00020   3.14146
    D3       -3.14153  -0.00000   0.00003  -0.00027  -0.00024   3.14141
    D4       -2.00477  -0.00028   0.00728   0.00283   0.01014  -1.99463
    D5        2.00464   0.00028  -0.00724  -0.00274  -0.01001   1.99463
    D6       -2.32328   0.00003   0.00247   0.00392   0.00640  -2.31687
         Item               Value     Threshold  Converged?
 Maximum Force            0.002149     0.000450     NO 
 RMS     Force            0.000951     0.000300     NO 
 Maximum Displacement     0.184510     0.001800     NO 
 RMS     Displacement     0.080986     0.001200     NO 
 Predicted change in Energy=-7.227586D-05
 GradGradGradGradGradGradGradGradGradGradGradGradGradGradGradGradGradGrad

                          Input orientation:                          
 ---------------------------------------------------------------------
 Center     Atomic      Atomic             Coordinates (Angstroms)
 Number     Number       Type             X           Y           Z
 ---------------------------------------------------------------------
      1          6           0       -0.367244   -0.433057   -0.171971
      2          7           0        0.819852   -0.673708   -0.609893
      3          1           0       -0.679152   -0.582104    0.875527
      4          1           0       -1.126015   -0.056203   -0.870924
      5          1           0        1.392986   -1.016447    0.173610
      6          8           0        2.086982   -1.662267    2.134372
      7          1           0        2.786614   -1.147822    2.557896
      8          1           0        2.376290   -2.578923    2.232122
 ---------------------------------------------------------------------
                    Distance matrix (angstroms):
                    1          2          3          4          5
     1  C    0.000000
     2  N    1.287977   0.000000
     3  H    1.103066   2.112315   0.000000
     4  H    1.098311   2.058118   1.877858   0.000000
     5  H    1.886315   1.029480   2.230493   2.891105   0.000000
     6  O    3.585165   3.180230   3.225359   4.683439   2.177913
     7  H    4.232008   3.758700   3.893834   5.315742   2.764829
     8  H    4.232185   3.758909   3.894017   5.315934   2.765084
                    6          7          8
     6  O    0.000000
     7  H    0.966184   0.000000
     8  H    0.966184   1.523990   0.000000
 Stoichiometry    CH5NO
 Framework group  C1[X(CH5NO)]
 Deg. of freedom    18
 Full point group                 C1      NOp   1
 Largest Abelian subgroup         C1      NOp   1
 Largest concise Abelian subgroup C1      NOp   1
                         Standard orientation:                         
 ---------------------------------------------------------------------
 Center     Atomic      Atomic             Coordinates (Angstroms)
 Number     Number       Type             X           Y           Z
 ---------------------------------------------------------------------
      1          6           0        1.592862    0.462034   -0.000019
      2          7           0        1.085125   -0.721641   -0.000012
      3          1           0        0.994541    1.388731    0.000114
      4          1           0        2.685625    0.572285    0.000008
      5          1           0        0.059198   -0.636173    0.000092
      6          8           0       -1.977406    0.135544   -0.000015
      7          1           0       -2.536468   -0.065015    0.762047
      8          1           0       -2.536691   -0.064898   -0.761943
 ---------------------------------------------------------------------
 Rotational constants (GHZ):          36.3735871           3.8305877           3.5221511
 Standard basis: Aug-CC-pVDZ (5D, 7F)
 There are   120 symmetry adapted cartesian basis functions of A   symmetry.
 There are   114 symmetry adapted basis functions of A   symmetry.
   114 basis functions,   184 primitive gaussians,   120 cartesian basis functions
    13 alpha electrons       13 beta electrons
       nuclear repulsion energy        66.5610729677 Hartrees.
 NAtoms=    8 NActive=    8 NUniq=    8 SFac= 1.00D+00 NAtFMM=   60 NAOKFM=F Big=F
 Integral buffers will be    131072 words long.
 Raffenetti 1 integral format.
 Two-electron integral symmetry is turned on.
 One-electron integrals computed using PRISM.
 NBasis=   114 RedAO= T EigKep=  4.28D-04  NBF=   114
 NBsUse=   114 1.00D-06 EigRej= -1.00D+00 NBFU=   114
 Initial guess from the checkpoint file:  "/scr/Gau-24555.chk"
 B after Tr=    -0.000000   -0.000000    0.000000
         Rot=    0.999972   -0.000003   -0.000003   -0.007441 Ang=  -0.85 deg.
 ExpMin= 2.97D-02 ExpMax= 1.17D+04 ExpMxC= 4.01D+02 IAcc=3 IRadAn=         5 AccDes= 0.00D+00
 Harris functional with IExCor=  205 and IRadAn=       5 diagonalized for initial guess.
 HarFok:  IExCor=  205 AccDes= 0.00D+00 IRadAn=         5 IDoV= 1 UseB2=F ITyADJ=14
 ICtDFT=  3500011 ScaDFX=  1.000000  1.000000  1.000000  1.000000
 FoFCou: FMM=F IPFlag=           0 FMFlag=      100000 FMFlg1=           0
         NFxFlg=           0 DoJE=T BraDBF=F KetDBF=T FulRan=T
         wScrn=  0.000000 ICntrl=       500 IOpCl=  0 I1Cent=   200000004 NGrid=           0
         NMat0=    1 NMatS0=      1 NMatT0=    0 NMatD0=    1 NMtDS0=    0 NMtDT0=    0
 Petite list used in FoFCou.
 Keep R1 ints in memory in canonical form, NReq=26610029.
 Requested convergence on RMS density matrix=1.00D-08 within 128 cycles.
 Requested convergence on MAX density matrix=1.00D-06.
 Requested convergence on             energy=1.00D-06.
 No special actions if energy rises.
 SCF Done:  E(RHF) =  -170.089528010     A.U. after   12 cycles
            NFock= 12  Conv=0.26D-08     -V/T= 2.0026
 ExpMin= 2.97D-02 ExpMax= 1.17D+04 ExpMxC= 4.01D+02 IAcc=3 IRadAn=         5 AccDes= 0.00D+00
 HarFok:  IExCor=  205 AccDes= 0.00D+00 IRadAn=         5 IDoV=-2 UseB2=F ITyADJ=14
 ICtDFT= 12500011 ScaDFX=  1.000000  1.000000  1.000000  1.000000
 Range of M.O.s used for correlation:     4   114
 NBasis=   114 NAE=    13 NBE=    13 NFC=     3 NFV=     0
 NROrb=    111 NOA=    10 NOB=    10 NVA=   101 NVB=   101

 **** Warning!!: The largest alpha MO coefficient is  0.14572473D+02

 Fully direct method using O(ONN) memory.
 JobTyp=1 Pass  1:  I=   4 to  13 NPSUse= 24 ParTrn=T ParDer=T DoDerP=T.
 Spin components of T(2) and E(2):
     alpha-alpha T2 =       0.2148411289D-01 E2=     -0.6626505160D-01
     alpha-beta  T2 =       0.1301350586D+00 E2=     -0.4072225114D+00
     beta-beta   T2 =       0.2148411289D-01 E2=     -0.6626505160D-01
 ANorm=    0.1083098926D+01
 E2 =    -0.5397526146D+00 EUMP2 =    -0.17062928062458D+03
          IDoAtm=11111111
          Differentiating once with respect to electric field.
                with respect to dipole field.
          Differentiating once with respect to nuclear coordinates.
 Keep R1 ints in memory in canonical form, NReq=26613935.
          There are     1 degrees of freedom in the 1st order CPHF.  IDoFFX=0 NUNeed=     1.
 LinEq1:  Iter=  0 NonCon=     1 RMS=4.83D-03 Max=4.57D-02 NDo=     1
 AX will form     1 AO Fock derivatives at one time.
 LinEq1:  Iter=  1 NonCon=     1 RMS=1.07D-03 Max=1.05D-02 NDo=     1
 LinEq1:  Iter=  2 NonCon=     1 RMS=3.69D-04 Max=3.77D-03 NDo=     1
 LinEq1:  Iter=  3 NonCon=     1 RMS=1.11D-04 Max=1.46D-03 NDo=     1
 LinEq1:  Iter=  4 NonCon=     1 RMS=3.55D-05 Max=2.50D-04 NDo=     1
 LinEq1:  Iter=  5 NonCon=     1 RMS=1.43D-05 Max=3.04D-04 NDo=     1
 LinEq1:  Iter=  6 NonCon=     1 RMS=4.88D-06 Max=3.48D-05 NDo=     1
 LinEq1:  Iter=  7 NonCon=     1 RMS=1.41D-06 Max=1.56D-05 NDo=     1
 LinEq1:  Iter=  8 NonCon=     1 RMS=2.10D-07 Max=1.81D-06 NDo=     1
 LinEq1:  Iter=  9 NonCon=     1 RMS=2.93D-08 Max=2.18D-07 NDo=     1
 LinEq1:  Iter= 10 NonCon=     1 RMS=5.56D-09 Max=3.85D-08 NDo=     1
 LinEq1:  Iter= 11 NonCon=     1 RMS=9.55D-10 Max=8.35D-09 NDo=     1
 LinEq1:  Iter= 12 NonCon=     1 RMS=1.62D-10 Max=1.59D-09 NDo=     1
 LinEq1:  Iter= 13 NonCon=     0 RMS=2.60D-11 Max=2.28D-10 NDo=     1
 Linear equations converged to 1.000D-10 1.000D-09 after    13 iterations.
 End of Minotr F.D. properties file   721 does not exist.
 End of Minotr F.D. properties file   722 does not exist.
 End of Minotr F.D. properties file   788 does not exist.
 Calling FoFJK, ICntrl=  10002127 FMM=F ISym2X=0 I1Cent= 0 IOpClX= 0 NMat=1 NMatS=1 NMatT=0.
 ***** Axes restored to original set *****
 -------------------------------------------------------------------
 Center     Atomic                   Forces (Hartrees/Bohr)
 Number     Number              X              Y              Z
 -------------------------------------------------------------------
      1        6          -0.001514960    0.000325137    0.000550436
      2        7           0.001106514   -0.000146337   -0.000746484
      3        1           0.000211481   -0.000071265    0.000028091
      4        1           0.000154214   -0.000033628   -0.000081162
      5        1          -0.000022596   -0.000013581    0.000062103
      6        8          -0.000152651    0.000045550   -0.000002604
      7        1           0.000118274   -0.000021530    0.000102587
      8        1           0.000099724   -0.000084346    0.000087033
 -------------------------------------------------------------------
 Cartesian Forces:  Max     0.001514960 RMS     0.000441043

 GradGradGradGradGradGradGradGradGradGradGradGradGradGradGradGradGradGrad
 Berny optimization.
 Using GEDIIS/GDIIS optimizer.
 FormGI is forming the generalized inverse of G from B-inverse, IUseBI=4.
 Internal  Forces:  Max     0.001269507 RMS     0.000300234
 Search for a local minimum.
 Step number   5 out of a maximum of   32
 All quantities printed in internal units (Hartrees-Bohrs-Radians)
 Mixed Optimization -- En-DIIS/RFO-DIIS
 Swapping is turned off.
 Update second derivatives using D2CorX and points    2    3    4    5
 DE= -1.00D-04 DEPred=-7.23D-05 R= 1.39D+00
 TightC=F SS=  1.41D+00  RLast= 1.49D-01 DXNew= 1.4270D+00 4.4797D-01
 Trust test= 1.39D+00 RLast= 1.49D-01 DXMaxT set to 8.49D-01
 ITU=  1  1  1  1  0
     Eigenvalues ---    0.00230   0.00230   0.00233   0.01076   0.01237
     Eigenvalues ---    0.03128   0.03182   0.14127   0.15795   0.16007
     Eigenvalues ---    0.18393   0.21112   0.33481   0.34831   0.41962
     Eigenvalues ---    0.52975   0.53449   0.76672
 En-DIIS/RFO-DIIS/Sim-DIIS IScMMF=       -3 using points:     5    4
 RFO step:  Lambda=-2.14185308D-05.
 DidBck=F Rises=F RFO-DIIS coefs:    1.53842   -0.53842
 Iteration  1 RMS(Cart)=  0.04760045 RMS(Int)=  0.00075538
 Iteration  2 RMS(Cart)=  0.00176792 RMS(Int)=  0.00000295
 Iteration  3 RMS(Cart)=  0.00000047 RMS(Int)=  0.00000294
 Variable       Old X    -DE/DX   Delta X   Delta X   Delta X     New X
                                 (Linear)    (Quad)   (Total)
    R1        2.43392   0.00127  -0.00112   0.00299   0.00187   2.43580
    R2        2.08449  -0.00002  -0.00054   0.00006  -0.00048   2.08401
    R3        2.07551  -0.00007  -0.00042   0.00017  -0.00025   2.07526
    R4        1.94544   0.00024   0.00041  -0.00019   0.00022   1.94566
    R5        4.11566   0.00021   0.05730  -0.00743   0.04986   4.16552
    R6        1.82582   0.00012   0.00203  -0.00130   0.00074   1.82656
    R7        1.82582   0.00012   0.00203  -0.00130   0.00073   1.82656
    A1        2.16307  -0.00020  -0.00581   0.00240  -0.00341   2.15966
    A2        2.07656  -0.00007   0.00149  -0.00166  -0.00017   2.07639
    A3        2.04356   0.00027   0.00432  -0.00074   0.00358   2.04714
    A4        1.89289  -0.00030  -0.00789   0.00254  -0.00535   1.88754
    A5        2.05725   0.00007   0.00045   0.00039   0.00084   2.05809
    A6        2.05763   0.00006   0.00073   0.00020   0.00092   2.05855
    A7        1.81727  -0.00013  -0.00506   0.00282  -0.00225   1.81502
    A8        2.86250  -0.00008  -0.05438  -0.00844  -0.06282   2.79968
    A9        3.14143   0.00000  -0.00015   0.00123   0.00108   3.14251
    D1        0.00004  -0.00000   0.00002  -0.00024  -0.00022  -0.00017
    D2        3.14146   0.00001  -0.00011   0.00058   0.00047  -3.14126
    D3        3.14141   0.00001  -0.00013   0.00080   0.00068  -3.14109
    D4       -1.99463  -0.00001   0.00546   0.00397   0.00943  -1.98521
    D5        1.99463   0.00001  -0.00539  -0.00408  -0.00947   1.98516
    D6       -2.31687  -0.00002   0.00345  -0.00329   0.00016  -2.31672
         Item               Value     Threshold  Converged?
 Maximum Force            0.001270     0.000450     NO 
 RMS     Force            0.000300     0.000300     NO 
 Maximum Displacement     0.108443     0.001800     NO 
 RMS     Displacement     0.048815     0.001200     NO 
 Predicted change in Energy=-1.078260D-05
 GradGradGradGradGradGradGradGradGradGradGradGradGradGradGradGradGradGrad

                          Input orientation:                          
 ---------------------------------------------------------------------
 Center     Atomic      Atomic             Coordinates (Angstroms)
 Number     Number       Type             X           Y           Z
 ---------------------------------------------------------------------
      1          6           0       -0.352499   -0.439803   -0.159919
      2          7           0        0.820763   -0.666188   -0.643288
      3          1           0       -0.621766   -0.604108    0.896819
      4          1           0       -1.138774   -0.062001   -0.827031
      5          1           0        1.420255   -1.012416    0.118821
      6          8           0        2.063070   -1.653772    2.127398
      7          1           0        2.754700   -1.140851    2.566516
      8          1           0        2.344564   -2.571390    2.241423
 ---------------------------------------------------------------------
                    Distance matrix (angstroms):
                    1          2          3          4          5
     1  C    0.000000
     2  N    1.288968   0.000000
     3  H    1.102812   2.111083   0.000000
     4  H    1.098181   2.058784   1.879583   0.000000
     5  H    1.883677   1.029599   2.223027   2.889041   0.000000
     6  O    3.541259   3.193016   3.134401   4.638339   2.204298
     7  H    4.192803   3.777335   3.804800   5.276288   2.790780
     8  H    4.193359   3.778005   3.804902   5.276940   2.791091
                    6          7          8
     6  O    0.000000
     7  H    0.966574   0.000000
     8  H    0.966573   1.523265   0.000000
 Stoichiometry    CH5NO
 Framework group  C1[X(CH5NO)]
 Deg. of freedom    18
 Full point group                 C1      NOp   1
 Largest Abelian subgroup         C1      NOp   1
 Largest concise Abelian subgroup C1      NOp   1
                         Standard orientation:                         
 ---------------------------------------------------------------------
 Center     Atomic      Atomic             Coordinates (Angstroms)
 Number     Number       Type             X           Y           Z
 ---------------------------------------------------------------------
      1          6           0        1.559325    0.479110    0.000088
      2          7           0        1.111038   -0.729393   -0.000048
      3          1           0        0.912533    1.372337   -0.000542
      4          1           0        2.645112    0.643636    0.000386
      5          1           0        0.082201   -0.689797   -0.000656
      6          8           0       -1.964544    0.128595    0.000025
      7          1           0       -2.528009   -0.062219    0.761840
      8          1           0       -2.528702   -0.061621   -0.761425
 ---------------------------------------------------------------------
 Rotational constants (GHZ):          35.2800222           3.8818716           3.5546059
 Standard basis: Aug-CC-pVDZ (5D, 7F)
 There are   120 symmetry adapted cartesian basis functions of A   symmetry.
 There are   114 symmetry adapted basis functions of A   symmetry.
   114 basis functions,   184 primitive gaussians,   120 cartesian basis functions
    13 alpha electrons       13 beta electrons
       nuclear repulsion energy        66.6310358742 Hartrees.
 NAtoms=    8 NActive=    8 NUniq=    8 SFac= 1.00D+00 NAtFMM=   60 NAOKFM=F Big=F
 Integral buffers will be    131072 words long.
 Raffenetti 1 integral format.
 Two-electron integral symmetry is turned on.
 One-electron integrals computed using PRISM.
 NBasis=   114 RedAO= T EigKep=  4.31D-04  NBF=   114
 NBsUse=   114 1.00D-06 EigRej= -1.00D+00 NBFU=   114
 Initial guess from the checkpoint file:  "/scr/Gau-24555.chk"
 B after Tr=    -0.000000    0.000000    0.000000
         Rot=    0.999990   -0.000036   -0.000005   -0.004412 Ang=  -0.51 deg.
 ExpMin= 2.97D-02 ExpMax= 1.17D+04 ExpMxC= 4.01D+02 IAcc=3 IRadAn=         5 AccDes= 0.00D+00
 Harris functional with IExCor=  205 and IRadAn=       5 diagonalized for initial guess.
 HarFok:  IExCor=  205 AccDes= 0.00D+00 IRadAn=         5 IDoV= 1 UseB2=F ITyADJ=14
 ICtDFT=  3500011 ScaDFX=  1.000000  1.000000  1.000000  1.000000
 FoFCou: FMM=F IPFlag=           0 FMFlag=      100000 FMFlg1=           0
         NFxFlg=           0 DoJE=T BraDBF=F KetDBF=T FulRan=T
         wScrn=  0.000000 ICntrl=       500 IOpCl=  0 I1Cent=   200000004 NGrid=           0
         NMat0=    1 NMatS0=      1 NMatT0=    0 NMatD0=    1 NMtDS0=    0 NMtDT0=    0
 Petite list used in FoFCou.
 Keep R1 ints in memory in canonical form, NReq=26610185.
 Requested convergence on RMS density matrix=1.00D-08 within 128 cycles.
 Requested convergence on MAX density matrix=1.00D-06.
 Requested convergence on             energy=1.00D-06.
 No special actions if energy rises.
 SCF Done:  E(RHF) =  -170.089432135     A.U. after   11 cycles
            NFock= 11  Conv=0.82D-08     -V/T= 2.0026
 ExpMin= 2.97D-02 ExpMax= 1.17D+04 ExpMxC= 4.01D+02 IAcc=3 IRadAn=         5 AccDes= 0.00D+00
 HarFok:  IExCor=  205 AccDes= 0.00D+00 IRadAn=         5 IDoV=-2 UseB2=F ITyADJ=14
 ICtDFT= 12500011 ScaDFX=  1.000000  1.000000  1.000000  1.000000
 Range of M.O.s used for correlation:     4   114
 NBasis=   114 NAE=    13 NBE=    13 NFC=     3 NFV=     0
 NROrb=    111 NOA=    10 NOB=    10 NVA=   101 NVB=   101

 **** Warning!!: The largest alpha MO coefficient is  0.14517732D+02

 Fully direct method using O(ONN) memory.
 JobTyp=1 Pass  1:  I=   4 to  13 NPSUse= 24 ParTrn=T ParDer=T DoDerP=T.
 Spin components of T(2) and E(2):
     alpha-alpha T2 =       0.2149694751D-01 E2=     -0.6627299961D-01
     alpha-beta  T2 =       0.1302337177D+00 E2=     -0.4073178649D+00
     beta-beta   T2 =       0.2149694751D-01 E2=     -0.6627299961D-01
 ANorm=    0.1083156320D+01
 E2 =    -0.5398638641D+00 EUMP2 =    -0.17062929599913D+03
          IDoAtm=11111111
          Differentiating once with respect to electric field.
                with respect to dipole field.
          Differentiating once with respect to nuclear coordinates.
 Keep R1 ints in memory in canonical form, NReq=26614013.
          There are     1 degrees of freedom in the 1st order CPHF.  IDoFFX=0 NUNeed=     1.
 LinEq1:  Iter=  0 NonCon=     1 RMS=4.83D-03 Max=4.67D-02 NDo=     1
 AX will form     1 AO Fock derivatives at one time.
 LinEq1:  Iter=  1 NonCon=     1 RMS=1.07D-03 Max=1.04D-02 NDo=     1
 LinEq1:  Iter=  2 NonCon=     1 RMS=3.69D-04 Max=3.85D-03 NDo=     1
 LinEq1:  Iter=  3 NonCon=     1 RMS=1.11D-04 Max=1.44D-03 NDo=     1
[...]
 174,0.00005653,-0.00006942,-0.00004138,-0.00012217,0.00008688,0.000317
 76,0.00070881,-0.00017124,-0.00021063,-0.00045117,0.00004966,0.0002620
 1,-0.00008500,-0.00002912,0.00021018,-0.00003759,0.00005917,-0.0001876
 7,0.00003520,-0.00006312,0.00015738,-0.00004086,0.00005584,0.00016293,
 0.00003622,0.00000892,-0.00004833,-0.00004501,-0.00002382,0.00005530,-
 0.00001729,-0.00000668,0.00003322,0.00002079,-0.00000458,-0.00000897,0
 .00000602,-0.00001157,0.00000688,0.00003828,0.00009827,-0.00004867,-0.
 00004942,-0.00005170,0.00001242,0.00012025,0.00009601,0.00000061,-0.00
 001925,-0.00008163,0.00002596,-0.00009312,0.00000310,-0.00000544,-0.00
 000214,-0.00000916,0.00002299,-0.00004182,-0.00004353,-0.00011609,0.00
 000870,0.00001172,0.00005397,-0.00000839,-0.00005118,0.00004866,-0.000
 05941,0.00001105,-0.00002923,0.00000676,0.00000112,-0.00004032,0.00001
 107,0.00001211,-0.00001360,0.00005399,-0.00002411,0.00005047,-0.000006
 77,0.00016958,-0.00017380,0.00001931,-0.00004223,0.00012005,0.00005888
 ,0.00000869,-0.00010580,-0.00006347,0.00003250,0.00007171,0.00002158,-
 0.00003122,0.00007676,0.00001472,-0.00000337,-0.00000539,0.00000967,0.
 00000501,0.00002618,-0.00001394,-0.00011152,-0.00008071,0.00001042,0.0
 0007519,-0.00001656,-0.00003786,0.00002728,0.00001778,-0.00008427,-0.0
 0002552,0.00000864,-0.00000089,0.00005902,-0.00005035,0.00006286,-0.00
 001704,0.00000304,0.00001187,-0.00001540,0.00000713,0.00000986,0.00001
 920,-0.00001920,0.00009010,-0.00007226,0.00000558,-0.00007635,0.000024
 71,0.00002739,0.00003125,0.00003545,0.00002264,-0.00007538,0.00004277,
 -0.00001922,0.00004018,-0.00001268,-0.00000459,-0.00000010,-0.00000957
 ,-0.00001497,0.00005136,-0.00002540,0.00006129,-0.00007239,-0.00008698
 ,-0.00022040,-0.00000873,0.00006962,0.00003777,0.00003382,-0.00001320,
 0.00013747,-0.03068515,-0.16686561,-0.41731458,0.00362785,-0.64655143,
 2.25258137,-0.00075467,-0.00339015,-0.00278280,-0.00068602,-0.00078904
 ,-0.01442014,-0.00284194,-0.00204612,0.00050909,-0.01513335,0.00065078
 ,0.00028254,0.01025878,0.00177529,-0.01952331,0.39353774,-0.06208002,0
 .37451317,-0.00167496,0.00062174,0.01353997,-0.40121061,-0.06117596,0.
 38235918,0.47481520,0.00641998,0.00998898,-0.00420026,0.05481660,-0.39
 948253,0.37068575,0.47587076,-2.10871809,-0.01240794,0.00326760,0.0120
 3170,-0.35852589,-0.48072901,2.09463159,-0.35755858,0.23031693,-0.3801
 7528,0.00213409,-0.00020299,-0.00076867,0.00771694,0.00136499,0.003215
 91,0.34711506,0.22565825,0.04385813,0.17472662,-0.00195907,0.00134790,
 0.00041603,0.00795289,0.01227372,0.00171045,-0.23144818,-0.05763944,-0
 .35929470,0.16880025,-0.14506520,0.00684510,-0.00182013,0.00038547,-0.
 02618672,0.01010887,0.00327040,0.37812584,-0.17725037,0.14257887,-0.00
 395517,0.00212045,0.00379175,0.00056591,0.00248970,-0.00761475,0.00225
 729,-0.00193067,-0.00194128,0.00059297,-0.00021603,0.00053402,0.000562
 73,0.00303301,0.00563786,0.00011396,0.00092893,0.00264630,0.00132367,-
 0.00163243,-0.00529301,-0.00049840,-0.00000931,0.00013976,0.00013073,-
 0.00226981,-0.00308453,0.00016200,0.00117773,0.00121739,-0.00110894,-0
 .00055930,0.00666410,-0.00313658,-0.00013427,-0.00118670,-0.00051855,0
 .00040967,-0.00108703,0.00453248,-0.00066578,-0.00638005,-0.00061506,-
 0.00012949,0.00107847,0.00055593,-0.00008833,-0.00035175,-0.00034487,0
 .00044357,-0.00095222,-0.00004431,0.00003137,-0.00002268,-0.00012049,-
 0.00000861,-0.00004020,-0.00021190,0.00009740,-0.00018690,-0.00029672,
 0.00002964,-0.00003474,0.00001948,0.00024744,0.00029420,0.00039128,-0.
 00001176,0.00004249,0.00003207,-0.00017127,-0.00010332,-0.00015129,0.0
 0003308,0.00000297,0.00007008,0.00000225,-0.00031081,-0.00087660,0.000
 16406,0.00034568,-0.00008450,0.00013751,-0.00004718,0.00016622,-0.0000
 2385,-0.00006490,0.00068237,-0.00035784,0.00054344,0.00011623,-0.00010
 126,0.00028175,0.00000385,0.00004427,-0.00002138,-0.00006440,0.0000014
 3,0.00003339,-0.00013304,0.00011925,-0.00000894,0.00002382,-0.00001509
 ,-0.00001350,0.00003824,-0.00003548,0.00004655,0.00033974,-0.00033381,
 -0.00011351,-0.00021208,-0.00004291,0.00005481,0.00002420,0.00003647,-
 0.00001441,0.00000624,-0.00003284,-0.00010444,0.00000805,0.00000948,-0
 .00000450,-0.00004063,-0.00002564,0.00005170,-0.00005164,-0.00007311,0
 .00007318,0.00001767,0.00015747,-0.00013161,-0.00008855,-0.00002400,-0
 .00000559,0.00002752,-0.00003590,-0.00010248,-0.00004667,0.00009430,0.
 00003553,-0.00001857,0.00000839,-0.00001766,-0.00000664,-0.00006214,0.
 00010312,0.00008528,0.00001599,-0.00040343,0.00003808,0.00001359,0.000
 36484,0.00002705,-0.00001639,-0.00003178,-0.00007589,0.00001361,0.0000
 3639,-0.00014849,-0.00005776,-0.00006539,0.00002001,-0.00000414,0.0000
 1264,0.00005852,-0.00000629,0.00006323,0.00044096,0.00010930,0.0000397
 2,0.00000387,-0.00002893,0.00000955,-0.00032603,0.00008485,0.00001165,
 0.00001010,-0.00001968,-0.00002297,0.00000878,0.00010662,-0.00003608,-
 0.00002072,-0.00001916,-0.00001805,0.00003920,0.00000327,0.00000525,-0
 .00002512,-0.00020847,-0.00008787,0.00016146,0.00006196,0.00007528,-0.
 00001022,-0.00000939,0.00007281,-0.00002908,0.00007366,0.00001839,0.00
 004489,0.00005031,-0.00008370,-0.00007279,-0.00009234,-0.00001727,-0.0
 0002691,0.00000307,0.00000004,0.00002204,0.00001581,0.00012573,0.00008
 688,0.00009046,-0.00034456,0.00003932,0.00002252,0.00002566,-0.0000643
 5,-0.00016349,0.00027570,1.07634253,-0.74840692,-0.33869543,1.05226796
 ,-0.69634424,1.04393217,0.05448792,-0.00767361,-0.04953276,-0.04814561
 ,-0.01177646,-0.01073304,0.00992428,0.00521077,0.00314265,-0.03215853,
 0.00491091,0.00640267,0.04200558,-0.00614507,-0.02174081,0.16146769,-0
 .03507841,0.19283360,-0.00698491,0.00116546,0.00424296,-0.14933751,-0.
 03313261,0.16350842,0.16410133,0.00360942,-0.00028503,-0.00268535,0.03
 381644,-0.16169056,0.18439067,0.16647694,-0.78127468,-0.00683202,0.000
 52622,0.00637347,-0.19915930,-0.16011162,0.77477719,-1.28468852,0.7915
 7965,-1.19932315,-0.00036884,-0.00092122,0.00351768,-0.00604067,-0.004
 37900,0.02214553,1.28659694,0.79314942,0.19153625,0.52437412,-0.005491
 67,0.00117408,-0.00155296,-0.00012918,-0.00223785,-0.00754858,-0.78681
 242,-0.19461558,-1.20607534,0.52635749,-0.26736728,0.02361698,-0.00736
 244,0.00205300,0.00311173,-0.00211886,0.00140632,1.17618282,-0.5173070
 1,0.26543377,-0.00744328,-0.00036154,0.00349415,0.00111000,0.00632046,
 -0.01761466,0.00129263,-0.00008070,-0.00045129,0.00408023,-0.00064599,
 0.00330719,0.00101627,0.00048798,-0.00553836,-0.00205351,0.00403405,0.
 00685084,0.00556148,0.00001108,0.00067351,0.00055973,0.00055176,0.0040
 8821,0.00039605,-0.00505555,-0.00605748,0.00016055,-0.00107449,-0.0011
 8579,-0.00790009,0.00276106,0.00660277,-0.00073263,0.00066213,-0.00109
 192,-0.00214496,0.00193371,-0.00161372,0.01055962,-0.00404694,-0.00356
 637,-0.00042270,-0.00000582,0.00026759,0.00005219,-0.00003164,-0.00003
 687,-0.00027872,0.00013640,-0.00005457,0.00042480,-0.00005436,-0.00018
 571,-0.00007005,-0.00004819,0.00007656,0.00022513,-0.00031649,-0.00014
 294,-0.00001150,0.00026886,-0.00013808,-0.00008698,0.00019103,0.000078
 23,0.00010624,0.00000550,0.00007793,0.00002840,-0.00018992,-0.00007645
 ,-0.00021804,0.00007308,0.00036860,0.00164268,-0.00039740,-0.00054585,
 -0.00137033,0.00028939,0.00035822,-0.00029159,0.00017032,-0.00023261,-
 0.00045516,0.00010411,0.00019682,0.00070690,-0.00039813,0.00069722,-0.
 00010462,0.00000788,0.00048164,0.00009873,0.00002534,0.00002723,-0.000
 04347,-0.00001294,0.00001309,-0.00004883,0.00001851,-0.00001282,-0.000
 00774,-0.00001466,0.00000524,-0.00001183,0.00000933,-0.00003392,0.0000
 2145,-0.00003265,-0.00008983,-0.00004617,-0.00015511,0.00004035,0.0000
 7928,0.00015818,-0.00002040,-0.00001503,0.00003964,-0.00004189,0.00000
 769,-0.00002008,0.00000826,-0.00004234,-0.00004438,0.00007847,-0.00008
 206,-0.00006512,-0.00007852,0.00003456,0.00005703,-0.00001267,-0.00014
 144,0.00005322,0.00003837,0.00001713,-0.00006121,-0.00004081,0.0000108
 7,0.00001246,0.00002947,0.00003187,-0.00001236,-0.00006781,-0.00002811
 ,-0.00005758,0.00005033,0.00004509,0.00020393,-0.00046878,0.00005628,-
 0.00004216,0.00038550,0.00015764,-0.00007870,-0.00003462,-0.00010728,0
 .00004558,0.00003075,-0.00006967,0.00001153,-0.00002620,0.00000380,-0.
 00000114,0.00003709,0.00002603,0.00000955,0.00001487,0.00004791,0.0000
 0059,-0.00003805,0.00003785,0.00002983,0.00000831,-0.00009628,0.000150
 20,0.00002474,-0.00006976,-0.00011600,0.00000898,0.00001300,-0.0000160
 6,-0.00000482,-0.00001661,-0.00000419,-0.00003129,0.00004869,0.0000576
 2,-0.00001874,0.00006463,-0.00000435,-0.00008876,0.00018928,-0.0000499
 7,0.00002639,-0.00009630,-0.00001725,0.00008350,-0.00008655,0.00001758
 ,0.00000038,-0.00000449,0.00006776,-0.00000851,-0.00001563,-0.00003042
 ,0.00001275,0.00004537,0.00000897,-0.00004110,0.00002619,0.00003890,0.
 00010747,-0.00000747,-0.00002993,-0.00048666,0.00003472,0.00006007,0.0
 0007374,0.00000785,-0.00013294,0.00034191,-0.01577353,0.00210407,-0.00
 493534,0.00519168,0.00077441,-0.01320894,0.03732637,-0.01206156,-0.011
 93367,1.36157390,-0.00389342,-0.01443217,0.00356584,-1.23856804,-0.294
 39939,-0.04899589,0.01413267,-0.01597762,2.55782337,-1.34116732,1.7518
 0672,0.00206567,-0.00099540,0.00456587,-0.00220128,0.00239476,0.003757
 78,-0.00598074,-0.00070718,0.00256981,0.00003826,0.00258636,0.00786825
 ,0.00102072,0.00159859,-0.00111218,0.00348026,0.00031069,-0.00354730,0
 .00265524,0.00138189,-0.00076129,-0.00064182,-0.00113572,0.00515292,-0
 .00388960,0.00338701,-0.00540243,-0.00238876,-0.00104773,-0.00415387,-
 0.00007797,0.00007881,-0.00020612,0.00129946,0.00261205,0.00281120,0.0
 0081807,-0.00165597,-0.00855778,-0.00101848,0.00000844,-0.00007076,0.0
 0006744,-0.00210055,-0.00221246,-0.00173899,-0.00018044,0.00653369,-0.
 00163016,-0.00179980,0.00090682,-0.00008417,0.00001642,-0.00008362,0.0
 0388115,-0.00095965,-0.00353990,-0.02058981,0.00768012,0.00833239,-1.3
 9344669,1.24042456,-2.50725645,0.00622769,-0.00347572,-0.00579566,0.00
 525541,0.00118791,-0.00064431,1.40195855,0.00044592,0.01419198,-0.0062
 0357,1.24908669,0.30932512,1.32593415,-0.00325394,-0.00939067,-0.00009
 770,-0.00068939,0.00826389,0.00328075,-1.24477292,-0.32215002,0.040868
 79,-0.01548078,0.02980812,-2.54608397,1.33701808,-1.73322696,-0.006665
 25,0.00017009,-0.00251908,0.00752467,0.00091822,-0.00490540,2.50268846
 ,-1.32082819,1.70593716,0.00087727,-0.00017520,-0.00055632,-0.00135286
 ,0.00090322,-0.00140347,-0.00011143,-0.00001849,0.00032186,-0.00021390
 ,-0.00002608,0.00012136,0.00147198,-0.00144127,0.00253657,-0.00203388,
 -0.00043870,-0.00020841,0.00071580,0.00072370,0.00023671,0.00110468,0.
 00026416,0.00008122,-0.00034599,0.00030070,-0.00023598,-0.00026586,-0.
 00149685,-0.00081041,-0.00139064,0.00213987,0.00311798,0.00059848,0.00
 038573,-0.00262542,-0.00062361,0.00088504,-0.00242715,-0.00091769,0.00
 000969,0.00119991,-0.00131632,0.00014388,0.00080808,0.00280758,-0.0015
 0792,0.00153108,-0.00195747,0.00054028,0.00391692,-0.00003012,0.000002
 09,-0.00009243,0.00036458,-0.00019104,0.00020722,0.00006495,-0.0000480
 9,0.00009562,0.00003192,-0.00000470,0.00005066,-0.00052447,0.00091122,
 -0.00106967,0.00016757,-0.00192915,0.00096891,-0.00021877,-0.00010532,
 0.00001569,0.00019550,0.00038351,-0.00023006,0.00033689,0.00008976,0.0
 0000641,-0.00007565,0.00010593,-0.00001425,-0.00004536,-0.00044800,0.0
 0102558,-0.00268336,-0.00133007,-0.00117900,0.00157731,0.00115870,-0.0
 0016053,0.00028262,0.00001429,-0.00048587,0.00001684,0.00007789,-0.000
 07117,0.00000577,-0.00009615,0.00027656,-0.00015936,-0.00002704,0.0001
 3217,-0.00033516,-0.00053082,0.00103446,0.00056503,0.00065573,-0.00057
 959,-0.00027780,0.00025021,-0.00066085,0.00001375,0.00005886,-0.000105
 09,0.00012473,-0.00002232,0.00002132,0.00001311,-0.00001428,0.00009063
 ,-0.00001657,-0.00002110,0.00004446,-0.00035267,-0.00028632,0.00020040
 ,0.00119526,0.00043627,0.00044013,0.00014435,0.00014548,-0.00009795,-0
 .00112198,-0.00001743,-0.00001276,0.00009568,-0.00049471,0.00018932,-0
 .00034332,-0.00010637,0.00004793,-0.00010496,-0.00003477,0.00001615,-0
 .00004606,0.00090089,-0.00045546,0.00227659,-0.00005199,-0.00100211,-0
 .00203402,0.00010097,0.00053616,-0.00034412,-0.00029660,0.00068077,0.0
 0031304,0.00004342,-0.00049667,-0.00022403,0.00003838,-0.00024935,-0.0
 0002050,-0.00002332,0.00028191,-0.00016771,0.00005757,0.00014817,0.000
 20314,-0.00004669,0.00234062,0.00037246,-0.00101401,-0.00182381,0.0001
 1749,0.00044445,0.00035428,-0.00059389,0.00050021,-0.00055513,0.000642
 86,-0.00017169,0.00033078,0.00012620,0.00014882,0.00046540,-0.00042803
 ,0.00018758,0.00036676,0.00028865,0.00005849,0.00004687,-0.00019599,-0
 .00030576,-0.00036940,0.00011321,-0.00016538,-0.00014432,0.00032902,0.
 00005912,-0.00006873,-0.00019930,-0.00001752,-0.00008609,0.00001917,0.
 00008845,0.00000497,0.00018941,0.00006399,-0.00015885,0.00001438,0.000
 08642,0.00003373,-0.00007839,-0.00002191,0.00013249,-0.00026177,0.0000
 2551,-0.00004641,-0.00022566,0.00003044,0.00008904,0.00006117,0.000097
 81,-0.00015399,-0.00029750,0.00002817,-0.00001441,0.00016040,-0.000052
 71,0.00000276,0.00009013,-0.00001099,0.00006501,0.00011105,0.00009139,
 -0.00016319,-0.00010091,-0.00007864,0.00004495,0.00008043,-0.00002916,
 0.00002325,-0.00000039,0.00000444,0.00007305,-0.00006966,-0.00003501,-
 0.00013089,-0.00005878,0.00004006,0.00005539,-0.00004452,0.00001459,-0
 .00005781,0.00000044,0.00003869,0.00006849,0.00025063,-0.00005189,-0.0
 0028265,0.00000831,0.00030206,-0.00058336,-0.00006558,-0.00005562,0.00
 018151,-0.00003141,0.00001547,0.00008059,-0.00040993,-0.00011497,-0.00
 007084,0.00017461,0.00018939,0.00044203,0.00022943,0.00000105,0.000056
 60,-0.00010359,0.00003062,-0.00000484,-0.00005245,-0.00016815,-0.00074
 647,0.00042184,-0.00000021,-0.00048197,-0.00050268,0.00018477,-0.00006
 829,0.00006032,-0.00004661,0.00027814,-0.00012589,-0.00001669,0.000128
 47,0.00029606,-0.00024829,0.00016968,0.00004261,-0.00000710,-0.0000919
 0,0.00004584,-0.00002009,0.00001163,0.00003625,-0.00016595,0.00016236,
 -0.00001604,0.00000858,0.00004889,-0.00037739,0.00002653,-0.00010641,0
 .59963208,0.00001696,-0.00005453,-0.00004300,-0.00004664,0.00001657,-0
 .00006788,-0.00013725,-0.00033970,-0.00011782,0.00001425,0.00004411,0.
 00001105,-0.00018428,-0.00026437,-0.00023530,0.50961847,3.44167063,-0.
 00020776,-0.00000293,0.00023224,0.00011996,-0.00010232,0.00027958,0.00
 004742,-0.00009078,-0.00008533,0.00002189,0.00001771,-0.00005890,0.000
 83306,-0.00049709,0.00078277,1.63372288,0.37352712,0.00530811,0.000047
 37,0.00009884,0.00002761,-0.00005716,-0.00004342,0.00003657,0.00000864
 ,-0.00015759,-0.00000559,-0.00001645,0.00000598,0.00001651,0.00025674,
 0.00000038,0.00009508,-1.04940754,-1.40611714,-1.43217045,1.02188450,0
 .00010133,-0.00005876,0.00004288,-0.00003483,-0.00008401,-0.00010055,0
 .00039745,0.00006703,0.00013240,-0.00004072,0.00001339,-0.00003046,-0.
 00010734,0.00028845,0.00059542,-1.33809108,-0.46523220,-1.10802200,1.3
 9702832,0.51793134,-0.00000354,0.00013463,0.00009391,-0.00001609,0.000
 00793,-0.00008582,0.00005162,0.00001256,0.00000737,0.00000595,-0.00004
 422,-0.00001642,-0.00034717,0.00009770,-0.00034238,-1.43214299,-1.1638
 2357,-0.50799744,1.43900774,1.15572592,0.47701774,-0.00005865,-0.00006
 640,-0.00004551,-0.00003719,-0.00002703,0.00008521,-0.00007872,0.00026
 166,0.00002297,-0.00000018,-0.00001806,0.00002654,0.00036863,0.0000351
 6,-0.00013830,0.45004419,0.89683564,-0.20236700,0.02728390,-0.05925313
 ,-0.00655552,-0.47752197,-0.00004549,0.00012851,-0.00004080,0.00000248
 ,-0.00013074,0.00004321,-0.00028110,0.00018545,-0.00006437,0.00002693,
 -0.00003072,0.00001354,0.00024976,0.00029945,-0.00023309,0.82863063,-2
 .97584049,0.73517030,0.00918463,-0.05292525,0.00788904,-0.83776783,3.0
 2831379,-0.00011851,-0.00010544,0.00001204,-0.00001251,-0.00002401,-0.
 00005685,-0.00009489,0.00007644,-0.00003100,0.00004425,0.00002536,0.00
 001167,-0.00017802,0.00039968,-0.00046642,-0.20160446,0.79074940,0.501
 53896,-0.00700747,-0.04834362,0.03132304,0.20897161,-0.74277782,-0.532
 33143,-0.00022371,0.00021481,0.00022630,-0.00041126,0.00040363,0.00007
 952,0.00012639,0.00009548,-0.00005915,0.00004324,-0.00013147,-0.000021
 57,-0.00010645,-0.00003990,0.00009417,0.00012235,-0.00020033,-0.000104
 28,0.00016633,0.00013056,0.00037449,0.00000034,-0.00012790,0.00006583,
 0.00003273,0.00007482,-0.00004736,-0.00015052,-0.00011996,-0.00016042,
 -0.00004187,0.00001146,-0.00002159,-0.00007223,0.00015640,0.00022428,0
 .00021694,-0.00012394,-0.00005791,-0.00000628,-0.00004104,0.00005344,-
 0.00011186,0.00012102,0.00010992,0.00009817,-0.00007784,0.00010958,-0.
 00010310,0.00000279,0.00002795,-0.00003174,0.00006180,-0.00009970,0.00
 000992,-0.00003374,0.00000273,-0.00013666,-0.00003635,-0.00001273,0.00
 006175,0.00000844,0.00000554,0.00004378,0.00002721,-0.00000810,0.00013
 855,-0.00009523,-0.00000675,0.00002522,0.00000434,0.00005728,-0.000053
 02,0.00001427,-0.00004237,-0.00006381,0.00005213,0.00001855,0.00004026
 ,-0.00010389,0.00015217,-0.00010440,0.00004017,-0.00014254,-0.00009055
 ,0.00002986,-0.00005729,0.00001066,0.00003436,-0.00002561,0.00033915,0
 .00006933,-0.00011039,-0.00010416,-0.00007356,-0.00010937,-0.00001560,
 0.00002051,0.00009756,0.00006600,-0.00001405,0.00001588,0.00002240,0.0
 0002526,0.00035358,-0.00018914,0.00001982,0.00015530,-0.00005608,-0.00
 006133,-0.00022697,0.00011197,0.00004033,-0.00008597,0.00004994,-0.000
 02250,-0.00004391,0.00007102,0.00017788,-0.00017291,-0.00012168,-0.000
 09094,0.00040570,0.00025591,0.00013023,-0.00033390,0.00020461,-0.00011
 099,-0.00007932,0.00009433,-0.00000062,-0.00008864,-0.00089723,0.00006
 073,-0.00014246,0.64282873,-0.00005313,-0.00009292,-0.00005008,0.00004
 180,0.00040752,0.00014301,-0.00011244,-0.00019347,-0.00003536,-0.00000
 696,0.00001855,0.00000919,-0.00002687,-0.00073881,-0.00023937,0.436748
 03,3.39054875,0.00024110,0.00000331,-0.00043298,0.00004697,0.00003503,
 0.00024175,-0.00005451,-0.00004712,0.00002672,-0.00006613,0.00000133,0
 .00009224,0.00024097,-0.00034682,0.00043102,1.80025550,0.31099801,-0.0
 0765078,0.00007846,0.00012834,-0.00011248,-0.00014893,-0.00021661,0.00
 008393,0.00000599,-0.00013011,0.00004318,-0.00003451,0.00001824,0.0000
 4041,0.00031502,0.00006715,0.00014725,-1.12227303,-1.41216327,-1.55829
 256,1.12041539,0.00006594,0.00002866,0.00000486,0.00010063,-0.00015213
 ,0.00005136,0.00006175,0.00004468,-0.00001274,0.00000053,-0.00001252,0
 .00000447,-0.00022703,0.00028415,0.00020537,-1.41204293,-0.35547620,-1
 .17020670,1.41129028,0.34738552,-0.00003322,0.00004668,0.00019416,-0.0
 0004734,-0.00001473,-0.00018920,0.00005316,-0.00003433,-0.00000767,0.0
 0001440,-0.00002177,-0.00004016,-0.00022094,-0.00006394,-0.00003075,-1
 .55774788,-1.16969653,-0.53565629,1.55347163,1.16930016,0.53556659,0.0
 0000177,-0.00003805,-0.00015039,-0.00010185,0.00013997,0.00012324,0.00
 002913,0.00010153,0.00009431,-0.00004373,-0.00001753,0.00002690,0.0003
 8709,-0.00015536,0.00000750,0.47990834,0.97557282,-0.24237133,0.001641
 61,0.00075083,0.00451019,-0.48182235,-0.00001178,0.00012760,0.00003073
 ,-0.00009956,-0.00018431,-0.00009852,-0.00008159,0.00000342,-0.0000177
 3,0.00000652,-0.00000936,-0.00001157,0.00022814,0.00020739,-0.00012021
 ,0.97530649,-3.03447342,0.85956296,0.00100598,0.00789784,0.00048445,-0
 .97635420,3.02643083,-0.00008532,-0.00005394,0.00017296,-0.00006966,0.
 00005362,-0.00020651,0.00003578,0.00001992,0.00000383,0.00002777,0.000
 02193,-0.00003487,-0.00001779,0.00026425,-0.00002581,-0.24226899,0.858
 87113,0.54294831,0.00461863,0.00065321,0.00016331,0.23775958,-0.859830
 12,-0.54302122\\@
 The archive entry for this job was punched.


 A HARD FALL SHOULD MEAN A HIGH BOUNCE 
 IF ONE IS MADE OF THE RIGHT MATERIAL.

                -- THE CHEMIST ANALYST, MARCH 1950
 Job cpu time:       0 days  5 hours  2 minutes  7.1 seconds.
 Elapsed time:       0 days  0 hours 12 minutes 50.2 seconds.
 File lengths (MBytes):  RWF=    879 Int=      0 D2E=      0 Chk=     41 Scr=      1
 Normal termination of Gaussian 16 at Fri Apr  4 13:06:28 2025.
