 Entering Gaussian System, Link 0=g16
 Input=imine_nh3_mp2_avdz_opt_anharm.gjf
 Output=imine_nh3_mp2_avdz_opt_anharm.log
 Initial command:
 /sw/contrib/chem-src/g16/c01/g16/l1.exe "/scr/Gau-79907.inp" -scrdir="/scr/"
 Entering Link 1 = /sw/contrib/chem-src/g16/c01/g16/l1.exe PID=     79932.
  
 Copyright (c) 1988-2019, Gaussian, Inc.  All Rights Reserved.
  
 This is part of the Gaussian(R) 16 program.  It is based on
 the Gaussian(R) 09 system (copyright 2009, Gaussian, Inc.),
 the Gaussian(R) 03 system (copyright 2003, Gaussian, Inc.),
 the Gaussian(R) 98 system (copyright 1998, Gaussian, Inc.),
 the Gaussian(R) 94 system (copyright 1995, Gaussian, Inc.),
 the Gaussian 92(TM) system (copyright 1992, Gaussian, Inc.),
 the Gaussian 90(TM) system (copyright 1990, Gaussian, Inc.),
 the Gaussian 88(TM) system (copyright 1988, Gaussian, Inc.),
 the Gaussian 86(TM) system (copyright 1986, Carnegie Mellon
 University), and the Gaussian 82(TM) system (copyright 1983,
 Carnegie Mellon University). Gaussian is a federally registered
 trademark of Gaussian, Inc.
  
 This software contains proprietary and confidential information,
 including trade secrets, belonging to Gaussian, Inc.
  
 This software is provided under written license and may be
 used, copied, transmitted, or stored only in accord with that
 written license.
  
 The following legend is applicable only to US Government
 contracts under FAR:
  
                    RESTRICTED RIGHTS LEGEND
  
 Use, reproduction and disclosure by the US Government is
 subject to restrictions as set forth in subparagraphs (a)
 and (c) of the Commercial Computer Software - Restricted
 Rights clause in FAR 52.227-19.
  
 Gaussian, Inc.
 340 Quinnipiac St., Bldg. 40, Wallingford CT 06492
  
  
 ---------------------------------------------------------------
 Warning -- This program may not be used in any manner that
 competes with the business of Gaussian, Inc. or will provide
 assistance to any competitor of Gaussian, Inc.  The licensee
 of this program is prohibited from giving any competitor of
 Gaussian, Inc. access to this program.  By using this program,
 the user acknowledges that Gaussian, Inc. is engaged in the
 business of creating and licensing software in the field of
 computational chemistry and represents and warrants to the
 licensee that it is not a competitor of Gaussian, Inc. and that
 it will not use this program in any manner prohibited above.
 ---------------------------------------------------------------
  

 Cite this work as:
 Gaussian 16, Revision C.01,
 M. J. Frisch, G. W. Trucks, H. B. Schlegel, G. E. Scuseria, 
 M. A. Robb, J. R. Cheeseman, G. Scalmani, V. Barone, 
 G. A. Petersson, H. Nakatsuji, X. Li, M. Caricato, A. V. Marenich, 
 J. Bloino, B. G. Janesko, R. Gomperts, B. Mennucci, H. P. Hratchian, 
 J. V. Ortiz, A. F. Izmaylov, J. L. Sonnenberg, D. Williams-Young, 
 F. Ding, F. Lipparini, F. Egidi, J. Goings, B. Peng, A. Petrone, 
 T. Henderson, D. Ranasinghe, V. G. Zakrzewski, J. Gao, N. Rega, 
 G. Zheng, W. Liang, M. Hada, M. Ehara, K. Toyota, R. Fukuda, 
 J. Hasegawa, M. Ishida, T. Nakajima, Y. Honda, O. Kitao, H. Nakai, 
 T. Vreven, K. Throssell, J. A. Montgomery, Jr., J. E. Peralta, 
 F. Ogliaro, M. J. Bearpark, J. J. Heyd, E. N. Brothers, K. N. Kudin, 
 V. N. Staroverov, T. A. Keith, R. Kobayashi, J. Normand, 
 K. Raghavachari, A. P. Rendell, J. C. Burant, S. S. Iyengar, 
 J. Tomasi, M. Cossi, J. M. Millam, M. Klene, C. Adamo, R. Cammi, 
 J. W. Ochterski, R. L. Martin, K. Morokuma, O. Farkas, 
 J. B. Foresman, and D. J. Fox, Gaussian, Inc., Wallingford CT, 2019.
 
 ******************************************
 Gaussian 16:  EM64L-G16RevC.01  3-Jul-2019
                 4-Apr-2025 
 ******************************************
 %nprocshared=24
 Will use up to   24 processors via shared memory.
 %mem=50gb
 ----------------------------------------------
 # MP2/aug-cc-pVDZ opt freq=(vibrot,anharmonic)
 ----------------------------------------------
 1/18=20,19=15,38=1,80=1/1,3;
 2/9=110,12=2,17=6,18=5,40=1/2;
 3/5=16,7=10,11=9,25=1,30=1,71=1/1,2,3;
 4//1;
 5/5=2,38=5/2;
 8/6=4,10=1/1;
 9/15=2,16=-3/6;
 10/5=1/2;
 6/7=2,8=2,9=2,10=2/1;
 7/12=2/1,2,3,16;
 1/18=20,19=15,80=1/3(2);
 2/9=110/2;
 99//99;
 2/9=110/2;
 3/5=16,7=10,11=9,25=1,30=1,71=1/1,2,3;
 4/5=5,16=3,69=1/1;
 5/5=2,38=5/2;
 8/6=4,10=1/1;
 9/15=2,16=-3/6;
 10/5=1/2;
 7/12=2/1,2,3,16;
 1/18=20,19=15,80=1/3(-8);
 2/9=110/2;
 6/7=2,8=2,9=2,10=2/1;
 99/9=10/99;
 ----
 blah
 ----
 Symbolic Z-matrix:
 Charge =  0 Multiplicity = 1
 C                    -0.39012  -0.26617  -0.2351 
 N                     0.33388  -1.32143  -0.37309 
 H                    -0.33236   0.36211   0.6684 
 H                    -1.09375   0.03956  -1.02487 
 H                     0.92518  -1.43098   0.47968 
 N                     2.01768  -1.71166   1.95736 
 H                     1.74046  -2.66873   2.19016 
 H                     2.9125   -1.81088   1.47092 
 H                     2.25051  -1.27872   2.85277 
 
 Add virtual bond connecting atoms N6         and H5         Dist= 3.51D+00.

 GradGradGradGradGradGradGradGradGradGradGradGradGradGradGradGradGradGrad
 Berny optimization.
 Initialization pass.
                           ----------------------------
                           !    Initial Parameters    !
                           ! (Angstroms and Degrees)  !
 --------------------------                            --------------------------
 ! Name  Definition              Value          Derivative Info.                !
 --------------------------------------------------------------------------------
 ! R1    R(1,2)                  1.2872         estimate D2E/DX2                !
 ! R2    R(1,3)                  1.102          estimate D2E/DX2                !
 ! R3    R(1,4)                  1.101          estimate D2E/DX2                !
 ! R4    R(2,5)                  1.0435         estimate D2E/DX2                !
 ! R5    R(5,6)                  1.859          estimate D2E/DX2                !
 ! R6    R(6,7)                  1.0232         estimate D2E/DX2                !
 ! R7    R(6,8)                  1.0233         estimate D2E/DX2                !
 ! R8    R(6,9)                  1.0215         estimate D2E/DX2                !
 ! A1    A(2,1,3)              121.7244         estimate D2E/DX2                !
 ! A2    A(2,1,4)              120.677          estimate D2E/DX2                !
 ! A3    A(3,1,4)              117.5986         estimate D2E/DX2                !
 ! A4    A(1,2,5)              108.4931         estimate D2E/DX2                !
 ! A5    A(5,6,7)               99.3722         estimate D2E/DX2                !
 ! A6    A(5,6,8)               98.6661         estimate D2E/DX2                !
 ! A7    A(5,6,9)              140.0625         estimate D2E/DX2                !
 ! A8    A(7,6,8)              104.7358         estimate D2E/DX2                !
 ! A9    A(7,6,9)              104.9958         estimate D2E/DX2                !
 ! A10   A(8,6,9)              104.9793         estimate D2E/DX2                !
 ! A11   L(2,5,6,3,-1)         183.1679         estimate D2E/DX2                !
 ! A12   L(2,5,6,3,-2)         179.9633         estimate D2E/DX2                !
 ! D1    D(3,1,2,5)             -0.0038         estimate D2E/DX2                !
 ! D2    D(4,1,2,5)            179.998          estimate D2E/DX2                !
 ! D3    D(2,1,3,4)           -179.9983         estimate D2E/DX2                !
 ! D4    D(1,2,6,7)            125.4546         estimate D2E/DX2                !
 ! D5    D(1,2,6,8)           -128.2091         estimate D2E/DX2                !
 ! D6    D(1,2,6,9)             -2.0009         estimate D2E/DX2                !
 --------------------------------------------------------------------------------
 Trust Radius=3.00D-01 FncErr=1.00D-07 GrdErr=1.00D-07 EigMax=2.50D+02 EigMin=1.00D-04
 Number of steps in this run=     36 maximum allowed number of steps=    100.
 GradGradGradGradGradGradGradGradGradGradGradGradGradGradGradGradGradGrad

                          Input orientation:                          
 ---------------------------------------------------------------------
 Center     Atomic      Atomic             Coordinates (Angstroms)
 Number     Number       Type             X           Y           Z
 ---------------------------------------------------------------------
      1          6           0       -0.390124   -0.266172   -0.235096
      2          7           0        0.333875   -1.321431   -0.373094
      3          1           0       -0.332364    0.362110    0.668401
      4          1           0       -1.093753    0.039560   -1.024868
      5          1           0        0.925183   -1.430983    0.479678
      6          7           0        2.017677   -1.711656    1.957362
      7          1           0        1.740459   -2.668728    2.190162
      8          1           0        2.912505   -1.810876    1.470923
      9          1           0        2.250506   -1.278716    2.852771
 ---------------------------------------------------------------------
                    Distance matrix (angstroms):
                    1          2          3          4          5
     1  C    0.000000
     2  N    1.287164   0.000000
     3  H    1.101989   2.088755   0.000000
     4  H    1.101048   2.077313   1.884386   0.000000
     5  H    1.896765   1.043487   2.198232   2.915863   0.000000
     6  N    3.562836   2.901463   3.388897   4.652037   1.858998
     7  H    4.024119   3.219312   3.974712   5.069911   2.263282
     8  H    4.025415   3.207691   3.986864   5.069831   2.253072
     9  H    4.187254   3.752533   3.759655   5.287533   2.722359
                    6          7          8          9
     6  N    0.000000
     7  H    1.023247   0.000000
     8  H    1.023320   1.620774   0.000000
     9  H    1.021471   1.622138   1.622018   0.000000
 Stoichiometry    CH6N2
 Framework group  C1[X(CH6N2)]
 Deg. of freedom    21
 Full point group                 C1      NOp   1
 Largest Abelian subgroup         C1      NOp   1
 Largest concise Abelian subgroup C1      NOp   1
                         Standard orientation:                         
 ---------------------------------------------------------------------
 Center     Atomic      Atomic             Coordinates (Angstroms)
 Number     Number       Type             X           Y           Z
 ---------------------------------------------------------------------
      1          6           0       -1.659003    0.380752   -0.000113
      2          7           0       -0.899255   -0.658274   -0.000009
      3          1           0       -1.244391    1.401770   -0.000625
      4          1           0       -2.754986    0.275265    0.000341
      5          1           0        0.094936   -0.341338   -0.000539
      6          7           0        1.894609    0.124547   -0.000364
      7          1           0        2.202057   -0.398499    0.823610
      8          1           0        2.200334   -0.440882   -0.796609
      9          1           0        2.488589    0.955261   -0.022893
 ---------------------------------------------------------------------
 Rotational constants (GHZ):          39.7319037           4.1763546           3.8554451
 Standard basis: Aug-CC-pVDZ (5D, 7F)
 There are   129 symmetry adapted cartesian basis functions of A   symmetry.
 There are   123 symmetry adapted basis functions of A   symmetry.
   123 basis functions,   195 primitive gaussians,   129 cartesian basis functions
    13 alpha electrons       13 beta electrons
       nuclear repulsion energy        70.4244835076 Hartrees.
 NAtoms=    9 NActive=    9 NUniq=    9 SFac= 1.00D+00 NAtFMM=   60 NAOKFM=F Big=F
 Integral buffers will be    131072 words long.
 Raffenetti 1 integral format.
 Two-electron integral symmetry is turned on.
 One-electron integrals computed using PRISM.
 NBasis=   123 RedAO= T EigKep=  3.49D-04  NBF=   123
 NBsUse=   123 1.00D-06 EigRej= -1.00D+00 NBFU=   123
 ExpMin= 2.97D-02 ExpMax= 9.05D+03 ExpMxC= 3.09D+02 IAcc=3 IRadAn=         5 AccDes= 0.00D+00
 Harris functional with IExCor=  205 and IRadAn=       5 diagonalized for initial guess.
 HarFok:  IExCor=  205 AccDes= 0.00D+00 IRadAn=         5 IDoV= 1 UseB2=F ITyADJ=14
 ICtDFT=  3500011 ScaDFX=  1.000000  1.000000  1.000000  1.000000
 FoFCou: FMM=F IPFlag=           0 FMFlag=      100000 FMFlg1=           0
         NFxFlg=           0 DoJE=T BraDBF=F KetDBF=T FulRan=T
         wScrn=  0.000000 ICntrl=       500 IOpCl=  0 I1Cent=   200000004 NGrid=           0
         NMat0=    1 NMatS0=      1 NMatT0=    0 NMatD0=    1 NMtDS0=    0 NMtDT0=    0
 Petite list used in FoFCou.
 Keep R1 ints in memory in canonical form, NReq=34236320.
 Requested convergence on RMS density matrix=1.00D-08 within 128 cycles.
 Requested convergence on MAX density matrix=1.00D-06.
 Requested convergence on             energy=1.00D-06.
 No special actions if energy rises.
 SCF Done:  E(RHF) =  -150.248671608     A.U. after   12 cycles
            NFock= 12  Conv=0.55D-08     -V/T= 2.0027
 ExpMin= 2.97D-02 ExpMax= 9.05D+03 ExpMxC= 3.09D+02 IAcc=3 IRadAn=         5 AccDes= 0.00D+00
 HarFok:  IExCor=  205 AccDes= 0.00D+00 IRadAn=         5 IDoV=-2 UseB2=F ITyADJ=14
 ICtDFT= 12500011 ScaDFX=  1.000000  1.000000  1.000000  1.000000
 Range of M.O.s used for correlation:     4   123
 NBasis=   123 NAE=    13 NBE=    13 NFC=     3 NFV=     0
 NROrb=    120 NOA=    10 NOB=    10 NVA=   110 NVB=   110

 **** Warning!!: The largest alpha MO coefficient is  0.12494961D+02

 Fully direct method using O(ONN) memory.
 JobTyp=1 Pass  1:  I=   4 to  13 NPSUse= 24 ParTrn=T ParDer=T DoDerP=T.
 Spin components of T(2) and E(2):
     alpha-alpha T2 =       0.2160947025D-01 E2=     -0.6229383064D-01
     alpha-beta  T2 =       0.1344744173D+00 E2=     -0.3987361684D+00
     beta-beta   T2 =       0.2160947025D-01 E2=     -0.6229383064D-01
 ANorm=    0.1085215812D+01
 E2 =    -0.5233238297D+00 EUMP2 =    -0.15077199543747D+03
          IDoAtm=111111111
          Differentiating once with respect to electric field.
                with respect to dipole field.
          Differentiating once with respect to nuclear coordinates.
 Keep R1 ints in memory in canonical form, NReq=34240298.
          There are     1 degrees of freedom in the 1st order CPHF.  IDoFFX=0 NUNeed=     1.
 LinEq1:  Iter=  0 NonCon=     1 RMS=4.33D-03 Max=5.01D-02 NDo=     1
 AX will form     1 AO Fock derivatives at one time.
 LinEq1:  Iter=  1 NonCon=     1 RMS=8.45D-04 Max=1.09D-02 NDo=     1
 LinEq1:  Iter=  2 NonCon=     1 RMS=3.19D-04 Max=4.13D-03 NDo=     1
 LinEq1:  Iter=  3 NonCon=     1 RMS=1.16D-04 Max=1.76D-03 NDo=     1
 LinEq1:  Iter=  4 NonCon=     1 RMS=3.97D-05 Max=4.98D-04 NDo=     1
 LinEq1:  Iter=  5 NonCon=     1 RMS=1.04D-05 Max=1.57D-04 NDo=     1
 LinEq1:  Iter=  6 NonCon=     1 RMS=2.59D-06 Max=2.57D-05 NDo=     1
 LinEq1:  Iter=  7 NonCon=     1 RMS=8.91D-07 Max=7.75D-06 NDo=     1
 LinEq1:  Iter=  8 NonCon=     1 RMS=2.05D-07 Max=1.76D-06 NDo=     1
 LinEq1:  Iter=  9 NonCon=     1 RMS=3.33D-08 Max=3.67D-07 NDo=     1
 LinEq1:  Iter= 10 NonCon=     1 RMS=6.16D-09 Max=5.43D-08 NDo=     1
 LinEq1:  Iter= 11 NonCon=     1 RMS=1.07D-09 Max=8.97D-09 NDo=     1
 LinEq1:  Iter= 12 NonCon=     1 RMS=1.79D-10 Max=1.21D-09 NDo=     1
 LinEq1:  Iter= 13 NonCon=     0 RMS=3.10D-11 Max=2.37D-10 NDo=     1
 Linear equations converged to 1.000D-10 1.000D-09 after    13 iterations.
 End of Minotr F.D. properties file   721 does not exist.
 End of Minotr F.D. properties file   722 does not exist.
 End of Minotr F.D. properties file   788 does not exist.

 **********************************************************************

            Population analysis using the SCF Density.

 **********************************************************************

 Orbital symmetries:
       Occupied  (A) (A) (A) (A) (A) (A) (A) (A) (A) (A) (A) (A)
                 (A)
       Virtual   (A) (A) (A) (A) (A) (A) (A) (A) (A) (A) (A) (A)
                 (A) (A) (A) (A) (A) (A) (A) (A) (A) (A) (A) (A)
                 (A) (A) (A) (A) (A) (A) (A) (A) (A) (A) (A) (A)
                 (A) (A) (A) (A) (A) (A) (A) (A) (A) (A) (A) (A)
                 (A) (A) (A) (A) (A) (A) (A) (A) (A) (A) (A) (A)
                 (A) (A) (A) (A) (A) (A) (A) (A) (A) (A) (A) (A)
                 (A) (A) (A) (A) (A) (A) (A) (A) (A) (A) (A) (A)
                 (A) (A) (A) (A) (A) (A) (A) (A) (A) (A) (A) (A)
                 (A) (A) (A) (A) (A) (A) (A) (A) (A) (A) (A) (A)
                 (A) (A)
 The electronic state is 1-A.
 Alpha  occ. eigenvalues --  -15.57661 -15.54282 -11.27089  -1.17738  -1.16329
 Alpha  occ. eigenvalues --   -0.81426  -0.66052  -0.64401  -0.64110  -0.57433
 Alpha  occ. eigenvalues --   -0.46954  -0.41543  -0.39294
 Alpha virt. eigenvalues --    0.02933   0.04856   0.05464   0.05799   0.06936
 Alpha virt. eigenvalues --    0.08664   0.10124   0.13932   0.16491   0.17289
 Alpha virt. eigenvalues --    0.18110   0.18403   0.19005   0.20732   0.21118
 Alpha virt. eigenvalues --    0.22000   0.24714   0.26634   0.28434   0.29626
 Alpha virt. eigenvalues --    0.31295   0.33344   0.33708   0.34405   0.39921
 Alpha virt. eigenvalues --    0.40678   0.43363   0.43804   0.46554   0.47912
 Alpha virt. eigenvalues --    0.51404   0.51810   0.52229   0.52969   0.54837
 Alpha virt. eigenvalues --    0.55562   0.55652   0.58888   0.59513   0.62697
 Alpha virt. eigenvalues --    0.63892   0.64463   0.65601   0.68226   0.69289
 Alpha virt. eigenvalues --    0.69600   0.74479   0.75534   0.76780   0.81127
 Alpha virt. eigenvalues --    0.82927   0.87808   0.89496   0.92797   0.93685
 Alpha virt. eigenvalues --    0.94126   0.97883   1.01561   1.09132   1.13673
 Alpha virt. eigenvalues --    1.17066   1.20920   1.21365   1.25552   1.34538
 Alpha virt. eigenvalues --    1.40704   1.50417   1.51644   1.60398   1.62976
 Alpha virt. eigenvalues --    1.65122   1.72192   1.73827   1.79039   1.81055
 Alpha virt. eigenvalues --    1.92598   1.93203   1.97122   1.97446   1.99248
 Alpha virt. eigenvalues --    2.05238   2.07154   2.10657   2.11853   2.21406
 Alpha virt. eigenvalues --    2.24643   2.27406   2.33124   2.35316   2.38246
 Alpha virt. eigenvalues --    2.38862   2.41004   2.43316   2.43509   2.47355
 Alpha virt. eigenvalues --    2.68537   2.68881   2.77118   2.77738   2.85256
 Alpha virt. eigenvalues --    2.88784   2.89639   2.93609   3.07313   3.09858
 Alpha virt. eigenvalues --    3.30089   3.33432   3.51462   3.57904   3.70265
          Condensed to atoms (all electrons):
               1          2          3          4          5          6
     1  C    4.432409   0.459459   0.250387   0.402619  -0.138038   0.013090
     2  N    0.459459   6.805042   0.055348  -0.085848   0.241129  -0.051731
     3  H    0.250387   0.055348   1.128506  -0.254244  -0.057929   0.008401
     4  H    0.402619  -0.085848  -0.254244   1.061778   0.043893  -0.003427
     5  H   -0.138038   0.241129  -0.057929   0.043893   0.798585  -0.097569
     6  N    0.013090  -0.051731   0.008401  -0.003427  -0.097569   6.165903
     7  H    0.001934  -0.005732  -0.001425   0.000021  -0.019135   0.418640
     8  H    0.001748  -0.005611  -0.001359   0.000005  -0.019040   0.418909
     9  H   -0.007135   0.007155   0.001853  -0.000220   0.014072   0.377743
               7          8          9
     1  C    0.001934   0.001748  -0.007135
     2  N   -0.005732  -0.005611   0.007155
     3  H   -0.001425  -0.001359   0.001853
     4  H    0.000021   0.000005  -0.000220
     5  H   -0.019135  -0.019040   0.014072
     6  N    0.418640   0.418909   0.377743
     7  H    0.686803  -0.033302  -0.090442
     8  H   -0.033302   0.687752  -0.091009
     9  H   -0.090442  -0.091009   0.726802
 Mulliken charges:
               1
     1  C    0.583526
     2  N   -0.419211
     3  H   -0.129537
     4  H   -0.164577
     5  H    0.234033
     6  N   -0.249959
     7  H    0.042638
     8  H    0.041905
     9  H    0.061181
 Sum of Mulliken charges =  -0.00000
 Mulliken charges with hydrogens summed into heavy atoms:
               1
     1  C    0.289412
     2  N   -0.185178
     6  N   -0.104235
 Electronic spatial extent (au):  <R**2>=            330.3611
 Charge=             -0.0000 electrons
 Dipole moment (field-independent basis, Debye):
    X=              2.7694    Y=              1.9548    Z=              0.0053  Tot=              3.3899
 Quadrupole moment (field-independent basis, Debye-Ang):
   XX=            -12.8493   YY=            -21.6314   ZZ=            -20.4210
   XY=             -3.0079   XZ=              0.0027   YZ=              0.0038
 Traceless Quadrupole moment (field-independent basis, Debye-Ang):
   XX=              5.4513   YY=             -3.3308   ZZ=             -2.1205
   XY=             -3.0079   XZ=              0.0027   YZ=              0.0038
 Octapole moment (field-independent basis, Debye-Ang**2):
  XXX=             13.7175  YYY=              5.7626  ZZZ=              0.0866  XYY=              8.0876
  XXY=              4.9587  XXZ=             -0.0217  XZZ=              6.9158  YZZ=             -0.5611
  YYZ=             -0.0715  XYZ=             -0.0033
 Hexadecapole moment (field-independent basis, Debye-Ang**3):
 XXXX=           -302.0617 YYYY=            -59.8678 ZZZZ=            -26.0127 XXXY=              2.6426
 XXXZ=             -0.1270 YYYX=             -2.1530 YYYZ=              0.0044 ZZZX=              0.1917
 ZZZY=              0.0013 XXYY=            -63.6475 XXZZ=            -58.5882 YYZZ=            -14.1976
 XXYZ=             -0.0372 YYXZ=             -0.1724 ZZXY=             -2.5345
 N-N= 7.042448350756D+01 E-N=-4.924980132094D+02  KE= 1.498379112489D+02
 Calling FoFJK, ICntrl=  10002127 FMM=F ISym2X=0 I1Cent= 0 IOpClX= 0 NMat=1 NMatS=1 NMatT=0.
 ***** Axes restored to original set *****
 -------------------------------------------------------------------
 Center     Atomic                   Forces (Hartrees/Bohr)
 Number     Number              X              Y              Z
 -------------------------------------------------------------------
      1        6           0.002079141   -0.000951136    0.002284393
      2        7           0.000553174   -0.002715058   -0.002523251
      3        1          -0.002258360    0.003432899    0.000610137
      4        1           0.001375644   -0.001114831    0.000873116
      5        1          -0.007486717    0.003617704   -0.007999666
      6        7           0.008251076   -0.004993085    0.007479176
      7        1          -0.000647106    0.000619369   -0.000336814
      8        1          -0.000683991    0.000591876   -0.000292783
      9        1          -0.001182860    0.001512262   -0.000094309
 -------------------------------------------------------------------
 Cartesian Forces:  Max     0.008251076 RMS     0.003513162

 GradGradGradGradGradGradGradGradGradGradGradGradGradGradGradGradGradGrad
 Berny optimization.
 FormGI is forming the generalized inverse of G from B-inverse, IUseBI=4.
 Internal  Forces:  Max     0.009083484 RMS     0.002434965
 Search for a local minimum.
 Step number   1 out of a maximum of   36
 All quantities printed in internal units (Hartrees-Bohrs-Radians)
 Mixed Optimization -- RFO/linear search
 Second derivative matrix not updated -- first step.
 ITU=  0
     Eigenvalues ---    0.00230   0.00230   0.00230   0.01255   0.03184
     Eigenvalues ---    0.05490   0.05670   0.10820   0.16000   0.16000
     Eigenvalues ---    0.16000   0.16000   0.16000   0.16000   0.33463
     Eigenvalues ---    0.33567   0.40792   0.43813   0.43824   0.44104
     Eigenvalues ---    0.70888
 RFO step:  Lambda=-2.28499994D-03 EMin= 2.30000000D-03
 Linear search not attempted -- first point.
 Maximum step size (   0.300) exceeded in Quadratic search.
    -- Step size scaled by   0.840
 Iteration  1 RMS(Cart)=  0.13661698 RMS(Int)=  0.01614374
 Iteration  2 RMS(Cart)=  0.04482702 RMS(Int)=  0.00105943
 Iteration  3 RMS(Cart)=  0.00174343 RMS(Int)=  0.00055041
 Iteration  4 RMS(Cart)=  0.00000022 RMS(Int)=  0.00055041
 Variable       Old X    -DE/DX   Delta X   Delta X   Delta X     New X
                                 (Linear)    (Quad)   (Total)
    R1        2.43239   0.00085   0.00000   0.00101   0.00101   2.43339
    R2        2.08246   0.00234   0.00000   0.00583   0.00583   2.08829
    R3        2.08068  -0.00181   0.00000  -0.00451  -0.00451   2.07617
    R4        1.97191  -0.00215   0.00000  -0.00440  -0.00439   1.96751
    R5        3.51300   0.00908   0.00000   0.13343   0.13343   3.64642
    R6        1.93366  -0.00048   0.00000  -0.00092  -0.00092   1.93274
    R7        1.93380  -0.00052   0.00000  -0.00098  -0.00098   1.93281
    R8        1.93030   0.00029   0.00000   0.00055   0.00055   1.93085
    A1        2.12449   0.00530   0.00000   0.02746   0.02746   2.15195
    A2        2.10621  -0.00346   0.00000  -0.01791  -0.01791   2.08830
    A3        2.05248  -0.00184   0.00000  -0.00955  -0.00955   2.04294
    A4        1.89356  -0.00120   0.00000  -0.00619  -0.00619   1.88738
    A5        1.73437  -0.00010   0.00000  -0.00065  -0.00067   1.73370
    A6        1.72205  -0.00007   0.00000  -0.00008  -0.00004   1.72201
    A7        2.44455  -0.00236   0.00000  -0.01273  -0.01248   2.43207
    A8        1.82798   0.00106   0.00000   0.00800   0.00645   1.83444
    A9        1.83252   0.00115   0.00000   0.00527   0.00544   1.83796
   A10        1.83223   0.00114   0.00000   0.00567   0.00593   1.83817
   A11        3.19688   0.00149   0.00000   0.26572   0.26580   3.46268
   A12        3.14095  -0.00001   0.00000  -0.00480  -0.00482   3.13614
    D1       -0.00007  -0.00000   0.00000   0.00002   0.00002  -0.00004
    D2        3.14156  -0.00000   0.00000  -0.00012  -0.00012   3.14144
    D3       -3.14156  -0.00000   0.00000  -0.00014  -0.00014   3.14148
    D4        2.18960  -0.00049   0.00000   0.00762   0.00601   2.19561
    D5       -2.23767   0.00046   0.00000  -0.00656  -0.00491  -2.24258
    D6       -0.03492   0.00004   0.00000  -0.00101  -0.00105  -0.03597
         Item               Value     Threshold  Converged?
 Maximum Force            0.009083     0.000450     NO 
 RMS     Force            0.002435     0.000300     NO 
 Maximum Displacement     0.331841     0.001800     NO 
 RMS     Displacement     0.175476     0.001200     NO 
 Predicted change in Energy=-1.218001D-03
 GradGradGradGradGradGradGradGradGradGradGradGradGradGradGradGradGradGrad

                          Input orientation:                          
 ---------------------------------------------------------------------
 Center     Atomic      Atomic             Coordinates (Angstroms)
 Number     Number       Type             X           Y           Z
 ---------------------------------------------------------------------
      1          6           0       -0.445743   -0.237569   -0.291369
      2          7           0        0.337581   -1.259598   -0.286840
      3          1           0       -0.501159    0.488016    0.540284
      4          1           0       -1.100504   -0.058431   -1.155228
      5          1           0        0.870749   -1.255380    0.607438
      6          7           0        2.090106   -1.761917    2.014549
      7          1           0        1.768264   -2.719145    2.176331
      8          1           0        2.940509   -1.857726    1.454412
      9          1           0        2.404161   -1.425141    2.926660
 ---------------------------------------------------------------------
                    Distance matrix (angstroms):
                    1          2          3          4          5
     1  C    0.000000
     2  N    1.287696   0.000000
     3  H    1.105075   2.107552   0.000000
     4  H    1.098660   2.065185   1.879516   0.000000
     5  H    1.891282   1.041162   2.219475   2.902674   0.000000
     6  N    3.751190   2.935994   3.735011   4.809298   1.929604
     7  H    4.141207   3.200678   4.255915   5.138922   2.325847
     8  H    4.139972   3.188252   4.264178   5.135900   2.316051
     9  H    4.459596   3.824230   4.218512   5.550891   2.785491
                    6          7          8          9
     6  N    0.000000
     7  H    1.022762   0.000000
     8  H    1.022799   1.623998   0.000000
     9  H    1.021761   1.625363   1.625520   0.000000
 Stoichiometry    CH6N2
 Framework group  C1[X(CH6N2)]
 Deg. of freedom    21
 Full point group                 C1      NOp   1
 Largest Abelian subgroup         C1      NOp   1
 Largest concise Abelian subgroup C1      NOp   1
                         Standard orientation:                         
 ---------------------------------------------------------------------
 Center     Atomic      Atomic             Coordinates (Angstroms)
 Number     Number       Type             X           Y           Z
 ---------------------------------------------------------------------
      1          6           0       -1.766329    0.326269    0.000053
      2          7           0       -0.866354   -0.594712   -0.000224
      3          1           0       -1.529725    1.405715   -0.002682
      4          1           0       -2.829081    0.047693    0.003028
      5          1           0        0.067830   -0.135028   -0.003407
      6          7           0        1.979563    0.126965   -0.000273
      7          1           0        2.221448   -0.426228    0.825263
      8          1           0        2.217768   -0.466884   -0.798221
      9          1           0        2.657272    0.891349   -0.020818
 ---------------------------------------------------------------------
 Rotational constants (GHZ):          46.2127216           3.8435558           3.6159120
 Standard basis: Aug-CC-pVDZ (5D, 7F)
 There are   129 symmetry adapted cartesian basis functions of A   symmetry.
 There are   123 symmetry adapted basis functions of A   symmetry.
   123 basis functions,   195 primitive gaussians,   129 cartesian basis functions
    13 alpha electrons       13 beta electrons
       nuclear repulsion energy        69.6516918230 Hartrees.
 NAtoms=    9 NActive=    9 NUniq=    9 SFac= 1.00D+00 NAtFMM=   60 NAOKFM=F Big=F
 Integral buffers will be    131072 words long.
 Raffenetti 1 integral format.
 Two-electron integral symmetry is turned on.
 One-electron integrals computed using PRISM.
 NBasis=   123 RedAO= T EigKep=  3.28D-04  NBF=   123
 NBsUse=   123 1.00D-06 EigRej= -1.00D+00 NBFU=   123
 Initial guess from the checkpoint file:  "/scr/Gau-79932.chk"
 B after Tr=    -0.000000    0.000000   -0.000000
         Rot=    0.999977   -0.000192    0.000018   -0.006850 Ang=  -0.79 deg.
 ExpMin= 2.97D-02 ExpMax= 9.05D+03 ExpMxC= 3.09D+02 IAcc=3 IRadAn=         5 AccDes= 0.00D+00
 Harris functional with IExCor=  205 and IRadAn=       5 diagonalized for initial guess.
 HarFok:  IExCor=  205 AccDes= 0.00D+00 IRadAn=         5 IDoV= 1 UseB2=F ITyADJ=14
 ICtDFT=  3500011 ScaDFX=  1.000000  1.000000  1.000000  1.000000
 FoFCou: FMM=F IPFlag=           0 FMFlag=      100000 FMFlg1=           0
         NFxFlg=           0 DoJE=T BraDBF=F KetDBF=T FulRan=T
         wScrn=  0.000000 ICntrl=       500 IOpCl=  0 I1Cent=   200000004 NGrid=           0
         NMat0=    1 NMatS0=      1 NMatT0=    0 NMatD0=    1 NMtDS0=    0 NMtDT0=    0
 Petite list used in FoFCou.
 Keep R1 ints in memory in canonical form, NReq=34235007.
 Requested convergence on RMS density matrix=1.00D-08 within 128 cycles.
 Requested convergence on MAX density matrix=1.00D-06.
 Requested convergence on             energy=1.00D-06.
 No special actions if energy rises.
 SCF Done:  E(RHF) =  -150.250365424     A.U. after   12 cycles
            NFock= 12  Conv=0.67D-08     -V/T= 2.0028
 ExpMin= 2.97D-02 ExpMax= 9.05D+03 ExpMxC= 3.09D+02 IAcc=3 IRadAn=         5 AccDes= 0.00D+00
 HarFok:  IExCor=  205 AccDes= 0.00D+00 IRadAn=         5 IDoV=-2 UseB2=F ITyADJ=14
 ICtDFT= 12500011 ScaDFX=  1.000000  1.000000  1.000000  1.000000
 Range of M.O.s used for correlation:     4   123
 NBasis=   123 NAE=    13 NBE=    13 NFC=     3 NFV=     0
 NROrb=    120 NOA=    10 NOB=    10 NVA=   110 NVB=   110

 **** Warning!!: The largest alpha MO coefficient is  0.14974131D+02

 Fully direct method using O(ONN) memory.
 JobTyp=1 Pass  1:  I=   4 to  13 NPSUse= 24 ParTrn=T ParDer=T DoDerP=T.
 Spin components of T(2) and E(2):
     alpha-alpha T2 =       0.2155500216D-01 E2=     -0.6212547472D-01
     alpha-beta  T2 =       0.1344849691D+00 E2=     -0.3985450061D+00
     beta-beta   T2 =       0.2155500216D-01 E2=     -0.6212547472D-01
 ANorm=    0.1085170481D+01
 E2 =    -0.5227959555D+00 EUMP2 =    -0.15077316137946D+03
          IDoAtm=111111111
          Differentiating once with respect to electric field.
                with respect to dipole field.
          Differentiating once with respect to nuclear coordinates.
 Keep R1 ints in memory in canonical form, NReq=34239050.
          There are     1 degrees of freedom in the 1st order CPHF.  IDoFFX=0 NUNeed=     1.
 LinEq1:  Iter=  0 NonCon=     1 RMS=4.31D-03 Max=5.24D-02 NDo=     1
 AX will form     1 AO Fock derivatives at one time.
 LinEq1:  Iter=  1 NonCon=     1 RMS=8.46D-04 Max=1.05D-02 NDo=     1
 LinEq1:  Iter=  2 NonCon=     1 RMS=3.20D-04 Max=4.14D-03 NDo=     1
 LinEq1:  Iter=  3 NonCon=     1 RMS=1.16D-04 Max=1.77D-03 NDo=     1
 LinEq1:  Iter=  4 NonCon=     1 RMS=3.92D-05 Max=4.65D-04 NDo=     1
 LinEq1:  Iter=  5 NonCon=     1 RMS=1.00D-05 Max=1.54D-04 NDo=     1
 LinEq1:  Iter=  6 NonCon=     1 RMS=2.46D-06 Max=2.45D-05 NDo=     1
 LinEq1:  Iter=  7 NonCon=     1 RMS=8.37D-07 Max=7.43D-06 NDo=     1
 LinEq1:  Iter=  8 NonCon=     1 RMS=2.05D-07 Max=1.70D-06 NDo=     1
 LinEq1:  Iter=  9 NonCon=     1 RMS=3.46D-08 Max=3.54D-07 NDo=     1
 LinEq1:  Iter= 10 NonCon=     1 RMS=6.79D-09 Max=5.88D-08 NDo=     1
 LinEq1:  Iter= 11 NonCon=     1 RMS=1.16D-09 Max=1.05D-08 NDo=     1
 LinEq1:  Iter= 12 NonCon=     1 RMS=1.84D-10 Max=1.20D-09 NDo=     1
 LinEq1:  Iter= 13 NonCon=     0 RMS=2.93D-11 Max=2.11D-10 NDo=     1
 Linear equations converged to 1.000D-10 1.000D-09 after    13 iterations.
 End of Minotr F.D. properties file   721 does not exist.
 End of Minotr F.D. properties file   722 does not exist.
 End of Minotr F.D. properties file   788 does not exist.
 Calling FoFJK, ICntrl=  10002127 FMM=F ISym2X=0 I1Cent= 0 IOpClX= 0 NMat=1 NMatS=1 NMatT=0.
 ***** Axes restored to original set *****
 -------------------------------------------------------------------
 Center     Atomic                   Forces (Hartrees/Bohr)
 Number     Number              X              Y              Z
 -------------------------------------------------------------------
      1        6          -0.000635293    0.000794494   -0.000073681
      2        7           0.000894585    0.001321665    0.003106541
      3        1          -0.000789326    0.000355063   -0.000869476
      4        1          -0.000226170    0.000220775   -0.000070932
      5        1          -0.003196139   -0.001276562   -0.006903222
      6        7           0.006107623   -0.003394871    0.005943540
      7        1          -0.000489253    0.000728404   -0.000550960
      8        1          -0.000886797    0.000432685   -0.000266840
      9        1          -0.000779230    0.000818348   -0.000314970
 -------------------------------------------------------------------
 Cartesian Forces:  Max     0.006903222 RMS     0.002449457

 GradGradGradGradGradGradGradGradGradGradGradGradGradGradGradGradGradGrad
 Berny optimization.
 Using GEDIIS/GDIIS optimizer.
 FormGI is forming the generalized inverse of G from B-inverse, IUseBI=4.
 Internal  Forces:  Max     0.006376384 RMS     0.001754735
 Search for a local minimum.
 Step number   2 out of a maximum of   36
 All quantities printed in internal units (Hartrees-Bohrs-Radians)
 Mixed Optimization -- RFO/linear search
 Update second derivatives using D2CorX and points    1    2
 DE= -1.17D-03 DEPred=-1.22D-03 R= 9.57D-01
 TightC=F SS=  1.41D+00  RLast= 3.00D-01 DXNew= 5.0454D-01 9.0039D-01
 Trust test= 9.57D-01 RLast= 3.00D-01 DXMaxT set to 5.05D-01
 ITU=  1  0
 Use linear search instead of GDIIS.
     Eigenvalues ---    0.00230   0.00230   0.00631   0.01246   0.01817
     Eigenvalues ---    0.03174   0.05198   0.10887   0.14866   0.16000
     Eigenvalues ---    0.16000   0.16000   0.16000   0.19170   0.33525
     Eigenvalues ---    0.34001   0.40627   0.43802   0.43821   0.44125
     Eigenvalues ---    0.70989
 RFO step:  Lambda=-2.89858617D-03 EMin= 2.29998619D-03
 Quartic linear search produced a step of  0.43378.
 Iteration  1 RMS(Cart)=  0.09580622 RMS(Int)=  0.03642552
 Iteration  2 RMS(Cart)=  0.04680878 RMS(Int)=  0.00036324
 Iteration  3 RMS(Cart)=  0.00004752 RMS(Int)=  0.00036134
 Iteration  4 RMS(Cart)=  0.00000001 RMS(Int)=  0.00036134
 Variable       Old X    -DE/DX   Delta X   Delta X   Delta X     New X
                                 (Linear)    (Quad)   (Total)
    R1        2.43339   0.00210   0.00044   0.00574   0.00618   2.43957
    R2        2.08829  -0.00038   0.00253   0.00588   0.00841   2.09670
    R3        2.07617   0.00023  -0.00196  -0.00486  -0.00681   2.06935
    R4        1.96751  -0.00142  -0.00191  -0.01092  -0.01282   1.95469
    R5        3.64642   0.00638   0.05788   0.33243   0.39031   4.03673
    R6        1.93274  -0.00061  -0.00040  -0.00329  -0.00369   1.92905
    R7        1.93281  -0.00063  -0.00043  -0.00344  -0.00387   1.92894
    R8        1.93085  -0.00025   0.00024  -0.00014   0.00010   1.93095
    A1        2.15195   0.00146   0.01191   0.04889   0.06080   2.21275
    A2        2.08830  -0.00049  -0.00777  -0.02762  -0.03539   2.05291
    A3        2.04294  -0.00097  -0.00414  -0.02127  -0.02542   2.01752
    A4        1.88738   0.00467  -0.00268   0.03514   0.03245   1.91983
    A5        1.73370  -0.00057  -0.00029  -0.00616  -0.00671   1.72699
    A6        1.72201  -0.00055  -0.00002  -0.00505  -0.00512   1.71689
    A7        2.43207  -0.00109  -0.00541  -0.02644  -0.03183   2.40024
    A8        1.83444   0.00061   0.00280   0.01504   0.01679   1.85123
    A9        1.83796   0.00101   0.00236   0.01604   0.01829   1.85625
   A10        1.83817   0.00096   0.00257   0.01636   0.01910   1.85726
   A11        3.46268  -0.00160   0.11530  -0.30775  -0.19238   3.27030
   A12        3.13614   0.00004  -0.00209   0.00923   0.00709   3.14322
    D1       -0.00004   0.00001   0.00001   0.00009   0.00010   0.00006
    D2        3.14144   0.00001  -0.00005   0.00062   0.00056  -3.14118
    D3        3.14148   0.00001  -0.00006   0.00052   0.00046  -3.14124
    D4        2.19561  -0.00030   0.00261  -0.01706  -0.01541   2.18019
    D5       -2.24258   0.00029  -0.00213   0.01331   0.01230  -2.23028
    D6       -0.03597   0.00001  -0.00045   0.00260   0.00200  -0.03397
         Item               Value     Threshold  Converged?
 Maximum Force            0.006376     0.000450     NO 
 RMS     Force            0.001755     0.000300     NO 
 Maximum Displacement     0.316358     0.001800     NO 
 RMS     Displacement     0.126358     0.001200     NO 
 Predicted change in Energy=-1.886070D-03
 GradGradGradGradGradGradGradGradGradGradGradGradGradGradGradGradGradGrad

                          Input orientation:                          
 ---------------------------------------------------------------------
 Center     Atomic      Atomic             Coordinates (Angstroms)
 Number     Number       Type             X           Y           Z
 ---------------------------------------------------------------------
      1          6           0       -0.482027   -0.201328   -0.306926
      2          7           0        0.260559   -1.252479   -0.408137
      3          1           0       -0.517347    0.507512    0.545919
      4          1           0       -1.152991    0.028566   -1.141252
      5          1           0        0.843356   -1.356880    0.440029
      6          7           0        2.150746   -1.796536    2.071150
      7          1           0        1.841661   -2.748856    2.270162
      8          1           0        3.020532   -1.886066    1.544468
      9          1           0        2.399476   -1.380823    2.970826
 ---------------------------------------------------------------------
                    Distance matrix (angstroms):
                    1          2          3          4          5
     1  C    0.000000
     2  N    1.290967   0.000000
     3  H    1.109525   2.147773   0.000000
     4  H    1.095055   2.043687   1.865470   0.000000
     5  H    1.910466   1.034378   2.310559   2.899192   0.000000
     6  N    3.889913   3.164754   3.841052   4.956329   2.136146
     7  H    4.304742   3.451422   4.375141   5.321631   2.506710
     8  H    4.305104   3.439702   4.386673   5.319512   2.497983
     9  H    4.520832   4.001104   4.237197   5.613875   2.971029
                    6          7          8          9
     6  N    0.000000
     7  H    1.020810   0.000000
     8  H    1.020754   1.631188   0.000000
     9  H    1.021813   1.635115   1.635689   0.000000
 Stoichiometry    CH6N2
 Framework group  C1[X(CH6N2)]
 Deg. of freedom    21
 Full point group                 C1      NOp   1
 Largest Abelian subgroup         C1      NOp   1
 Largest concise Abelian subgroup C1      NOp   1
                         Standard orientation:                         
 ---------------------------------------------------------------------
 Center     Atomic      Atomic             Coordinates (Angstroms)
 Number     Number       Type             X           Y           Z
 ---------------------------------------------------------------------
      1          6           0       -1.792550    0.371008   -0.000262
      2          7           0       -0.984053   -0.635435    0.000130
      3          1           0       -1.515816    1.445468    0.000069
      4          1           0       -2.866926    0.159202   -0.000653
      5          1           0       -0.004730   -0.302474    0.000874
      6          7           0        2.089247    0.119873   -0.000609
      7          1           0        2.358685   -0.409915    0.829319
      8          1           0        2.356084   -0.454312   -0.801263
      9          1           0        2.691646    0.944917   -0.023422
 ---------------------------------------------------------------------
 Rotational constants (GHZ):          41.1681396           3.5212634           3.3006169
 Standard basis: Aug-CC-pVDZ (5D, 7F)
 There are   129 symmetry adapted cartesian basis functions of A   symmetry.
 There are   123 symmetry adapted basis functions of A   symmetry.
   123 basis functions,   195 primitive gaussians,   129 cartesian basis functions
    13 alpha electrons       13 beta electrons
       nuclear repulsion energy        68.1738937617 Hartrees.
 NAtoms=    9 NActive=    9 NUniq=    9 SFac= 1.00D+00 NAtFMM=   60 NAOKFM=F Big=F
 Integral buffers will be    131072 words long.
 Raffenetti 1 integral format.
 Two-electron integral symmetry is turned on.
 One-electron integrals computed using PRISM.
 NBasis=   123 RedAO= T EigKep=  3.68D-04  NBF=   123
 NBsUse=   123 1.00D-06 EigRej= -1.00D+00 NBFU=   123
 Initial guess from the checkpoint file:  "/scr/Gau-79932.chk"
 B after Tr=     0.000000   -0.000000    0.000000
         Rot=    0.999985    0.000315   -0.000023    0.005509 Ang=   0.63 deg.
 ExpMin= 2.97D-02 ExpMax= 9.05D+03 ExpMxC= 3.09D+02 IAcc=3 IRadAn=         5 AccDes= 0.00D+00
 Harris functional with IExCor=  205 and IRadAn=       5 diagonalized for initial guess.
 HarFok:  IExCor=  205 AccDes= 0.00D+00 IRadAn=         5 IDoV= 1 UseB2=F ITyADJ=14
 ICtDFT=  3500011 ScaDFX=  1.000000  1.000000  1.000000  1.000000
 FoFCou: FMM=F IPFlag=           0 FMFlag=      100000 FMFlg1=           0
         NFxFlg=           0 DoJE=T BraDBF=F KetDBF=T FulRan=T
         wScrn=  0.000000 ICntrl=       500 IOpCl=  0 I1Cent=   200000004 NGrid=           0
         NMat0=    1 NMatS0=      1 NMatT0=    0 NMatD0=    1 NMtDS0=    0 NMtDT0=    0
 Petite list used in FoFCou.
 Keep R1 ints in memory in canonical form, NReq=34232680.
 Requested convergence on RMS density matrix=1.00D-08 within 128 cycles.
 Requested convergence on MAX density matrix=1.00D-06.
 Requested convergence on             energy=1.00D-06.
 No special actions if energy rises.
 SCF Done:  E(RHF) =  -150.252780980     A.U. after   12 cycles
            NFock= 12  Conv=0.94D-08     -V/T= 2.0031
 ExpMin= 2.97D-02 ExpMax= 9.05D+03 ExpMxC= 3.09D+02 IAcc=3 IRadAn=         5 AccDes= 0.00D+00
 HarFok:  IExCor=  205 AccDes= 0.00D+00 IRadAn=         5 IDoV=-2 UseB2=F ITyADJ=14
 ICtDFT= 12500011 ScaDFX=  1.000000  1.000000  1.000000  1.000000
 Range of M.O.s used for correlation:     4   123
 NBasis=   123 NAE=    13 NBE=    13 NFC=     3 NFV=     0
 NROrb=    120 NOA=    10 NOB=    10 NVA=   110 NVB=   110

 **** Warning!!: The largest alpha MO coefficient is  0.14816605D+02

 Fully direct method using O(ONN) memory.
 JobTyp=1 Pass  1:  I=   4 to  13 NPSUse= 24 ParTrn=T ParDer=T DoDerP=T.
 Spin components of T(2) and E(2):
     alpha-alpha T2 =       0.2145333321D-01 E2=     -0.6176110750D-01
     alpha-beta  T2 =       0.1345247604D+00 E2=     -0.3979747132D+00
     beta-beta   T2 =       0.2145333321D-01 E2=     -0.6176110750D-01
 ANorm=    0.1085095123D+01
 E2 =    -0.5214969282D+00 EUMP2 =    -0.15077427790845D+03
          IDoAtm=111111111
          Differentiating once with respect to electric field.
                with respect to dipole field.
          Differentiating once with respect to nuclear coordinates.
 Keep R1 ints in memory in canonical form, NReq=34237763.
          There are     1 degrees of freedom in the 1st order CPHF.  IDoFFX=0 NUNeed=     1.
 LinEq1:  Iter=  0 NonCon=     1 RMS=4.32D-03 Max=5.14D-02 NDo=     1
 AX will form     1 AO Fock derivatives at one time.
 LinEq1:  Iter=  1 NonCon=     1 RMS=8.53D-04 Max=1.06D-02 NDo=     1
 LinEq1:  Iter=  2 NonCon=     1 RMS=3.24D-04 Max=4.38D-03 NDo=     1
 LinEq1:  Iter=  3 NonCon=     1 RMS=1.17D-04 Max=1.75D-03 NDo=     1
 LinEq1:  Iter=  4 NonCon=     1 RMS=3.78D-05 Max=4.04D-04 NDo=     1
 LinEq1:  Iter=  5 NonCon=     1 RMS=9.35D-06 Max=1.45D-04 NDo=     1
 LinEq1:  Iter=  6 NonCon=     1 RMS=2.20D-06 Max=2.33D-05 NDo=     1
 LinEq1:  Iter=  7 NonCon=     1 RMS=7.00D-07 Max=5.77D-06 NDo=     1
 LinEq1:  Iter=  8 NonCon=     1 RMS=2.01D-07 Max=1.69D-06 NDo=     1
 LinEq1:  Iter=  9 NonCon=     1 RMS=3.47D-08 Max=3.58D-07 NDo=     1
 LinEq1:  Iter= 10 NonCon=     1 RMS=6.94D-09 Max=6.49D-08 NDo=     1
 LinEq1:  Iter= 11 NonCon=     1 RMS=1.17D-09 Max=1.13D-08 NDo=     1
 LinEq1:  Iter= 12 NonCon=     1 RMS=1.90D-10 Max=1.30D-09 NDo=     1
 LinEq1:  Iter= 13 NonCon=     0 RMS=2.85D-11 Max=2.47D-10 NDo=     1
 Linear equations converged to 1.000D-10 1.000D-09 after    13 iterations.
 End of Minotr F.D. properties file   721 does not exist.
 End of Minotr F.D. properties file   722 does not exist.
 End of Minotr F.D. properties file   788 does not exist.
 Calling FoFJK, ICntrl=  10002127 FMM=F ISym2X=0 I1Cent= 0 IOpClX= 0 NMat=1 NMatS=1 NMatT=0.
 ***** Axes restored to original set *****
 -------------------------------------------------------------------
 Center     Atomic                   Forces (Hartrees/Bohr)
 Number     Number              X              Y              Z
 -------------------------------------------------------------------
      1        6           0.000038390   -0.001335413   -0.001581084
      2        7          -0.000382911    0.003318891    0.003715410
      3        1           0.003520567   -0.004956353   -0.000454940
      4        1          -0.002166983    0.001426369   -0.001871561
      5        1          -0.001859903    0.002259559   -0.000366085
      6        7           0.000702606   -0.000270215    0.001109448
      7        1           0.000409013    0.000119693    0.000375000
      8        1           0.000206933   -0.000054507    0.000588980
      9        1          -0.000467712   -0.000508023   -0.001515168
 -------------------------------------------------------------------
 Cartesian Forces:  Max     0.004956353 RMS     0.001832165

 GradGradGradGradGradGradGradGradGradGradGradGradGradGradGradGradGradGrad
 Berny optimization.
 Using GEDIIS/GDIIS optimizer.
 FormGI is forming the generalized inverse of G from B-inverse, IUseBI=4.
 Internal  Forces:  Max     0.007506454 RMS     0.002394154
 Search for a local minimum.
 Step number   3 out of a maximum of   36
 All quantities printed in internal units (Hartrees-Bohrs-Radians)
 Mixed Optimization -- RFO/linear search
 Update second derivatives using D2CorX and points    1    2    3
 DE= -1.12D-03 DEPred=-1.89D-03 R= 5.92D-01
 TightC=F SS=  1.41D+00  RLast= 4.46D-01 DXNew= 8.4853D-01 1.3378D+00
 Trust test= 5.92D-01 RLast= 4.46D-01 DXMaxT set to 8.49D-01
 ITU=  1  1  0
 Use linear search instead of GDIIS.
     Eigenvalues ---    0.00230   0.00230   0.00679   0.01238   0.01478
     Eigenvalues ---    0.03184   0.05958   0.10888   0.15711   0.16000
     Eigenvalues ---    0.16000   0.16000   0.18749   0.19673   0.33526
     Eigenvalues ---    0.35202   0.40572   0.43796   0.43820   0.44249
     Eigenvalues ---    0.72060
 RFO step:  Lambda=-5.23025393D-04 EMin= 2.29999986D-03
 Quartic linear search produced a step of -0.20076.
 Iteration  1 RMS(Cart)=  0.06422705 RMS(Int)=  0.00170524
 Iteration  2 RMS(Cart)=  0.00336143 RMS(Int)=  0.00005163
 Iteration  3 RMS(Cart)=  0.00000127 RMS(Int)=  0.00005162
 Iteration  4 RMS(Cart)=  0.00000000 RMS(Int)=  0.00005162
 Variable       Old X    -DE/DX   Delta X   Delta X   Delta X     New X
                                 (Linear)    (Quad)   (Total)
    R1        2.43957  -0.00507  -0.00124  -0.00388  -0.00512   2.43445
    R2        2.09670  -0.00363  -0.00169  -0.00756  -0.00925   2.08745
    R3        2.06935   0.00305   0.00137   0.00631   0.00768   2.07703
    R4        1.95469  -0.00057   0.00257  -0.00433  -0.00175   1.95294
    R5        4.03673   0.00109  -0.07836   0.10922   0.03086   4.06759
    R6        1.92905  -0.00016   0.00074  -0.00133  -0.00059   1.92846
    R7        1.92894  -0.00012   0.00078  -0.00130  -0.00052   1.92842
    R8        1.93095  -0.00165  -0.00002  -0.00316  -0.00318   1.92777
    A1        2.21275  -0.00751  -0.01221  -0.02480  -0.03700   2.17575
    A2        2.05291   0.00474   0.00710   0.01690   0.02401   2.07692
    A3        2.01752   0.00277   0.00510   0.00789   0.01300   2.03052
    A4        1.91983  -0.00274  -0.00652  -0.00040  -0.00691   1.91292
    A5        1.72699   0.00079   0.00135   0.00192   0.00332   1.73031
    A6        1.71689   0.00084   0.00103   0.00228   0.00331   1.72020
    A7        2.40024  -0.00070   0.00639  -0.01101  -0.00457   2.39568
    A8        1.85123  -0.00017  -0.00337   0.00352   0.00003   1.85126
    A9        1.85625  -0.00028  -0.00367   0.00345  -0.00014   1.85611
   A10        1.85726  -0.00038  -0.00383   0.00275  -0.00106   1.85620
   A11        3.27030   0.00072   0.03862   0.08026   0.11889   3.38919
   A12        3.14322  -0.00005  -0.00142  -0.00739  -0.00880   3.13442
    D1        0.00006  -0.00001  -0.00002   0.00017   0.00015   0.00020
    D2       -3.14118  -0.00003  -0.00011  -0.00077  -0.00088   3.14112
    D3       -3.14124  -0.00002  -0.00009  -0.00092  -0.00101   3.14093
    D4        2.18019  -0.00001   0.00309   0.00110   0.00403   2.18423
    D5       -2.23028   0.00005  -0.00247   0.00028  -0.00207  -2.23235
    D6       -0.03397  -0.00002  -0.00040   0.00213   0.00176  -0.03221
         Item               Value     Threshold  Converged?
 Maximum Force            0.007506     0.000450     NO 
 RMS     Force            0.002394     0.000300     NO 
 Maximum Displacement     0.156252     0.001800     NO 
 RMS     Displacement     0.063441     0.001200     NO 
 Predicted change in Energy=-3.289595D-04
 GradGradGradGradGradGradGradGradGradGradGradGradGradGradGradGradGradGrad

                          Input orientation:                          
 ---------------------------------------------------------------------
 Center     Atomic      Atomic             Coordinates (Angstroms)
 Number     Number       Type             X           Y           Z
 ---------------------------------------------------------------------
      1          6           0       -0.503883   -0.197047   -0.336565
      2          7           0        0.265700   -1.229664   -0.368980
      3          1           0       -0.552289    0.524420    0.498512
      4          1           0       -1.167586   -0.000136   -1.190253
      5          1           0        0.822936   -1.274195    0.500229
      6          7           0        2.172311   -1.811796    2.088726
      7          1           0        1.848228   -2.763929    2.261438
      8          1           0        3.027236   -1.899843    1.538523
      9          1           0        2.451312   -1.434702    2.994608
 ---------------------------------------------------------------------
                    Distance matrix (angstroms):
                    1          2          3          4          5
     1  C    0.000000
     2  N    1.288258   0.000000
     3  H    1.104631   2.120957   0.000000
     4  H    1.099117   2.059257   1.872345   0.000000
     5  H    1.902872   1.033450   2.264125   2.905707   0.000000
     6  N    3.956193   3.164547   3.925574   5.018837   2.152475
     7  H    4.344068   3.431831   4.436623   5.352369   2.524359
     8  H    4.345604   3.422541   4.446535   5.352723   2.515637
     9  H    4.621870   4.016548   4.369242   5.715546   2.983169
                    6          7          8          9
     6  N    0.000000
     7  H    1.020498   0.000000
     8  H    1.020477   1.630739   0.000000
     9  H    1.020130   1.633429   1.633472   0.000000
 Stoichiometry    CH6N2
 Framework group  C1[X(CH6N2)]
 Deg. of freedom    21
 Full point group                 C1      NOp   1
 Largest Abelian subgroup         C1      NOp   1
 Largest concise Abelian subgroup C1      NOp   1
                         Standard orientation:                         
 ---------------------------------------------------------------------
 Center     Atomic      Atomic             Coordinates (Angstroms)
 Number     Number       Type             X           Y           Z
 ---------------------------------------------------------------------
      1          6           0       -1.835027    0.344376    0.000186
      2          7           0       -0.965361   -0.606039   -0.000324
      3          1           0       -1.588817    1.421212   -0.003669
      4          1           0       -2.903943    0.088523    0.004089
      5          1           0       -0.013073   -0.204608   -0.004662
      6          7           0        2.114794    0.119912   -0.000228
      7          1           0        2.359768   -0.422544    0.828715
      8          1           0        2.359000   -0.462891   -0.801525
      9          1           0        2.751196    0.916943   -0.020198
 ---------------------------------------------------------------------
 Rotational constants (GHZ):          44.4504855           3.4342641           3.2427853
 Standard basis: Aug-CC-pVDZ (5D, 7F)
 There are   129 symmetry adapted cartesian basis functions of A   symmetry.
 There are   123 symmetry adapted basis functions of A   symmetry.
   123 basis functions,   195 primitive gaussians,   129 cartesian basis functions
    13 alpha electrons       13 beta electrons
       nuclear repulsion energy        68.0692144391 Hartrees.
 NAtoms=    9 NActive=    9 NUniq=    9 SFac= 1.00D+00 NAtFMM=   60 NAOKFM=F Big=F
 Integral buffers will be    131072 words long.
 Raffenetti 1 integral format.
 Two-electron integral symmetry is turned on.
 One-electron integrals computed using PRISM.
 NBasis=   123 RedAO= T EigKep=  3.53D-04  NBF=   123
 NBsUse=   123 1.00D-06 EigRej= -1.00D+00 NBFU=   123
 Initial guess from the checkpoint file:  "/scr/Gau-79932.chk"
 B after Tr=     0.000000    0.000000    0.000000
         Rot=    0.999998   -0.000394    0.000031   -0.002186 Ang=  -0.25 deg.
 ExpMin= 2.97D-02 ExpMax= 9.05D+03 ExpMxC= 3.09D+02 IAcc=3 IRadAn=         5 AccDes= 0.00D+00
 Harris functional with IExCor=  205 and IRadAn=       5 diagonalized for initial guess.
 HarFok:  IExCor=  205 AccDes= 0.00D+00 IRadAn=         5 IDoV= 1 UseB2=F ITyADJ=14
 ICtDFT=  3500011 ScaDFX=  1.000000  1.000000  1.000000  1.000000
 FoFCou: FMM=F IPFlag=           0 FMFlag=      100000 FMFlg1=           0
         NFxFlg=           0 DoJE=T BraDBF=F KetDBF=T FulRan=T
         wScrn=  0.000000 ICntrl=       500 IOpCl=  0 I1Cent=   200000004 NGrid=           0
         NMat0=    1 NMatS0=      1 NMatT0=    0 NMatD0=    1 NMtDS0=    0 NMtDT0=    0
 Petite list used in FoFCou.
 Keep R1 ints in memory in canonical form, NReq=34232368.
 Requested convergence on RMS density matrix=1.00D-08 within 128 cycles.
 Requested convergence on MAX density matrix=1.00D-06.
 Requested convergence on             energy=1.00D-06.
 No special actions if energy rises.
 SCF Done:  E(RHF) =  -150.253717740     A.U. after   12 cycles
            NFock= 12  Conv=0.51D-08     -V/T= 2.0030
 ExpMin= 2.97D-02 ExpMax= 9.05D+03 ExpMxC= 3.09D+02 IAcc=3 IRadAn=         5 AccDes= 0.00D+00
 HarFok:  IExCor=  205 AccDes= 0.00D+00 IRadAn=         5 IDoV=-2 UseB2=F ITyADJ=14
 ICtDFT= 12500011 ScaDFX=  1.000000  1.000000  1.000000  1.000000
 Range of M.O.s used for correlation:     4   123
 NBasis=   123 NAE=    13 NBE=    13 NFC=     3 NFV=     0
 NROrb=    120 NOA=    10 NOB=    10 NVA=   110 NVB=   110

 **** Warning!!: The largest alpha MO coefficient is  0.15040882D+02

 Fully direct method using O(ONN) memory.
 JobTyp=1 Pass  1:  I=   4 to  13 NPSUse= 24 ParTrn=T ParDer=T DoDerP=T.
 Spin components of T(2) and E(2):
     alpha-alpha T2 =       0.2138825147D-01 E2=     -0.6167799471D-01
     alpha-beta  T2 =       0.1341815428D+00 E2=     -0.3975931948D+00
     beta-beta   T2 =       0.2138825147D-01 E2=     -0.6167799471D-01
 ANorm=    0.1084876973D+01
 E2 =    -0.5209491842D+00 EUMP2 =    -0.15077466692390D+03
          IDoAtm=111111111
          Differentiating once with respect to electric field.
                with respect to dipole field.
          Differentiating once with respect to nuclear coordinates.
 Keep R1 ints in memory in canonical form, NReq=34237243.
          There are     1 degrees of freedom in the 1st order CPHF.  IDoFFX=0 NUNeed=     1.
 LinEq1:  Iter=  0 NonCon=     1 RMS=4.29D-03 Max=5.25D-02 NDo=     1
 AX will form     1 AO Fock derivatives at one time.
 LinEq1:  Iter=  1 NonCon=     1 RMS=8.44D-04 Max=1.04D-02 NDo=     1
 LinEq1:  Iter=  2 NonCon=     1 RMS=3.20D-04 Max=4.26D-03 NDo=     1
 LinEq1:  Iter=  3 NonCon=     1 RMS=1.15D-04 Max=1.72D-03 NDo=     1
 LinEq1:  Iter=  4 NonCon=     1 RMS=3.74D-05 Max=3.98D-04 NDo=     1
 LinEq1:  Iter=  5 NonCon=     1 RMS=9.20D-06 Max=1.42D-04 NDo=     1
 LinEq1:  Iter=  6 NonCon=     1 RMS=2.14D-06 Max=2.13D-05 NDo=     1
 LinEq1:  Iter=  7 NonCon=     1 RMS=6.74D-07 Max=6.32D-06 NDo=     1
 LinEq1:  Iter=  8 NonCon=     1 RMS=1.96D-07 Max=1.60D-06 NDo=     1
 LinEq1:  Iter=  9 NonCon=     1 RMS=3.35D-08 Max=3.40D-07 NDo=     1
 LinEq1:  Iter= 10 NonCon=     1 RMS=6.65D-09 Max=6.17D-08 NDo=     1
 LinEq1:  Iter= 11 NonCon=     1 RMS=1.14D-09 Max=1.11D-08 NDo=     1
 LinEq1:  Iter= 12 NonCon=     1 RMS=1.83D-10 Max=1.25D-09 NDo=     1
 LinEq1:  Iter= 13 NonCon=     0 RMS=2.75D-11 Max=2.07D-10 NDo=     1
 Linear equations converged to 1.000D-10 1.000D-09 after    13 iterations.
 End of Minotr F.D. properties file   721 does not exist.
 End of Minotr F.D. properties file   722 does not exist.
 End of Minotr F.D. properties file   788 does not exist.
 Calling FoFJK, ICntrl=  10002127 FMM=F ISym2X=0 I1Cent= 0 IOpClX= 0 NMat=1 NMatS=1 NMatT=0.
 ***** Axes restored to original set *****
 -------------------------------------------------------------------
 Center     Atomic                   Forces (Hartrees/Bohr)
 Number     Number              X              Y              Z
 -------------------------------------------------------------------
      1        6          -0.000922452    0.000593970   -0.000913497
      2        7           0.000107132    0.000459811    0.000712277
      3        1           0.000896062   -0.000982458    0.000269824
      4        1           0.000188546   -0.000263719    0.000048614
      5        1          -0.000817415    0.000559421   -0.000545791
      6        7           0.000236415   -0.000236646    0.000149645
      7        1           0.000222281   -0.000090366    0.000201378
      8        1           0.000230751   -0.000124072    0.000226819
      9        1          -0.000141321    0.000084059   -0.000149268
 -------------------------------------------------------------------
 Cartesian Forces:  Max     0.000982458 RMS     0.000486776

 GradGradGradGradGradGradGradGradGradGradGradGradGradGradGradGradGradGrad
 Berny optimization.
 Using GEDIIS/GDIIS optimizer.
 FormGI is forming the generalized inverse of G from B-inverse, IUseBI=4.
 Internal  Forces:  Max     0.001588356 RMS     0.000493665
 Search for a local minimum.
 Step number   4 out of a maximum of   36
 All quantities printed in internal units (Hartrees-Bohrs-Radians)
 Mixed Optimization -- En-DIIS/RFO-DIIS
 Update second derivatives using D2CorX and points    1    2    3    4
 DE= -3.89D-04 DEPred=-3.29D-04 R= 1.18D+00
 TightC=F SS=  1.41D+00  RLast= 1.33D-01 DXNew= 1.4270D+00 3.9778D-01
 Trust test= 1.18D+00 RLast= 1.33D-01 DXMaxT set to 8.49D-01
 ITU=  1  1  1  0
 Use linear search instead of GDIIS.
     Eigenvalues ---    0.00230   0.00230   0.00728   0.01247   0.01392
     Eigenvalues ---    0.03181   0.05751   0.10914   0.15026   0.15712
     Eigenvalues ---    0.16000   0.16000   0.16960   0.19382   0.33503
     Eigenvalues ---    0.35575   0.40528   0.43810   0.43822   0.44277
     Eigenvalues ---    0.71719
 RFO step:  Lambda=-5.41770834D-05 EMin= 2.29995909D-03
 Quartic linear search produced a step of  0.20351.
 Iteration  1 RMS(Cart)=  0.01630521 RMS(Int)=  0.00007755
 Iteration  2 RMS(Cart)=  0.00009917 RMS(Int)=  0.00001902
 Iteration  3 RMS(Cart)=  0.00000001 RMS(Int)=  0.00001902
 Variable       Old X    -DE/DX   Delta X   Delta X   Delta X     New X
                                 (Linear)    (Quad)   (Total)
    R1        2.43445  -0.00063  -0.00104  -0.00003  -0.00107   2.43338
    R2        2.08745  -0.00048  -0.00188   0.00041  -0.00147   2.08598
    R3        2.07703  -0.00020   0.00156  -0.00261  -0.00105   2.07598
    R4        1.95294  -0.00025  -0.00036  -0.00180  -0.00215   1.95078
    R5        4.06759   0.00075   0.00628   0.04866   0.05494   4.12253
    R6        1.92846   0.00005  -0.00012  -0.00010  -0.00022   1.92824
    R7        1.92842   0.00008  -0.00011  -0.00002  -0.00013   1.92829
    R8        1.92777  -0.00014  -0.00065   0.00005  -0.00060   1.92717
    A1        2.17575  -0.00159  -0.00753  -0.00184  -0.00937   2.16638
    A2        2.07692   0.00053   0.00489  -0.00268   0.00220   2.07912
    A3        2.03052   0.00106   0.00265   0.00452   0.00717   2.03768
    A4        1.91292  -0.00057  -0.00141  -0.00239  -0.00380   1.90912
    A5        1.73031   0.00046   0.00068   0.00275   0.00344   1.73376
    A6        1.72020   0.00049   0.00067   0.00333   0.00398   1.72418
    A7        2.39568  -0.00048  -0.00093  -0.00646  -0.00739   2.38829
    A8        1.85126  -0.00015   0.00001   0.00022   0.00018   1.85145
    A9        1.85611  -0.00013  -0.00003   0.00056   0.00056   1.85667
   A10        1.85620  -0.00015  -0.00022   0.00076   0.00053   1.85673
   A11        3.38919  -0.00010   0.02420  -0.02669  -0.00249   3.38670
   A12        3.13442   0.00003  -0.00179   0.01745   0.01567   3.15009
    D1        0.00020   0.00000   0.00003  -0.00080  -0.00077  -0.00057
    D2        3.14112   0.00003  -0.00018   0.00216   0.00197  -3.14009
    D3        3.14093   0.00003  -0.00021   0.00288   0.00268  -3.13957
    D4        2.18423   0.00000   0.00082  -0.00021   0.00055   2.18478
    D5       -2.23235  -0.00001  -0.00042   0.00251   0.00212  -2.23023
    D6       -0.03221   0.00000   0.00036  -0.00431  -0.00393  -0.03614
         Item               Value     Threshold  Converged?
 Maximum Force            0.001588     0.000450     NO 
 RMS     Force            0.000494     0.000300     NO 
 Maximum Displacement     0.031170     0.001800     NO 
 RMS     Displacement     0.016296     0.001200     NO 
 Predicted change in Energy=-3.867494D-05
 GradGradGradGradGradGradGradGradGradGradGradGradGradGradGradGradGradGrad

                          Input orientation:                          
 ---------------------------------------------------------------------
 Center     Atomic      Atomic             Coordinates (Angstroms)
 Number     Number       Type             X           Y           Z
 ---------------------------------------------------------------------
      1          6           0       -0.509615   -0.192417   -0.344152
      2          7           0        0.255786   -1.227242   -0.382112
      3          1           0       -0.552454    0.515437    0.501779
      4          1           0       -1.170431    0.015429   -1.196773
      5          1           0        0.806441   -1.278280    0.489575
      6          7           0        2.180575   -1.816295    2.096263
      7          1           0        1.860829   -2.768538    2.275637
      8          1           0        3.035991   -1.904151    1.546920
      9          1           0        2.456841   -1.430835    2.999102
 ---------------------------------------------------------------------
                    Distance matrix (angstroms):
                    1          2          3          4          5
     1  C    0.000000
     2  N    1.287689   0.000000
     3  H    1.103852   2.114579   0.000000
     4  H    1.098563   2.059611   1.875361   0.000000
     5  H    1.899000   1.032310   2.250369   2.902666   0.000000
     6  N    3.978659   3.192826   3.930496   5.042671   2.181548
     7  H    4.372493   3.466321   4.444659   5.384852   2.553942
     8  H    4.367780   3.450928   4.452377   5.376487   2.545699
     9  H    4.637983   4.039641   4.368118   5.731853   3.007460
                    6          7          8          9
     6  N    0.000000
     7  H    1.020382   0.000000
     8  H    1.020408   1.630705   0.000000
     9  H    1.019814   1.633427   1.633485   0.000000
 Stoichiometry    CH6N2
 Framework group  C1[X(CH6N2)]
 Deg. of freedom    21
 Full point group                 C1      NOp   1
 Largest Abelian subgroup         C1      NOp   1
 Largest concise Abelian subgroup C1      NOp   1
                         Standard orientation:                         
 ---------------------------------------------------------------------
 Center     Atomic      Atomic             Coordinates (Angstroms)
 Number     Number       Type             X           Y           Z
 ---------------------------------------------------------------------
      1          6           0       -1.842169    0.347352   -0.000704
      2          7           0       -0.979119   -0.608307    0.000494
      3          1           0       -1.579052    1.419380    0.003389
      4          1           0       -2.912742    0.100973   -0.004122
      5          1           0       -0.026788   -0.209925    0.005237
      6          7           0        2.129898    0.118431   -0.000693
      7          1           0        2.381758   -0.420989    0.828024
      8          1           0        2.374084   -0.464119   -0.802092
      9          1           0        2.760300    0.919701   -0.024818
 ---------------------------------------------------------------------
 Rotational constants (GHZ):          44.2091829           3.3920373           3.2038487
 Standard basis: Aug-CC-pVDZ (5D, 7F)
 There are   129 symmetry adapted cartesian basis functions of A   symmetry.
 There are   123 symmetry adapted basis functions of A   symmetry.
   123 basis functions,   195 primitive gaussians,   129 cartesian basis functions
    13 alpha electrons       13 beta electrons
       nuclear repulsion energy        67.9199421480 Hartrees.
 NAtoms=    9 NActive=    9 NUniq=    9 SFac= 1.00D+00 NAtFMM=   60 NAOKFM=F Big=F
 Integral buffers will be    131072 words long.
 Raffenetti 1 integral format.
 Two-electron integral symmetry is turned on.
 One-electron integrals computed using PRISM.
 NBasis=   123 RedAO= T EigKep=  3.55D-04  NBF=   123
 NBsUse=   123 1.00D-06 EigRej= -1.00D+00 NBFU=   123
 Initial guess from the checkpoint file:  "/scr/Gau-79932.chk"
 B after Tr=    -0.000000    0.000000   -0.000000
         Rot=    1.000000    0.000275   -0.000065    0.000677 Ang=   0.08 deg.
 ExpMin= 2.97D-02 ExpMax= 9.05D+03 ExpMxC= 3.09D+02 IAcc=3 IRadAn=         5 AccDes= 0.00D+00
 Harris functional with IExCor=  205 and IRadAn=       5 diagonalized for initial guess.
 HarFok:  IExCor=  205 AccDes= 0.00D+00 IRadAn=         5 IDoV= 1 UseB2=F ITyADJ=14
 ICtDFT=  3500011 ScaDFX=  1.000000  1.000000  1.000000  1.000000
 FoFCou: FMM=F IPFlag=           0 FMFlag=      100000 FMFlg1=           0
         NFxFlg=           0 DoJE=T BraDBF=F KetDBF=T FulRan=T
         wScrn=  0.000000 ICntrl=       500 IOpCl=  0 I1Cent=   200000004 NGrid=           0
         NMat0=    1 NMatS0=      1 NMatT0=    0 NMatD0=    1 NMtDS0=    0 NMtDT0=    0
 Petite list used in FoFCou.
 Keep R1 ints in memory in canonical form, NReq=34232212.
 Requested convergence on RMS density matrix=1.00D-08 within 128 cycles.
 Requested convergence on MAX density matrix=1.00D-06.
 Requested convergence on             energy=1.00D-06.
 No special actions if energy rises.
 SCF Done:  E(RHF) =  -150.254051463     A.U. after   11 cycles
            NFock= 11  Conv=0.37D-08     -V/T= 2.0030
 ExpMin= 2.97D-02 ExpMax= 9.05D+03 ExpMxC= 3.09D+02 IAcc=3 IRadAn=         5 AccDes= 0.00D+00
 HarFok:  IExCor=  205 AccDes= 0.00D+00 IRadAn=         5 IDoV=-2 UseB2=F ITyADJ=14
 ICtDFT= 12500011 ScaDFX=  1.000000  1.000000  1.000000  1.000000
 Range of M.O.s used for correlation:     4   123
 NBasis=   123 NAE=    13 NBE=    13 NFC=     3 NFV=     0
 NROrb=    120 NOA=    10 NOB=    10 NVA=   110 NVB=   110

 **** Warning!!: The largest alpha MO coefficient is  0.15024268D+02

 Fully direct method using O(ONN) memory.
 JobTyp=1 Pass  1:  I=   4 to  13 NPSUse= 24 ParTrn=T ParDer=T DoDerP=T.
 Spin components of T(2) and E(2):
     alpha-alpha T2 =       0.2135826824D-01 E2=     -0.6162249039D-01
     alpha-beta  T2 =       0.1340660041D+00 E2=     -0.3974209440D+00
     beta-beta   T2 =       0.2135826824D-01 E2=     -0.6162249039D-01
 ANorm=    0.1084796082D+01
 E2 =    -0.5206659248D+00 EUMP2 =    -0.15077471738794D+03
          IDoAtm=111111111
          Differentiating once with respect to electric field.
                with respect to dipole field.
          Differentiating once with respect to nuclear coordinates.
 Keep R1 ints in memory in canonical form, NReq=34237048.
          There are     1 degrees of freedom in the 1st order CPHF.  IDoFFX=0 NUNeed=     1.
 LinEq1:  Iter=  0 NonCon=     1 RMS=4.28D-03 Max=5.25D-02 NDo=     1
 AX will form     1 AO Fock derivatives at one time.
 LinEq1:  Iter=  1 NonCon=     1 RMS=8.40D-04 Max=1.03D-02 NDo=     1
 LinEq1:  Iter=  2 NonCon=     1 RMS=3.19D-04 Max=4.22D-03 NDo=     1
 LinEq1:  Iter=  3 NonCon=     1 RMS=1.14D-04 Max=1.70D-03 NDo=     1
 LinEq1:  Iter=  4 NonCon=     1 RMS=3.70D-05 Max=3.87D-04 NDo=     1
 LinEq1:  Iter=  5 NonCon=     1 RMS=9.08D-06 Max=1.39D-04 NDo=     1
 LinEq1:  Iter=  6 NonCon=     1 RMS=2.10D-06 Max=2.26D-05 NDo=     1
 LinEq1:  Iter=  7 NonCon=     1 RMS=6.48D-07 Max=6.12D-06 NDo=     1
 LinEq1:  Iter=  8 NonCon=     1 RMS=1.94D-07 Max=1.57D-06 NDo=     1
 LinEq1:  Iter=  9 NonCon=     1 RMS=3.31D-08 Max=3.35D-07 NDo=     1
 LinEq1:  Iter= 10 NonCon=     1 RMS=6.52D-09 Max=6.08D-08 NDo=     1
 LinEq1:  Iter= 11 NonCon=     1 RMS=1.12D-09 Max=1.09D-08 NDo=     1
 LinEq1:  Iter= 12 NonCon=     1 RMS=1.82D-10 Max=1.25D-09 NDo=     1
 LinEq1:  Iter= 13 NonCon=     0 RMS=2.70D-11 Max=2.32D-10 NDo=     1
 Linear equations converged to 1.000D-10 1.000D-09 after    13 iterations.
 End of Minotr F.D. properties file   721 does not exist.
 End of Minotr F.D. properties file   722 does not exist.
 End of Minotr F.D. properties file   788 does not exist.
 Calling FoFJK, ICntrl=  10002127 FMM=F ISym2X=0 I1Cent= 0 IOpClX= 0 NMat=1 NMatS=1 NMatT=0.
 ***** Axes restored to original set *****
 -------------------------------------------------------------------
 Center     Atomic                   Forces (Hartrees/Bohr)
 Number     Number              X              Y              Z
 -------------------------------------------------------------------
      1        6          -0.000757377    0.000666978   -0.000009976
      2        7           0.000215998   -0.000434517   -0.000064874
      3        1           0.000172066   -0.000129156    0.000024969
      4        1           0.000106748   -0.000039343   -0.000084363
      5        1           0.000031463    0.000193363   -0.000010632
      6        7          -0.000134423   -0.000192809   -0.000374790
      7        1           0.000208913   -0.000123239    0.000241413
      8        1           0.000216237   -0.000080674    0.000208846
      9        1          -0.000059625    0.000139398    0.000069407
 -------------------------------------------------------------------
 Cartesian Forces:  Max     0.000757377 RMS     0.000258287

 GradGradGradGradGradGradGradGradGradGradGradGradGradGradGradGradGradGrad
 Berny optimization.
 Using GEDIIS/GDIIS optimizer.
 FormGI is forming the generalized inverse of G from B-inverse, IUseBI=4.
 Internal  Forces:  Max     0.000683002 RMS     0.000237632
 Search for a local minimum.
 Step number   5 out of a maximum of   36
 All quantities printed in internal units (Hartrees-Bohrs-Radians)
 Mixed Optimization -- En-DIIS/RFO-DIIS
 Swapping is turned off.
 Update second derivatives using D2CorX and points    2    3    4    5
 DE= -5.05D-05 DEPred=-3.87D-05 R= 1.30D+00
 TightC=F SS=  1.41D+00  RLast= 5.96D-02 DXNew= 1.4270D+00 1.7881D-01
 Trust test= 1.30D+00 RLast= 5.96D-02 DXMaxT set to 8.49D-01
 ITU=  1  1  1  1  0
     Eigenvalues ---    0.00230   0.00238   0.00756   0.00885   0.01284
     Eigenvalues ---    0.03190   0.05829   0.10912   0.13141   0.15735
     Eigenvalues ---    0.16000   0.16227   0.18745   0.19648   0.33544
     Eigenvalues ---    0.35594   0.40962   0.43809   0.43826   0.44452
     Eigenvalues ---    0.75401
 En-DIIS/RFO-DIIS/Sim-DIIS IScMMF=       -3 using points:     5    4
 RFO step:  Lambda=-3.35347483D-05.
 DidBck=F Rises=F RFO-DIIS coefs:    1.60274   -0.60274
 Iteration  1 RMS(Cart)=  0.02474680 RMS(Int)=  0.00030632
 Iteration  2 RMS(Cart)=  0.00047319 RMS(Int)=  0.00003273
 Iteration  3 RMS(Cart)=  0.00000009 RMS(Int)=  0.00003273
 Variable       Old X    -DE/DX   Delta X   Delta X   Delta X     New X
                                 (Linear)    (Quad)   (Total)
    R1        2.43338   0.00068  -0.00065   0.00139   0.00074   2.43412
    R2        2.08598  -0.00007  -0.00089   0.00010  -0.00079   2.08519
    R3        2.07598  -0.00001  -0.00063   0.00032  -0.00031   2.07567
    R4        1.95078   0.00026  -0.00130   0.00068  -0.00062   1.95017
    R5        4.12253   0.00032   0.03311   0.01504   0.04816   4.17068
    R6        1.92824   0.00009  -0.00013   0.00016   0.00003   1.92827
    R7        1.92829   0.00008  -0.00008   0.00008   0.00000   1.92829
    R8        1.92717   0.00010  -0.00036   0.00027  -0.00009   1.92708
    A1        2.16638  -0.00020  -0.00565   0.00146  -0.00420   2.16218
    A2        2.07912  -0.00001   0.00133  -0.00112   0.00020   2.07932
    A3        2.03768   0.00021   0.00432  -0.00032   0.00398   2.04167
    A4        1.90912   0.00010  -0.00229   0.00067  -0.00162   1.90749
    A5        1.73376   0.00048   0.00207   0.00368   0.00570   1.73945
    A6        1.72418   0.00043   0.00240   0.00280   0.00526   1.72943
    A7        2.38829  -0.00043  -0.00445  -0.00406  -0.00851   2.37978
    A8        1.85145  -0.00012   0.00011  -0.00023  -0.00014   1.85131
    A9        1.85667  -0.00015   0.00034  -0.00053  -0.00026   1.85641
   A10        1.85673  -0.00016   0.00032  -0.00096  -0.00057   1.85616
   A11        3.38670  -0.00015  -0.00150  -0.01835  -0.01985   3.36685
   A12        3.15009  -0.00008   0.00944  -0.05049  -0.04107   3.10902
    D1       -0.00057   0.00000  -0.00046   0.00323   0.00277   0.00220
    D2       -3.14009  -0.00008   0.00119  -0.00737  -0.00618   3.13691
    D3       -3.13957  -0.00008   0.00162  -0.01038  -0.00877   3.13485
    D4        2.18478  -0.00000   0.00033  -0.00188  -0.00153   2.18325
    D5       -2.23023   0.00002   0.00128   0.00005   0.00139  -2.22884
    D6       -0.03614   0.00000  -0.00237   0.01755   0.01511  -0.02103
         Item               Value     Threshold  Converged?
 Maximum Force            0.000683     0.000450     NO 
 RMS     Force            0.000238     0.000300     YES
 Maximum Displacement     0.063389     0.001800     NO 
 RMS     Displacement     0.024764     0.001200     NO 
 Predicted change in Energy=-1.686764D-05
 GradGradGradGradGradGradGradGradGradGradGradGradGradGradGradGradGradGrad

                          Input orientation:                          
 ---------------------------------------------------------------------
 Center     Atomic      Atomic             Coordinates (Angstroms)
 Number     Number       Type             X           Y           Z
 ---------------------------------------------------------------------
      1          6           0       -0.517439   -0.191384   -0.345109
      2          7           0        0.244221   -1.228689   -0.400153
      3          1           0       -0.529353    0.518970    0.499181
      4          1           0       -1.197490    0.017767   -1.181927
      5          1           0        0.818428   -1.275862    0.456031
      6          7           0        2.185061   -1.819965    2.101404
      7          1           0        1.866623   -2.772698    2.280591
      8          1           0        3.051375   -1.907035    1.569283
      9          1           0        2.442538   -1.427996    3.006938
 ---------------------------------------------------------------------
                    Distance matrix (angstroms):
                    1          2          3          4          5
     1  C    0.000000
     2  N    1.288083   0.000000
     3  H    1.103435   2.112233   0.000000
     4  H    1.098398   2.059940   1.877162   0.000000
     5  H    1.898015   1.031984   2.244950   2.901777   0.000000
     6  N    3.992644   3.220909   3.925019   5.059562   2.207031
     7  H    4.386484   3.493214   4.444008   5.400419   2.582296
     8  H    4.398270   3.495560   4.455584   5.415429   2.573666
     9  H    4.639708   4.059629   4.348754   5.734686   3.027871
                    6          7          8          9
     6  N    0.000000
     7  H    1.020398   0.000000
     8  H    1.020409   1.630635   0.000000
     9  H    1.019767   1.633243   1.633099   0.000000
 Stoichiometry    CH6N2
 Framework group  C1[X(CH6N2)]
 Deg. of freedom    21
 Full point group                 C1      NOp   1
 Largest Abelian subgroup         C1      NOp   1
 Largest concise Abelian subgroup C1      NOp   1
                         Standard orientation:                         
 ---------------------------------------------------------------------
 Center     Atomic      Atomic             Coordinates (Angstroms)
 Number     Number       Type             X           Y           Z
[...]
 768,-0.00005376,-0.00000476,-0.00005659,0.00001443,0.00003064,-0.00017
 324,0.00015815,-0.00048961,0.00007270,-0.00006685,0.00002769,0.0002075
 2,0.00004173,-0.00003673,0.00004252,0.00000412,0.00002486,-0.00002079,
 -0.00000493,-0.00000322,-0.00000434,-0.00000196,0.00002293,0.00000329,
 0.00001736,-0.00001921,-0.00004595,0.00006642,-0.00003649,0.00017556,0
 .00000676,0.00004663,-0.00005821,-0.00012605,-0.00001329,-0.00002325,0
 .00007836,0.00000516,-0.00006416,-0.00004309,0.00000408,0.00000474,0.0
 0000999,0.00001882,-0.00003418,-0.00003172,-0.00007468,-0.00003049,0.0
 0000665,0.00016090,-0.00008809,0.00007758,-0.00041697,-0.00000666,-0.0
 0003785,0.00000459,0.00029735,-0.00009099,0.00022122,0.00027498,-0.000
 37774,0.00008450,-0.00028674,0.00025183,-0.00013284,0.00000191,-0.0000
 5486,-0.00007792,-0.00009676,0.00018070,0.00001543,0.00023900,-0.00015
 804,0.00018367,-0.00033366,0.00031978,-0.00026309,0.00002465,-0.000036
 60,0.00004666,0.00000288,-0.00000345,-0.00005526,0.00017374,-0.0002615
 8,0.00026770,-0.00002273,0.00022417,-0.00023160,0.00010187,0.00000712,
 0.00004356,0.00005665,0.00011545,-0.00013233,-0.00001139,-0.00020008,0
 .00013761,-0.00017765,0.00016823,-0.00018459,-0.00001725,0.00005001,0.
 00000199,0.00009736,0.00001829,0.00001453,0.00003108,-0.00012162,0.000
 08313,0.00023363,-0.00021802,0.00004988,-0.00017278,0.00015286,-0.0001
 1210,-0.00000096,-0.00004588,-0.00005114,-0.00006655,0.00009576,0.0000
 4132,0.00013098,-0.00010883,0.00009952,-0.00044499,0.00023083,-0.00039
 296,0.00000982,-0.00004769,0.00006708,0.00011201,-0.00000109,0.0000768
 9,0.00019885,-0.00005794,0.00022151,-0.00628460,0.00634676,-0.01905077
 ,0.00251014,-0.00955706,-0.01072053,0.00131804,-0.02303660,-0.00094756
 ,0.98960323,-0.03860830,0.03081480,-0.00627844,-0.45208195,-0.85345316
 ,-0.02050819,0.01970421,-0.02495548,2.62859347,-0.65709862,2.62285725,
 0.00256152,0.00077915,0.00129992,0.00329748,0.00532191,-0.00122864,-0.
 00311220,-0.00008769,0.00089367,-0.00197091,0.00600219,-0.00231385,-0.
 00303525,0.00198840,-0.00252389,0.00021128,-0.00052122,0.00203653,-0.0
 0037581,-0.00416986,0.00219839,-0.00009036,0.00210092,0.00095033,-0.00
 115908,0.00186882,-0.00563974,-0.00578883,-0.00143654,0.00026360,-0.00
 000610,0.00019717,-0.00058536,0.00044097,0.00352237,0.00417410,0.00653
 353,-0.00055603,-0.00272883,0.00448842,0.00033968,-0.00010398,-0.00020
 517,-0.00277206,-0.00379399,-0.00354900,0.00376345,0.00241750,0.001361
 49,0.00303090,-0.00095688,-0.00042560,-0.00041973,-0.00073492,0.005192
 24,-0.00339846,-0.00036560,0.00298490,0.01821039,0.00690041,-0.9857440
 3,0.48467330,-2.60337524,-0.00271702,-0.00997598,-0.00101811,0.0080667
 6,-0.00248149,-0.00311113,0.97297515,0.02954029,-0.01871013,0.01000201
 ,0.46836156,0.82762815,0.63515805,-0.00841367,0.00457970,0.00383352,0.
 00201981,0.00313788,-0.00283457,-0.48872320,-0.81034009,0.02112543,-0.
 00890740,0.03657679,-2.62386733,0.66236714,-2.59507305,0.00095987,0.00
 121257,-0.00651671,0.00252285,-0.01031294,-0.00065977,2.58395068,-0.64
 222595,2.54975773,0.00046709,-0.00306731,-0.00304128,-0.00149032,0.001
 49428,-0.00269733,-0.00001719,0.00139828,0.00135320,-0.00119874,0.0013
 9954,0.00042828,0.00112200,-0.00239883,0.01072348,0.00992604,-0.000557
 27,0.00124228,0.00065401,0.00065076,0.00060361,0.00024987,-0.00005265,
 -0.00028198,-0.00072675,-0.00008753,-0.00036699,-0.00009913,0.00063904
 ,-0.00754884,0.00057154,-0.00206781,0.01307641,0.00010801,-0.00352533,
 -0.00425565,-0.00375575,0.00165871,-0.00291817,-0.00046748,0.00169124,
 0.00156539,-0.00143249,0.00237226,0.00018627,0.01450180,-0.00447870,0.
 01141045,-0.00407949,-0.00071236,0.00312065,0.00013350,-0.00049480,-0.
 00035848,-0.00070552,0.00028792,-0.00045807,0.00003965,0.00011728,0.00
 022780,-0.00005648,0.00018021,0.00000256,0.00194941,0.00176225,0.00115
 104,-0.00365032,-0.00357147,-0.00204316,0.00135961,0.00004948,0.000021
 29,0.00007823,-0.00037232,0.00009009,-0.00042383,-0.00003091,0.0000009
 7,-0.00007304,-0.00003362,-0.00002453,-0.00003680,0.00086317,-0.000438
 48,0.00111777,-0.00051148,-0.00325836,0.00164303,0.00096347,0.00271490
 ,0.00011177,-0.00031895,-0.00024714,-0.00055482,0.00009400,-0.00048808
 ,0.00000284,0.00009708,0.00018204,-0.00002436,0.00013967,0.00000879,0.
 00167324,0.00158190,0.00041977,-0.00357639,-0.00045883,-0.00146791,0.0
 0158139,-0.00140031,0.00090860,0.00002939,-0.00019602,-0.00019533,0.00
 003231,0.00003642,-0.00002522,0.00005774,0.00007798,0.00014268,-0.0000
 5353,0.00004388,0.00007525,-0.00141632,0.00001178,0.00039388,-0.003103
 32,0.00136594,-0.00127290,0.00055891,-0.00040749,0.00051321,0.00335821
 ,-0.00006651,0.00021448,0.00021446,0.00006548,-0.00018309,-0.00002334,
 -0.00003963,-0.00004238,-0.00012294,0.00005498,-0.00005387,-0.00003696
 ,0.00052131,-0.00017681,-0.00071424,0.00010302,0.00052841,0.00208324,0
 .00004146,0.00038135,-0.00011316,-0.00073104,-0.00083196,0.00017188,-0
 .00050204,-0.00033409,-0.00067823,0.00049390,-0.00096457,0.00003450,0.
 00014650,0.00021048,-0.00014714,0.00012215,0.00004017,-0.00065877,-0.0
 0052432,0.00348097,0.00247367,0.00122266,-0.00578467,-0.00026945,-0.00
 040959,0.00023900,-0.00030222,-0.00089205,0.00248796,-0.00005077,-0.00
 041039,-0.00052808,-0.00052238,0.00031297,-0.00056438,-0.00010387,0.00
 028237,0.00013469,-0.00024496,0.00032391,0.00002591,0.00277914,-0.0021
 5998,0.00304009,-0.00205524,0.00368099,-0.00155853,0.00037124,-0.00052
 031,0.00027313,0.00053660,0.00005094,-0.00062423,-0.00070977,-0.000139
 13,0.00040028,0.00032416,0.00096691,-0.00045773,0.00098049,0.00010773,
 -0.00020826,-0.00011547,0.00018897,-0.00023979,0.00003130,-0.00372654,
 0.00186860,-0.00310851,0.00365031,-0.00399452,-0.00073209,0.00071369,0
 .00051277,0.00037860,-0.00020144,0.00016386,0.00034280,-0.00156050,0.0
 0195481,-0.00018132,-0.00013567,-0.00051793,0.00022454,-0.00009775,0.0
 0030058,-0.00008505,0.00017758,0.00010848,-0.00014961,0.00026054,0.000
 06443,0.00113712,-0.00051193,0.00060381,-0.00158413,-0.00070101,-0.001
 85635,0.00016639,-0.00049547,0.00044494,0.00067065,-0.00039501,0.00062
 476,-0.00019860,0.00189872,0.00022728,0.00036561,-0.00042025,0.0007141
 1,0.00011147,0.00020411,0.00052297,-0.00004349,0.00048123,0.00022738,0
 .00157827,0.00020222,-0.00037522,-0.00038545,-0.00086160,-0.00121914,-
 0.00015884,0.00013764,0.00003849,0.00421837,-0.00097438,0.00430651,-0.
 00007248,-0.00004645,-0.00002712,-0.00003292,0.00008470,0.00000371,0.0
 0008398,0.00003725,-0.00019481,-0.00004526,-0.00008345,0.00013228,-0.0
 0004866,-0.00002310,0.00007944,0.00007509,-0.00017718,-0.00021697,-0.0
 0020919,0.00022846,-0.00002562,0.00003989,0.00000311,0.00014096,-0.000
 15983,0.00013863,-0.00004935,0.00010089,-0.00014131,0.00004432,0.00002
 146,-0.00001426,0.00000420,0.00007686,0.00008386,-0.00012936,0.0000023
 9,-0.00016170,0.00012052,-0.00005601,-0.00000742,0.00001875,-0.0000198
 1,0.00000414,0.00003006,-0.00010146,0.00007749,-0.00012510,0.00001198,
 -0.00001374,-0.00002310,-0.00000573,-0.00000884,-0.00000679,0.00004786
 ,-0.00002038,0.00012107,-0.00003370,-0.00034904,-0.00037642,-0.0017779
 4,0.00086819,-0.00440576,0.00003185,0.00008845,0.00014836,-0.00009070,
 0.00011058,0.00006920,0.00199701,0.00002305,0.00006154,0.00022310,0.00
 069915,0.00144809,0.00104377,-0.00004445,0.00000170,-0.00005030,-0.000
 00378,-0.00004596,-0.00001756,-0.00061911,-0.00159681,0.00011022,-0.00
 044336,-0.00043363,-0.00464760,0.00138043,-0.00454472,-0.00000475,0.00
 015301,0.00018643,-0.00008381,0.00018740,0.00004978,0.00476507,-0.0013
 7374,0.00493341,0.00008610,0.00023528,0.00005573,0.00031442,-0.0000996
 7,0.00037036,-0.00011259,0.00002186,-0.00004841,0.00002866,-0.00004999
 ,-0.00001889,-0.00094253,-0.00029253,0.00015506,0.84972362,0.00002935,
 0.00002783,-0.00018987,-0.00004706,0.00001746,-0.00008216,0.00008296,-
 0.00011872,0.00007070,0.00000452,0.00000289,0.00000780,-0.00009671,-0.
 00088512,0.00029343,0.37423937,1.32891187,-0.00019255,0.00013593,0.000
 09023,0.00043633,-0.00016573,0.00053016,0.00002162,-0.00002380,-0.0000
 6283,0.00004840,-0.00008110,-0.00001965,0.00039578,-0.00001997,-0.0006
 2364,-0.70760260,0.34111549,0.80726961,-0.00012218,0.00011955,0.000076
 71,-0.00012868,-0.00009261,-0.00008227,-0.00000107,-0.00000661,-0.0000
 2501,0.00005854,-0.00003901,-0.00000224,0.00004416,0.00046222,-0.00046
 556,0.20051742,-0.38077222,0.14304853,-0.21262574,-0.00013559,0.000164
 69,0.00018548,-0.00007032,-0.00010579,-0.00005311,-0.00007267,0.000049
 74,-0.00009769,0.00006212,-0.00006141,-0.00001071,-0.00008652,0.000596
 76,-0.00071360,-0.41565171,-1.30035714,0.55158344,0.41625920,1.3010644
 0,0.00005239,0.00001469,0.00009171,-0.00008449,-0.00006875,-0.00009216
 ,0.00000158,-0.00003113,0.00001214,0.00000066,0.00000178,-0.00000927,0
 .00014089,0.00005691,0.00005114,0.16085082,0.57453486,0.09272851,-0.15
 873842,-0.55907584,-0.11584534,0.00003736,-0.00020477,-0.00002089,-0.0
 0004412,0.00000597,0.00001397,0.00009446,-0.00002862,0.00005984,-0.000
 03560,0.00006159,-0.00000639,0.00072157,-0.00002973,0.00026614,-1.3220
 2530,0.10605834,0.68532254,0.00072884,0.00809170,0.00540091,1.31075769
 ,0.00004965,-0.00002097,0.00006811,0.00000202,-0.00002721,0.00001523,-
 0.00002058,0.00002043,-0.00002351,-0.00000753,0.00001229,-0.00001356,0
 .00009964,0.00000930,0.00001077,0.12113142,0.28021679,-0.05944906,-0.0
 3497530,0.00880050,0.01680012,-0.10766988,-0.29784095,-0.00000310,0.00
 024515,0.00012774,0.00004078,0.00000357,-0.00026180,-0.00003149,0.0000
 0106,-0.00005515,0.00003154,-0.00007997,0.00000921,-0.00085663,-0.0000
 7726,-0.00004259,0.64357220,-0.04993519,0.03382663,0.01224826,-0.00439
 255,0.00742637,-0.68584278,0.05569137,-0.03944352,-0.00005740,0.000045
 80,0.00000248,0.00003355,0.00003410,-0.00000387,-0.00001268,0.00000848
 ,-0.00004477,-0.00000029,-0.00000205,0.00000566,0.00005028,-0.00019481
 ,-0.00009477,0.27241020,-0.09949856,-0.12147804,0.01152870,-0.00839622
 ,-0.00762433,0.00976511,0.02139057,0.03084121,-0.29371747,0.00013046,-
 0.00024782,-0.00006261,0.00004174,0.00000901,0.00001768,0.00004701,0.0
 0001119,0.00006621,-0.00004254,0.00005222,-0.00000050,-0.00001548,0.00
 041050,0.00050565,-0.07953405,-0.30781587,-0.83309521,-0.00095522,-0.0
 1015174,-0.03223263,-0.00628460,0.00882983,-0.00145618,0.08661269,0.30
 890268,0.00010677,-0.00019447,-0.00009544,0.00000644,-0.00000439,0.000
 07223,0.00000228,0.00000049,0.00002781,-0.00004383,0.00006570,0.000003
 83,0.00011951,0.00021505,0.00042382,-0.09733426,-0.86581506,-0.9337390
 2,0.00394000,0.01257456,0.01563690,-0.00519334,-0.01309946,-0.00158690
 ,0.09839644,0.86625757,0.91925676,-0.00014937,-0.00006629,-0.00015455,
 -0.00001372,-0.00000231,-0.00015198,0.00002786,-0.00002308,-0.00014354
 ,0.00026701,0.00001028,0.00016779,0.00006198,-0.00000017,0.00004524,-0
 .00012354,0.00003963,-0.00010107,0.00025899,-0.00009611,0.00053720,0.0
 0007228,0.00006466,0.00001715,-0.00002771,0.00000029,0.00003933,-0.000
 02470,0.00008202,0.00000103,-0.00000346,-0.00001354,-0.00001777,-0.000
 00470,-0.00005480,0.00001857,0.00002983,-0.00001756,0.00009518,0.00002
 495,0.00001119,0.00001418,-0.00000047,0.00002314,-0.00000047,0.0000391
 5,0.00006407,0.00006538,-0.00001399,0.00001565,-0.00002170,-0.00004746
 ,-0.00002952,-0.00005047,0.00003345,0.00002446,0.00000030,-0.00004275,
 0.00003479,-0.00001323,0.00004962,0.00000363,-0.00003064,-0.00000127,-
 0.00006104,0.00005923,0.00002978,0.00001370,0.00011848,0.00000022,0.00
 001754,0.00003354,-0.00002433,-0.00003727,-0.00012227,-0.00000279,0.00
 000338,-0.00002145,-0.00001494,-0.00005046,0.00010952,-0.00025658,-0.0
 0013233,-0.00003240,0.00004513,-0.00000957,-0.00001890,0.00000213,-0.0
 0002004,0.00000122,0.00047418,-0.00007075,-0.00003658,-0.00001016,-0.0
 0012188,-0.00023312,-0.00007007,-0.00002292,0.00005909,-0.00000213,-0.
 00000598,-0.00000094,-0.00000369,0.00040514,0.00048443,0.00010038,-0.0
 0001006,0.00005009,-0.00004852,-0.00004296,-0.00054240,-0.00002651,0.0
 0000782,0.00001230,0.00001500,-0.00001804,-0.00001236,-0.00021187,0.00
 011392,0.00076590,0.00019130,0.00014287,-0.00015774,0.00060448,0.00035
 381,-0.00017313,-0.00005962,-0.00003297,0.00004387,-0.00009146,-0.0000
 2589,0.00002750,-0.00160432,-0.00084487,0.00069017,1.77979392,0.000161
 96,-0.00008142,-0.00031042,0.00048199,0.00043722,0.00016762,-0.0000369
 3,-0.00002414,0.00004483,-0.00007958,0.00002354,0.00005310,-0.00031993
 ,-0.00143166,0.00091892,0.34210037,1.59408750,-0.00013007,-0.00036841,
 -0.00026870,-0.00000495,-0.00005142,0.00091191,0.00003381,0.00006159,0
 .00001812,-0.00004431,0.00015328,-0.00001317,0.00135019,0.00006104,-0.
 00035415,-1.29994819,-0.83160587,-0.34464711,-0.00012485,0.00002865,0.
 00007066,-0.00037326,-0.00003487,-0.00025903,-0.00000959,-0.00000749,-
 0.00001408,0.00003553,-0.00000509,-0.00002457,0.00040428,0.00048045,-0
 .00030630,0.39661313,-0.58743487,0.21053653,-0.40645769,-0.00017948,0.
 00008751,0.00019658,-0.00045818,-0.00028664,-0.00004217,0.00004923,0.0
 0002532,-0.00006885,0.00008684,-0.00001656,-0.00004598,0.00026484,0.00
 091217,-0.00095644,-0.60333500,-2.09662347,0.90945195,0.59116845,2.091
 78943,0.00003428,0.00001216,0.00008816,-0.00018464,-0.00005126,-0.0001
 8259,-0.00001497,0.00000264,0.00001898,0.00002327,-0.00001338,0.000006
 20,0.00008187,0.00024186,-0.00010967,0.21928103,0.92346311,0.21218647,
 -0.20853382,-0.90005851,-0.20810791,-0.00001793,-0.00021099,0.00000976
 ,-0.00021333,-0.00014390,0.00020989,0.00005322,0.00006383,0.00000527,0
 .00002221,0.00006713,-0.00000480,0.00091851,0.00020126,0.00004977,-2.1
 5633088,0.24690406,1.09046222,0.00437569,0.01030243,-0.00684656,2.1377
 0073,0.00002573,0.00001445,0.00007399,0.00015529,-0.00000623,0.0000100
 8,-0.00002217,-0.00001428,0.00001635,0.00000758,-0.00001855,0.00000958
 ,-0.00023891,0.00007481,-0.00018242,0.25185410,0.51488740,-0.10427554,
 -0.00154707,0.00005329,-0.00262031,-0.25368215,-0.51518876,0.00007688,
 0.00023321,0.00006453,-0.00002022,0.00022518,-0.00064492,-0.00002353,-
 0.00001728,-0.00000864,-0.00000822,-0.00008678,0.00001825,-0.00116535,
 -0.00029650,0.00025150,1.06855830,-0.10027144,0.12054455,-0.00111120,-
 0.00564390,-0.00173949,-1.07371699,0.11424943,-0.11210677,-0.00002351,
 0.00005056,0.00004253,-0.00001447,-0.00006876,0.00010158,-0.00000157,0
 .00000205,-0.00001999,0.00002044,-0.00001794,-0.00000222,0.00003162,-0
 .00002045,-0.00026213,-0.01911658,-0.00177706,-0.00225524,0.00553676,0
 .00210086,-0.00384046,0.01349177,0.00344759,0.00741033,0.00007555,0.00
 001206,0.00000147,0.00003654,-0.00005521,-0.00009324,-0.00005389,0.000
 01902,-0.00001718,-0.00000570,0.00000198,-0.00000316,-0.00001036,0.000
 10126,0.00017181,0.00016926,0.00978757,-0.01127499,0.02657338,-0.00264
 816,0.00405895,-0.02097632,-0.00350166,0.00019787,-0.00839192,-0.00371
 685,0.00695847,-0.00000382,0.00009963,0.00010530,0.00011770,-0.0000741
 4,-0.00002585,-0.00000047,-0.00003248,-0.00002739,0.00002384,-0.000044
 06,-0.00000723,-0.00011428,-0.00003427,-0.00006122,0.01167819,0.007540
 16,0.01162207,-0.00035821,-0.00283268,-0.00216016,-0.01016856,-0.00728
 116,-0.00637903,-0.00117440,0.00265901,-0.00306650,-0.00011616,-0.0000
 3077,0.00000971,0.00005613,0.00015197,0.00021818,0.00008559,0.00004951
 ,-0.00006036,0.00009657,-0.00000348,0.00010935,-0.00009073,0.00014878,
 0.00007045,-0.00016892,0.00006440,-0.00009603,-0.00008622,-0.00001232,
 0.00021402,0.00003081,-0.00006769,-0.00001886,-0.00001143,0.00007457,0
 .00004436,-0.00000234,0.00003408,-0.00008671,-0.00001268,0.00000592,0.
 00001856,-0.00003290,0.00000831,0.00006580,0.00010762,-0.00017696,-0.0
 0007829,-0.00004479,0.00007940,0.00005016,-0.00000298,0.00008313,0.000
 13223,0.00008943,0.00003985,0.00006649,-0.00002295,-0.00002599,0.00000
 085,-0.00003715,-0.00001078,-0.00006115,-0.00003229,-0.00002041,0.0000
 4034,-0.00008802,-0.00000138,-0.00002631,0.00004039,0.00002361,-0.0000
 1307,0.00001222,-0.00001471,-0.00000492,0.00000841,-0.00000519,0.00005
 255,0.00002376,0.00001033,0.00001674,-0.00003732,-0.00002208,-0.000092
 21,0.00001000,0.00002751,0.00002256,-0.00011599,-0.00003883,-0.0000599
 5,-0.00024983,-0.00010898,0.00023560,0.00001318,-0.00000251,-0.0000021
 7,-0.00000209,0.00002066,0.00000734,0.00065903,-0.00002636,-0.00002342
 ,0.00009033,-0.00018130,-0.00027171,-0.00008281,-0.00002610,0.00000966
 ,-0.00001026,0.00001371,-0.00001109,-0.00001975,0.00016359,0.00062754,
 -0.00001921,0.00001448,-0.00011456,0.00011668,0.00009538,-0.00021985,-
 0.00001567,0.00000753,-0.00001203,-0.00001252,0.00000897,0.00000403,-0
 .00025148,-0.00011586,0.00041134,0.00023451,-0.00001372,0.00000531,0.0
 0038709,-0.00016178,0.00011223,-0.00000450,-0.00003309,0.00002395,-0.0
 0003179,-0.00002063,-0.00001861,-0.00092937,0.00021371,0.00068463,-0.1
 3527099,-0.00013131,0.00009725,-0.00036272,-0.00031244,0.00062521,-0.0
 0002218,-0.00007914,0.00007451,0.00001728,0.00000241,0.00002787,0.0000
 8831,0.00012783,-0.00185612,-0.00058307,0.41849988,1.09867028,-0.00013
 048,-0.00016429,-0.00020353,-0.00008131,0.00023625,0.00034219,-0.00003
 474,0.00009154,0.00001423,0.00001320,0.00004166,0.00003977,0.00055763,
 -0.00043604,-0.00076108,-0.10470226,1.63177328,2.06846216,-0.00007528,
 0.00007915,0.00005741,-0.00012692,-0.00012728,-0.00003780,0.00000443,-
 0.00000034,-0.00003014,0.00004065,-0.00002192,-0.00000541,0.00004585,0
 .00034881,-0.00035055,0.11125657,-0.21594740,0.08614551,-0.10941329,0.
 00000876,0.00004274,0.00013573,-0.00014481,-0.00012005,-0.00016719,0.0
 0001631,-0.00001309,-0.00003668,0.00000883,-0.00001859,-0.00003354,-0.
 00002637,0.00033414,-0.00015374,-0.23546894,-0.65839127,0.32927656,0.2
 3180154,0.65610600,0.00004943,0.00001786,0.00002207,0.00002337,0.00011
 941,-0.00005454,-0.00001620,0.00000865,0.00000104,-0.00002361,-0.00000
 777,0.00000126,0.00001515,-0.00029155,0.00012397,0.09555878,0.34094538
 ,0.02934105,-0.09909677,-0.34964262,-0.04303530,-0.00003945,-0.0000688
 1,-0.00004905,-0.00007372,0.00001697,0.00021986,0.00000583,0.00003743,
 0.00001023,0.00000980,0.00003323,0.00000681,0.00046075,-0.00012313,-0.
 00006548,-0.67724883,0.01893841,0.32481678,-0.00027764,0.00307008,0.00
 058955,0.68616657,0.00004167,-0.00006456,0.00005175,-0.00012382,-0.000
 02689,0.00003117,0.00000629,0.00000597,0.00000164,-0.00000904,0.000026
 82,-0.00002722,0.00035999,0.00003952,0.00002278,0.02784126,0.15745691,
 -0.01472679,-0.01425210,0.00366606,0.00550326,-0.01798650,-0.16450608,
 0.00000458,0.00009619,0.00010090,-0.00002386,0.00000831,-0.00018191,-0
 .00002081,-0.00001845,-0.00002264,0.00001027,-0.00003093,-0.00001529,-
 0.00027633,-0.00002852,-0.00004132,0.30250449,-0.00902704,0.03608149,0
 .00993700,0.00188061,0.00573076,-0.32239599,0.00067786,-0.05217660,-0.
 00009347,0.00005131,0.00000288,-0.00008442,0.00018717,-0.00031996,0.00
 000116,-0.00003901,-0.00000056,-0.00001361,0.00000155,0.00000502,0.000
 11846,-0.00038293,-0.00008639,0.70160731,-0.22109823,-0.30658431,-0.00
 145436,0.00073458,0.00290030,-0.00900331,0.00412225,0.01026065,-0.6910
 7777,0.00012782,-0.00012470,0.00012436,0.00055954,-0.00037862,0.000181
 44,0.00004385,-0.00006163,0.00003021,-0.00000429,-0.00002106,-0.000018
 37,-0.00049538,0.00115147,0.00070352,-0.21085669,-0.59670465,-1.946092
 18,-0.00188047,-0.00160595,0.00334738,-0.00391768,0.00340223,0.0064419
 7,0.21642331,0.59434292,0.00009245,0.00000152,0.00009870,0.00013274,-0
 .00044603,-0.00007079,0.00010221,-0.00010474,0.00000749,-0.00000353,-0
 .00000404,-0.00002942,-0.00022578,0.00089447,0.00060950,-0.29416851,-1
 .96282925,-2.13331629,0.00338074,0.01874086,0.00786969,-0.00313270,0.0
 0846556,0.01052459,0.29382237,1.93528167,2.11430653\\@
 The archive entry for this job was punched.


 IF AT FIRST YOU DON'T SUCCEED, TRY, TRY AGAIN.
 THEN GIVE UP;
 THERE'S NO USE BEING A DAMN FOOL ABOUT IT.

                                 -- W. C. FIELDS
 Job cpu time:       0 days  6 hours 43 minutes  6.1 seconds.
 Elapsed time:       0 days  0 hours 17 minutes  6.0 seconds.
 File lengths (MBytes):  RWF=   1080 Int=      0 D2E=      0 Chk=     42 Scr=      1
 Normal termination of Gaussian 16 at Fri Apr  4 13:40:48 2025.
