 Entering Gaussian System, Link 0=g16
 Input=pyrrole_nh3_mp2_avdz_opt_anharm.gjf
 Output=pyrrole_nh3_mp2_avdz_opt_anharm.log
 Initial command:
 /sw/contrib/chem-src/g16/c01/g16/l1.exe "/scr/Gau-76953.inp" -scrdir="/scr/"
 Entering Link 1 = /sw/contrib/chem-src/g16/c01/g16/l1.exe PID=     76954.
  
 Copyright (c) 1988-2019, Gaussian, Inc.  All Rights Reserved.
  
 This is part of the Gaussian(R) 16 program.  It is based on
 the Gaussian(R) 09 system (copyright 2009, Gaussian, Inc.),
 the Gaussian(R) 03 system (copyright 2003, Gaussian, Inc.),
 the Gaussian(R) 98 system (copyright 1998, Gaussian, Inc.),
 the Gaussian(R) 94 system (copyright 1995, Gaussian, Inc.),
 the Gaussian 92(TM) system (copyright 1992, Gaussian, Inc.),
 the Gaussian 90(TM) system (copyright 1990, Gaussian, Inc.),
 the Gaussian 88(TM) system (copyright 1988, Gaussian, Inc.),
 the Gaussian 86(TM) system (copyright 1986, Carnegie Mellon
 University), and the Gaussian 82(TM) system (copyright 1983,
 Carnegie Mellon University). Gaussian is a federally registered
 trademark of Gaussian, Inc.
  
 This software contains proprietary and confidential information,
 including trade secrets, belonging to Gaussian, Inc.
  
 This software is provided under written license and may be
 used, copied, transmitted, or stored only in accord with that
 written license.
  
 The following legend is applicable only to US Government
 contracts under FAR:
  
                    RESTRICTED RIGHTS LEGEND
  
 Use, reproduction and disclosure by the US Government is
 subject to restrictions as set forth in subparagraphs (a)
 and (c) of the Commercial Computer Software - Restricted
 Rights clause in FAR 52.227-19.
  
 Gaussian, Inc.
 340 Quinnipiac St., Bldg. 40, Wallingford CT 06492
  
  
 ---------------------------------------------------------------
 Warning -- This program may not be used in any manner that
 competes with the business of Gaussian, Inc. or will provide
 assistance to any competitor of Gaussian, Inc.  The licensee
 of this program is prohibited from giving any competitor of
 Gaussian, Inc. access to this program.  By using this program,
 the user acknowledges that Gaussian, Inc. is engaged in the
 business of creating and licensing software in the field of
 computational chemistry and represents and warrants to the
 licensee that it is not a competitor of Gaussian, Inc. and that
 it will not use this program in any manner prohibited above.
 ---------------------------------------------------------------
  

 Cite this work as:
 Gaussian 16, Revision C.01,
 M. J. Frisch, G. W. Trucks, H. B. Schlegel, G. E. Scuseria, 
 M. A. Robb, J. R. Cheeseman, G. Scalmani, V. Barone, 
 G. A. Petersson, H. Nakatsuji, X. Li, M. Caricato, A. V. Marenich, 
 J. Bloino, B. G. Janesko, R. Gomperts, B. Mennucci, H. P. Hratchian, 
 J. V. Ortiz, A. F. Izmaylov, J. L. Sonnenberg, D. Williams-Young, 
 F. Ding, F. Lipparini, F. Egidi, J. Goings, B. Peng, A. Petrone, 
 T. Henderson, D. Ranasinghe, V. G. Zakrzewski, J. Gao, N. Rega, 
 G. Zheng, W. Liang, M. Hada, M. Ehara, K. Toyota, R. Fukuda, 
 J. Hasegawa, M. Ishida, T. Nakajima, Y. Honda, O. Kitao, H. Nakai, 
 T. Vreven, K. Throssell, J. A. Montgomery, Jr., J. E. Peralta, 
 F. Ogliaro, M. J. Bearpark, J. J. Heyd, E. N. Brothers, K. N. Kudin, 
 V. N. Staroverov, T. A. Keith, R. Kobayashi, J. Normand, 
 K. Raghavachari, A. P. Rendell, J. C. Burant, S. S. Iyengar, 
 J. Tomasi, M. Cossi, J. M. Millam, M. Klene, C. Adamo, R. Cammi, 
 J. W. Ochterski, R. L. Martin, K. Morokuma, O. Farkas, 
 J. B. Foresman, and D. J. Fox, Gaussian, Inc., Wallingford CT, 2019.
 
 ******************************************
 Gaussian 16:  EM64L-G16RevC.01  3-Jul-2019
                 4-Apr-2025 
 ******************************************
 %nprocshared=40
 Will use up to   40 processors via shared memory.
 %mem=50gb
 ----------------------------------------------
 # MP2/aug-cc-pVDZ opt freq=(vibrot,anharmonic)
 ----------------------------------------------
 1/18=20,19=15,38=1,80=1/1,3;
 2/9=110,12=2,17=6,18=5,40=1/2;
 3/5=16,7=10,11=9,25=1,30=1,71=1/1,2,3;
 4//1;
 5/5=2,38=5/2;
 8/6=4,10=1/1;
 9/15=2,16=-3/6;
 10/5=1/2;
 6/7=2,8=2,9=2,10=2/1;
 7/12=2/1,2,3,16;
 1/18=20,19=15,80=1/3(2);
 2/9=110/2;
 99//99;
 2/9=110/2;
 3/5=16,7=10,11=9,25=1,30=1,71=1/1,2,3;
 4/5=5,16=3,69=1/1;
 5/5=2,38=5/2;
 8/6=4,10=1/1;
 9/15=2,16=-3/6;
 10/5=1/2;
 7/12=2/1,2,3,16;
 1/18=20,19=15,80=1/3(-8);
 2/9=110/2;
 6/7=2,8=2,9=2,10=2/1;
 99/9=10/99;
 ----
 blah
 ----
 Symbolic Z-matrix:
 Charge =  0 Multiplicity = 1
 C                    -0.36802   0.38051   0.171 
 C                    -0.12318  -0.88008  -0.32573 
 H                    -1.12469   1.0656   -0.18802 
 N                     0.90951  -1.42836   0.39236 
 H                    -0.59026  -1.43765  -1.12572 
 C                     1.32421  -0.5286    1.34162 
 H                     1.30572  -2.35725   0.24401 
 C                     0.54832   0.60304   1.22662 
 H                     2.13459  -0.77582   2.01331 
 H                     0.63313   1.49247   1.83695 
 N                     2.02875  -4.08093  -0.04001 
 H                     2.85487  -4.29016   0.52578 
 H                     1.37359  -4.83893   0.16668 
 H                     2.32546  -4.24876  -1.00452 
 
 Add virtual bond connecting atoms N11        and H7         Dist= 3.57D+00.

 GradGradGradGradGradGradGradGradGradGradGradGradGradGradGradGradGradGrad
 Berny optimization.
 Initialization pass.
                           ----------------------------
                           !    Initial Parameters    !
                           ! (Angstroms and Degrees)  !
 --------------------------                            --------------------------
 ! Name  Definition              Value          Derivative Info.                !
 --------------------------------------------------------------------------------
 ! R1    R(1,2)                  1.3769         estimate D2E/DX2                !
 ! R2    R(1,3)                  1.082          estimate D2E/DX2                !
 ! R3    R(1,8)                  1.4155         estimate D2E/DX2                !
 ! R4    R(2,4)                  1.3721         estimate D2E/DX2                !
 ! R5    R(2,5)                  1.0812         estimate D2E/DX2                !
 ! R6    R(4,6)                  1.3721         estimate D2E/DX2                !
 ! R7    R(4,7)                  1.0207         estimate D2E/DX2                !
 ! R8    R(6,8)                  1.3769         estimate D2E/DX2                !
 ! R9    R(6,9)                  1.0812         estimate D2E/DX2                !
 ! R10   R(7,11)                 1.8906         estimate D2E/DX2                !
 ! R11   R(8,10)                 1.082          estimate D2E/DX2                !
 ! R12   R(11,12)                1.0229         estimate D2E/DX2                !
 ! R13   R(11,13)                1.023          estimate D2E/DX2                !
 ! R14   R(11,14)                1.023          estimate D2E/DX2                !
 ! A1    A(2,1,3)              125.7555         estimate D2E/DX2                !
 ! A2    A(2,1,8)              107.3292         estimate D2E/DX2                !
 ! A3    A(3,1,8)              126.9153         estimate D2E/DX2                !
 ! A4    A(1,2,4)              108.1115         estimate D2E/DX2                !
 ! A5    A(1,2,5)              131.4713         estimate D2E/DX2                !
 ! A6    A(4,2,5)              120.4172         estimate D2E/DX2                !
 ! A7    A(2,4,6)              109.1177         estimate D2E/DX2                !
 ! A8    A(2,4,7)              125.4314         estimate D2E/DX2                !
 ! A9    A(6,4,7)              125.451          estimate D2E/DX2                !
 ! A10   A(4,6,8)              108.111          estimate D2E/DX2                !
 ! A11   A(4,6,9)              120.4236         estimate D2E/DX2                !
 ! A12   A(8,6,9)              131.4654         estimate D2E/DX2                !
 ! A13   A(1,8,6)              107.3307         estimate D2E/DX2                !
 ! A14   A(1,8,10)             126.9153         estimate D2E/DX2                !
 ! A15   A(6,8,10)             125.754          estimate D2E/DX2                !
 ! A16   A(7,11,12)            114.3458         estimate D2E/DX2                !
 ! A17   A(7,11,13)            113.5945         estimate D2E/DX2                !
 ! A18   A(7,11,14)            113.7115         estimate D2E/DX2                !
 ! A19   A(12,11,13)           104.7089         estimate D2E/DX2                !
 ! A20   A(12,11,14)           104.6962         estimate D2E/DX2                !
 ! A21   A(13,11,14)           104.7549         estimate D2E/DX2                !
 ! A22   L(4,7,11,5,-1)        179.5632         estimate D2E/DX2                !
 ! A23   L(4,7,11,5,-2)        180.0833         estimate D2E/DX2                !
 ! D1    D(3,1,2,4)            179.9987         estimate D2E/DX2                !
 ! D2    D(3,1,2,5)             -0.0024         estimate D2E/DX2                !
 ! D3    D(8,1,2,4)             -0.0035         estimate D2E/DX2                !
 ! D4    D(8,1,2,5)            179.9954         estimate D2E/DX2                !
 ! D5    D(2,1,8,6)              0.0            estimate D2E/DX2                !
 ! D6    D(2,1,8,10)          -179.9977         estimate D2E/DX2                !
 ! D7    D(3,1,8,6)            179.9977         estimate D2E/DX2                !
 ! D8    D(3,1,8,10)             0.0            estimate D2E/DX2                !
 ! D9    D(1,2,4,6)              0.0058         estimate D2E/DX2                !
 ! D10   D(1,2,4,7)            179.9984         estimate D2E/DX2                !
 ! D11   D(5,2,4,6)           -179.9933         estimate D2E/DX2                !
 ! D12   D(5,2,4,7)             -0.0006         estimate D2E/DX2                !
 ! D13   D(2,4,6,8)             -0.0058         estimate D2E/DX2                !
 ! D14   D(2,4,6,9)            179.9934         estimate D2E/DX2                !
 ! D15   D(7,4,6,8)           -179.9984         estimate D2E/DX2                !
 ! D16   D(7,4,6,9)              0.0007         estimate D2E/DX2                !
 ! D17   D(2,4,11,12)          174.239          estimate D2E/DX2                !
 ! D18   D(2,4,11,13)          -65.593          estimate D2E/DX2                !
 ! D19   D(2,4,11,14)           53.9846         estimate D2E/DX2                !
 ! D20   D(6,4,11,12)           -5.8344         estimate D2E/DX2                !
 ! D21   D(6,4,11,13)          114.3335         estimate D2E/DX2                !
 ! D22   D(6,4,11,14)         -126.0888         estimate D2E/DX2                !
 ! D23   D(4,6,8,1)              0.0035         estimate D2E/DX2                !
 ! D24   D(4,6,8,10)          -179.9988         estimate D2E/DX2                !
 ! D25   D(9,6,8,1)           -179.9955         estimate D2E/DX2                !
 ! D26   D(9,6,8,10)             0.0023         estimate D2E/DX2                !
 --------------------------------------------------------------------------------
 Trust Radius=3.00D-01 FncErr=1.00D-07 GrdErr=1.00D-07 EigMax=2.50D+02 EigMin=1.00D-04
 Number of steps in this run=     73 maximum allowed number of steps=    100.
 GradGradGradGradGradGradGradGradGradGradGradGradGradGradGradGradGradGrad

                          Input orientation:                          
 ---------------------------------------------------------------------
 Center     Atomic      Atomic             Coordinates (Angstroms)
 Number     Number       Type             X           Y           Z
 ---------------------------------------------------------------------
      1          6           0       -0.368024    0.380513    0.171003
      2          6           0       -0.123178   -0.880083   -0.325731
      3          1           0       -1.124691    1.065599   -0.188020
      4          7           0        0.909513   -1.428359    0.392364
      5          1           0       -0.590255   -1.437648   -1.125722
      6          6           0        1.324206   -0.528603    1.341620
      7          1           0        1.305721   -2.357246    0.244015
      8          6           0        0.548324    0.603037    1.226616
      9          1           0        2.134587   -0.775818    2.013306
     10          1           0        0.633133    1.492466    1.836952
     11          7           0        2.028748   -4.080926   -0.040008
     12          1           0        2.854873   -4.290163    0.525780
     13          1           0        1.373587   -4.838929    0.166678
     14          1           0        2.325459   -4.248756   -1.004524
 ---------------------------------------------------------------------
                    Distance matrix (angstroms):
                    1          2          3          4          5
     1  C    0.000000
     2  C    1.376879   0.000000
     3  H    1.082028   2.192640   0.000000
     4  N    2.225560   1.372121   3.270268   0.000000
     5  H    2.244236   1.081215   2.726014   2.134004   0.000000
     6  C    2.249551   2.235737   3.298238   1.372086   3.252584
     7  H    3.209685   2.132692   4.220121   1.020696   2.513278
     8  C    1.415461   2.249520   2.239227   2.225534   3.315758
     9  H    3.315757   3.252609   4.342758   2.134027   4.209071
    10  H    2.239228   3.298210   2.715267   3.270235   4.342774
    11  N    5.068874   3.867534   6.037616   2.911314   3.876193
    12  H    5.685785   4.606789   6.710486   3.462969   4.767935
    13  H    5.502345   4.260896   6.421110   3.449389   4.134692
    14  H    5.483324   4.219543   6.388473   3.451209   4.051963
                    6          7          8          9         10
     6  C    0.000000
     7  H    2.132842   0.000000
     8  C    1.376891   3.209740   0.000000
     9  H    1.081200   2.513628   2.244182   0.000000
    10  H    2.192637   4.220202   1.082029   2.725909   0.000000
    11  N    3.876116   1.890637   5.073017   3.892434   6.044289
    12  H    4.142206   2.493077   5.454791   3.883577   6.331991
    13  H    4.467867   2.483815   5.605312   4.527474   6.589738
    14  H    4.510703   2.485261   5.628151   4.604892   6.625676
                   11         12         13         14
    11  N    0.000000
    12  H    1.022927   0.000000
    13  H    1.022997   1.619971   0.000000
    14  H    1.022983   1.619822   1.620517   0.000000
 Stoichiometry    C4H8N2
 Framework group  C1[X(C4H8N2)]
 Deg. of freedom    36
 Full point group                 C1      NOp   1
 Largest Abelian subgroup         C1      NOp   1
 Largest concise Abelian subgroup C1      NOp   1
                         Standard orientation:                         
 ---------------------------------------------------------------------
 Center     Atomic      Atomic             Coordinates (Angstroms)
 Number     Number       Type             X           Y           Z
 ---------------------------------------------------------------------
      1          6           0       -1.886611   -0.711496    0.000355
      2          6           0       -0.570634   -1.116465   -0.000284
      3          1           0       -2.749168   -1.364782    0.000808
      4          7           0        0.220619    0.004532   -0.000749
      5          1           0       -0.124555   -2.101371   -0.000435
      6          6           0       -0.579389    1.119255   -0.000282
      7          1           0        1.241308    0.008364   -0.001241
      8          6           0       -1.892154    0.703953    0.000357
      9          1           0       -0.141172    2.107667   -0.000431
     10          1           0       -2.759801    1.350464    0.000813
     11          7           0        3.131930    0.001049    0.000165
     12          1           0        3.557279    0.926598   -0.093726
     13          1           0        3.539265   -0.386527    0.854791
     14          1           0        3.541735   -0.550957   -0.757361
 ---------------------------------------------------------------------
 Rotational constants (GHZ):           8.8198622           1.7582202           1.4773222
 Standard basis: Aug-CC-pVDZ (5D, 7F)
 There are   222 symmetry adapted cartesian basis functions of A   symmetry.
 There are   210 symmetry adapted basis functions of A   symmetry.
   210 basis functions,   346 primitive gaussians,   222 cartesian basis functions
    23 alpha electrons       23 beta electrons
       nuclear repulsion energy       219.9649082603 Hartrees.
 NAtoms=   14 NActive=   14 NUniq=   14 SFac= 1.00D+00 NAtFMM=   60 NAOKFM=F Big=F
 Integral buffers will be    131072 words long.
 Raffenetti 1 integral format.
 Two-electron integral symmetry is turned on.
 One-electron integrals computed using PRISM.
 NBasis=   210 RedAO= T EigKep=  8.37D-06  NBF=   210
 NBsUse=   210 1.00D-06 EigRej= -1.00D+00 NBFU=   210
 ExpMin= 2.97D-02 ExpMax= 9.05D+03 ExpMxC= 3.09D+02 IAcc=3 IRadAn=         5 AccDes= 0.00D+00
 Harris functional with IExCor=  205 and IRadAn=       5 diagonalized for initial guess.
 HarFok:  IExCor=  205 AccDes= 0.00D+00 IRadAn=         5 IDoV= 1 UseB2=F ITyADJ=14
 ICtDFT=  3500011 ScaDFX=  1.000000  1.000000  1.000000  1.000000
 FoFCou: FMM=F IPFlag=           0 FMFlag=      100000 FMFlg1=           0
         NFxFlg=           0 DoJE=T BraDBF=F KetDBF=T FulRan=T
         wScrn=  0.000000 ICntrl=       500 IOpCl=  0 I1Cent=   200000004 NGrid=           0
         NMat0=    1 NMatS0=      1 NMatT0=    0 NMatD0=    1 NMtDS0=    0 NMtDT0=    0
 Petite list used in FoFCou.
 Requested convergence on RMS density matrix=1.00D-08 within 128 cycles.
 Requested convergence on MAX density matrix=1.00D-06.
 Requested convergence on             energy=1.00D-06.
 No special actions if energy rises.
 SCF Done:  E(RHF) =  -265.048443700     A.U. after   13 cycles
            NFock= 13  Conv=0.55D-08     -V/T= 2.0014
 ExpMin= 2.97D-02 ExpMax= 9.05D+03 ExpMxC= 3.09D+02 IAcc=3 IRadAn=         5 AccDes= 0.00D+00
 HarFok:  IExCor=  205 AccDes= 0.00D+00 IRadAn=         5 IDoV=-2 UseB2=F ITyADJ=14
 ICtDFT= 12500011 ScaDFX=  1.000000  1.000000  1.000000  1.000000
 Range of M.O.s used for correlation:     7   210
 NBasis=   210 NAE=    23 NBE=    23 NFC=     6 NFV=     0
 NROrb=    204 NOA=    17 NOB=    17 NVA=   187 NVB=   187

 **** Warning!!: The largest alpha MO coefficient is  0.97938587D+02

 Fully direct method using O(ONN) memory.
 JobTyp=1 Pass  1:  I=   7 to  23 NPSUse= 40 ParTrn=T ParDer=T DoDerP=T.
 Spin components of T(2) and E(2):
     alpha-alpha T2 =       0.4442954595D-01 E2=     -0.1202891013D+00
     alpha-beta  T2 =       0.2397464619D+00 E2=     -0.6898778891D+00
     beta-beta   T2 =       0.4442954595D-01 E2=     -0.1202891013D+00
 ANorm=    0.1152651532D+01
 E2 =    -0.9304560917D+00 EUMP2 =    -0.26597889979124D+03
          IDoAtm=11111111111111
          Differentiating once with respect to electric field.
                with respect to dipole field.
          Differentiating once with respect to nuclear coordinates.
 Keep R1 ints in memory in canonical form, NReq=254566788.
          There are     1 degrees of freedom in the 1st order CPHF.  IDoFFX=0 NUNeed=     1.
 LinEq1:  Iter=  0 NonCon=     1 RMS=3.18D-03 Max=4.33D-02 NDo=     1
 AX will form     1 AO Fock derivatives at one time.
 LinEq1:  Iter=  1 NonCon=     1 RMS=6.01D-04 Max=9.23D-03 NDo=     1
 LinEq1:  Iter=  2 NonCon=     1 RMS=3.36D-04 Max=9.91D-03 NDo=     1
 LinEq1:  Iter=  3 NonCon=     1 RMS=9.78D-05 Max=2.18D-03 NDo=     1
 LinEq1:  Iter=  4 NonCon=     1 RMS=4.38D-05 Max=7.86D-04 NDo=     1
 LinEq1:  Iter=  5 NonCon=     1 RMS=1.20D-05 Max=1.52D-04 NDo=     1
 LinEq1:  Iter=  6 NonCon=     1 RMS=2.29D-06 Max=3.37D-05 NDo=     1
 LinEq1:  Iter=  7 NonCon=     1 RMS=3.59D-07 Max=4.24D-06 NDo=     1
 LinEq1:  Iter=  8 NonCon=     1 RMS=1.48D-07 Max=2.39D-06 NDo=     1
 LinEq1:  Iter=  9 NonCon=     1 RMS=2.92D-08 Max=6.19D-07 NDo=     1
 LinEq1:  Iter= 10 NonCon=     1 RMS=5.50D-09 Max=9.44D-08 NDo=     1
 LinEq1:  Iter= 11 NonCon=     1 RMS=1.48D-09 Max=1.38D-08 NDo=     1
 LinEq1:  Iter= 12 NonCon=     1 RMS=5.48D-10 Max=5.46D-09 NDo=     1
 LinEq1:  Iter= 13 NonCon=     0 RMS=8.02D-11 Max=9.81D-10 NDo=     1
 Linear equations converged to 1.000D-10 1.000D-09 after    13 iterations.
 End of Minotr F.D. properties file   721 does not exist.
 End of Minotr F.D. properties file   722 does not exist.
 End of Minotr F.D. properties file   788 does not exist.

 **********************************************************************

            Population analysis using the SCF Density.

 **********************************************************************

 Orbital symmetries:
       Occupied  (A) (A) (A) (A) (A) (A) (A) (A) (A) (A) (A) (A)
                 (A) (A) (A) (A) (A) (A) (A) (A) (A) (A) (A)
       Virtual   (A) (A) (A) (A) (A) (A) (A) (A) (A) (A) (A) (A)
                 (A) (A) (A) (A) (A) (A) (A) (A) (A) (A) (A) (A)
                 (A) (A) (A) (A) (A) (A) (A) (A) (A) (A) (A) (A)
                 (A) (A) (A) (A) (A) (A) (A) (A) (A) (A) (A) (A)
                 (A) (A) (A) (A) (A) (A) (A) (A) (A) (A) (A) (A)
                 (A) (A) (A) (A) (A) (A) (A) (A) (A) (A) (A) (A)
                 (A) (A) (A) (A) (A) (A) (A) (A) (A) (A) (A) (A)
                 (A) (A) (A) (A) (A) (A) (A) (A) (A) (A) (A) (A)
                 (A) (A) (A) (A) (A) (A) (A) (A) (A) (A) (A) (A)
                 (A) (A) (A) (A) (A) (A) (A) (A) (A) (A) (A) (A)
                 (A) (A) (A) (A) (A) (A) (A) (A) (A) (A) (A) (A)
                 (A) (A) (A) (A) (A) (A) (A) (A) (A) (A) (A) (A)
                 (A) (A) (A) (A) (A) (A) (A) (A) (A) (A) (A) (A)
                 (A) (A) (A) (A) (A) (A) (A) (A) (A) (A) (A) (A)
                 (A) (A) (A) (A) (A) (A) (A) (A) (A) (A) (A) (A)
                 (A) (A) (A) (A) (A) (A) (A)
 The electronic state is 1-A.
 Alpha  occ. eigenvalues --  -15.58871 -15.57959 -11.23850 -11.23846 -11.19789
 Alpha  occ. eigenvalues --  -11.19684  -1.26789  -1.17872  -1.02318  -0.95730
 Alpha  occ. eigenvalues --   -0.77071  -0.74748  -0.71634  -0.65556  -0.65539
 Alpha  occ. eigenvalues --   -0.58011  -0.55799  -0.54158  -0.52889  -0.51171
 Alpha  occ. eigenvalues --   -0.46800  -0.32546  -0.27834
 Alpha virt. eigenvalues --    0.02181   0.04279   0.04981   0.05170   0.05952
 Alpha virt. eigenvalues --    0.06168   0.07721   0.08558   0.11627   0.13289
 Alpha virt. eigenvalues --    0.14239   0.14657   0.14914   0.15025   0.16168
 Alpha virt. eigenvalues --    0.16362   0.16481   0.17586   0.18079   0.18872
 Alpha virt. eigenvalues --    0.18957   0.19191   0.19863   0.21220   0.22306
 Alpha virt. eigenvalues --    0.23814   0.26764   0.26797   0.27013   0.27236
 Alpha virt. eigenvalues --    0.28867   0.29904   0.31154   0.31717   0.33799
 Alpha virt. eigenvalues --    0.34791   0.35802   0.37620   0.39587   0.40183
 Alpha virt. eigenvalues --    0.40646   0.40763   0.41059   0.42397   0.43871
 Alpha virt. eigenvalues --    0.44857   0.45699   0.46341   0.46974   0.47504
 Alpha virt. eigenvalues --    0.50683   0.51410   0.52565   0.53192   0.53322
 Alpha virt. eigenvalues --    0.55191   0.56147   0.56704   0.57069   0.60087
 Alpha virt. eigenvalues --    0.61793   0.62751   0.63344   0.63500   0.64904
 Alpha virt. eigenvalues --    0.65498   0.65756   0.66359   0.67598   0.67888
 Alpha virt. eigenvalues --    0.68604   0.68955   0.70236   0.70851   0.72313
 Alpha virt. eigenvalues --    0.73085   0.74469   0.75086   0.75191   0.78868
 Alpha virt. eigenvalues --    0.80839   0.82142   0.84760   0.86378   0.86485
 Alpha virt. eigenvalues --    0.89310   0.91598   0.91815   0.92994   0.93391
 Alpha virt. eigenvalues --    0.93706   0.97286   0.99409   1.01029   1.02184
 Alpha virt. eigenvalues --    1.02569   1.06041   1.07295   1.08325   1.11544
 Alpha virt. eigenvalues --    1.12784   1.18877   1.20414   1.21693   1.22091
 Alpha virt. eigenvalues --    1.23268   1.23961   1.26836   1.28900   1.32239
 Alpha virt. eigenvalues --    1.33691   1.44009   1.44485   1.50824   1.53782
 Alpha virt. eigenvalues --    1.54733   1.59390   1.60221   1.60490   1.65281
 Alpha virt. eigenvalues --    1.67942   1.68371   1.71127   1.73879   1.77640
 Alpha virt. eigenvalues --    1.78128   1.80938   1.81077   1.81427   1.83027
 Alpha virt. eigenvalues --    1.84039   1.91224   1.92201   1.95214   1.97456
 Alpha virt. eigenvalues --    2.00099   2.00951   2.02058   2.06069   2.08115
 Alpha virt. eigenvalues --    2.13357   2.14315   2.15089   2.15658   2.17147
 Alpha virt. eigenvalues --    2.20304   2.24304   2.26761   2.27604   2.29412
 Alpha virt. eigenvalues --    2.32223   2.32952   2.34859   2.35601   2.38512
 Alpha virt. eigenvalues --    2.42369   2.43333   2.46555   2.49753   2.55876
 Alpha virt. eigenvalues --    2.61334   2.61558   2.62934   2.70106   2.73505
 Alpha virt. eigenvalues --    2.75175   2.77949   2.86928   2.87198   2.88416
 Alpha virt. eigenvalues --    2.89417   2.91781   2.93966   2.95395   3.01570
 Alpha virt. eigenvalues --    3.07219   3.07999   3.19022   3.20109   3.38091
 Alpha virt. eigenvalues --    3.38897   3.39938   3.52433   3.54262   3.55970
 Alpha virt. eigenvalues --    4.11529   4.28042
          Condensed to atoms (all electrons):
               1          2          3          4          5          6
     1  C    5.805042  -0.095154  -0.051601  -0.189754  -0.130184   0.395722
     2  C   -0.095154   5.404831   0.069111   0.242023   0.209019  -0.503375
     3  H   -0.051601   0.069111   1.310262   0.005685  -0.006031  -0.098806
     4  N   -0.189754   0.242023   0.005685   6.954464  -0.039275   0.251321
     5  H   -0.130184   0.209019  -0.006031  -0.039275   1.302940   0.051006
     6  C    0.395722  -0.503375  -0.098806   0.251321   0.051006   5.387620
     7  H    0.003083  -0.263582  -0.004582   0.503583  -0.000495  -0.255135
     8  C   -0.178237   0.399407   0.128834  -0.189907  -0.034273  -0.078837
     9  H   -0.039866   0.063505  -0.005902  -0.041018   0.005089   0.209334
    10  H    0.126719  -0.096508  -0.017031   0.003848  -0.005419   0.062804
    11  N   -0.012200   0.026821   0.000098  -0.102045   0.002480   0.035809
    12  H    0.001053  -0.000844   0.000196  -0.006158  -0.000978   0.006803
    13  H   -0.001060   0.000330  -0.000138  -0.001802   0.001356  -0.002076
    14  H   -0.001354   0.001907  -0.000154  -0.002673   0.001421  -0.001986
               7          8          9         10         11         12
     1  C    0.003083  -0.178237  -0.039866   0.126719  -0.012200   0.001053
     2  C   -0.263582   0.399407   0.063505  -0.096508   0.026821  -0.000844
     3  H   -0.004582   0.128834  -0.005902  -0.017031   0.000098   0.000196
     4  N    0.503583  -0.189907  -0.041018   0.003848  -0.102045  -0.006158
     5  H   -0.000495  -0.034273   0.005089  -0.005419   0.002480  -0.000978
     6  C   -0.255135  -0.078837   0.209334   0.062804   0.035809   0.006803
     7  H    1.150707   0.001835  -0.009409  -0.004458  -0.143768  -0.011703
     8  C    0.001835   5.772859  -0.126610  -0.041220  -0.013250  -0.002560
     9  H   -0.009409  -0.126610   1.282932  -0.005494   0.008893   0.001576
    10  H   -0.004458  -0.041220  -0.005494   1.306345  -0.000268  -0.000157
    11  N   -0.143768  -0.013250   0.008893  -0.000268   6.212740   0.415893
    12  H   -0.011703  -0.002560   0.001576  -0.000157   0.415893   0.726279
    13  H   -0.004937  -0.000097   0.000229   0.000022   0.407069  -0.083924
    14  H   -0.006250   0.000269  -0.000182   0.000073   0.408111  -0.088057
              13         14
     1  C   -0.001060  -0.001354
     2  C    0.000330   0.001907
     3  H   -0.000138  -0.000154
     4  N   -0.001802  -0.002673
     5  H    0.001356   0.001421
     6  C   -0.002076  -0.001986
     7  H   -0.004937  -0.006250
     8  C   -0.000097   0.000269
     9  H    0.000229  -0.000182
    10  H    0.000022   0.000073
    11  N    0.407069   0.408111
    12  H   -0.083924  -0.088057
    13  H    0.713252  -0.076255
    14  H   -0.076255   0.719138
 Mulliken charges:
               1
     1  C    0.367793
     2  C    0.542508
     3  H   -0.329942
     4  N   -0.388291
     5  H   -0.356655
     6  C    0.539797
     7  H    0.045110
     8  C    0.361786
     9  H   -0.343077
    10  H   -0.329255
    11  N   -0.246382
    12  H    0.042582
    13  H    0.048030
    14  H    0.045995
 Sum of Mulliken charges =  -0.00000
 Mulliken charges with hydrogens summed into heavy atoms:
               1
     1  C    0.037852
     2  C    0.185854
     4  N   -0.343181
     6  C    0.196720
     8  C    0.032532
    11  N   -0.109775
 Electronic spatial extent (au):  <R**2>=            810.9407
 Charge=             -0.0000 electrons
 Dipole moment (field-independent basis, Debye):
    X=              4.9099    Y=             -0.0110    Z=              0.0041  Tot=              4.9099
 Quadrupole moment (field-independent basis, Debye-Ang):
   XX=            -23.4087   YY=            -34.1999   ZZ=            -41.4684
   XY=             -0.0288   XZ=              0.0048   YZ=              0.0001
 Traceless Quadrupole moment (field-independent basis, Debye-Ang):
   XX=              9.6170   YY=             -1.1742   ZZ=             -8.4428
   XY=             -0.0288   XZ=              0.0048   YZ=              0.0001
 Octapole moment (field-independent basis, Debye-Ang**2):
  XXX=             63.9291  YYY=              0.9479  ZZZ=              0.3076  XYY=             10.1439
  XXY=              0.0049  XXZ=              0.0105  XZZ=             15.9674  YZZ=             -0.9411
  YYZ=             -0.2927  XYZ=             -0.0004
 Hexadecapole moment (field-independent basis, Debye-Ang**3):
 XXXX=           -615.3212 YYYY=           -193.9722 ZZZZ=            -55.1700 XXXY=              0.4768
 XXXZ=             -0.1066 YYYX=              3.3668 YYYZ=              0.0060 ZZZX=              1.1176
 ZZZY=             -0.0052 XXYY=           -148.5324 XXZZ=           -139.6271 YYZZ=            -51.2339
 XXYZ=             -0.0040 YYXZ=             -1.0822 ZZXY=             -3.4657
 N-N= 2.199649082603D+02 E-N=-1.059105497063D+03  KE= 2.646880882556D+02
 Calling FoFJK, ICntrl=  10002127 FMM=F ISym2X=0 I1Cent= 0 IOpClX= 0 NMat=1 NMatS=1 NMatT=0.
 ***** Axes restored to original set *****
 -------------------------------------------------------------------
 Center     Atomic                   Forces (Hartrees/Bohr)
 Number     Number              X              Y              Z
 -------------------------------------------------------------------
      1        6          -0.009362713    0.014515333   -0.000873262
      2        6           0.001990771   -0.016603356   -0.007807122
      3        1          -0.003785417    0.003453755   -0.001782274
      4        7          -0.001094076    0.002595867    0.000465036
      5        1          -0.003144938   -0.001908021   -0.004298161
      6        6           0.011193352   -0.014292058    0.002836922
      7        1           0.001963694   -0.004648229   -0.000763431
      8        6          -0.003609502    0.015902567    0.005748125
      9        1           0.004041061   -0.000189930    0.003964020
     10        1           0.000403357    0.004468434    0.003042026
     11        7           0.003266907   -0.008360438   -0.001506088
     12        1          -0.000584038    0.001615016    0.000290884
     13        1          -0.000761221    0.001675040    0.000458889
     14        1          -0.000517236    0.001776020    0.000224437
 -------------------------------------------------------------------
 Cartesian Forces:  Max     0.016603356 RMS     0.006028319

 GradGradGradGradGradGradGradGradGradGradGradGradGradGradGradGradGradGrad
 Berny optimization.
 FormGI is forming the generalized inverse of G from B-inverse, IUseBI=4.
 Internal  Forces:  Max     0.021604068 RMS     0.004832382
 Search for a local minimum.
 Step number   1 out of a maximum of   73
 All quantities printed in internal units (Hartrees-Bohrs-Radians)
 Mixed Optimization -- RFO/linear search
 Second derivative matrix not updated -- first step.
 ITU=  0
     Eigenvalues ---    0.00230   0.00230   0.00230   0.01502   0.02048
     Eigenvalues ---    0.02087   0.02164   0.02214   0.02258   0.02284
     Eigenvalues ---    0.05190   0.06419   0.06650   0.16000   0.16000
     Eigenvalues ---    0.16000   0.16000   0.16000   0.16000   0.16000
     Eigenvalues ---    0.16000   0.22000   0.22000   0.35750   0.35750
     Eigenvalues ---    0.35848   0.35850   0.39932   0.43469   0.43863
     Eigenvalues ---    0.43865   0.43874   0.44227   0.47642   0.49813
     Eigenvalues ---    0.50350
 RFO step:  Lambda=-3.42548688D-03 EMin= 2.30000000D-03
 Linear search not attempted -- first point.
 Iteration  1 RMS(Cart)=  0.02409734 RMS(Int)=  0.00004350
 Iteration  2 RMS(Cart)=  0.00005899 RMS(Int)=  0.00001774
 Iteration  3 RMS(Cart)=  0.00000000 RMS(Int)=  0.00001774
 Variable       Old X    -DE/DX   Delta X   Delta X   Delta X     New X
                                 (Linear)    (Quad)   (Total)
    R1        2.60192   0.02160   0.00000   0.04358   0.04359   2.64551
    R2        2.04474   0.00543   0.00000   0.01503   0.01503   2.05977
    R3        2.67483   0.01265   0.00000   0.03056   0.03059   2.70542
    R4        2.59293   0.00797   0.00000   0.01463   0.01460   2.60754
    R5        2.04320   0.00552   0.00000   0.01526   0.01526   2.05846
    R6        2.59287   0.00798   0.00000   0.01464   0.01461   2.60747
    R7        1.92884   0.00872   0.00000   0.01957   0.01957   1.94841
    R8        2.60195   0.02158   0.00000   0.04352   0.04353   2.64548
    R9        2.04317   0.00553   0.00000   0.01529   0.01529   2.05847
   R10        3.57279   0.00362   0.00000   0.06544   0.06544   3.63823
   R11        2.04474   0.00542   0.00000   0.01502   0.01502   2.05976
   R12        1.93305  -0.00064   0.00000  -0.00145  -0.00145   1.93160
   R13        1.93318  -0.00066   0.00000  -0.00150  -0.00150   1.93169
   R14        1.93316  -0.00065   0.00000  -0.00148  -0.00148   1.93168
    A1        2.19485   0.00084   0.00000   0.00210   0.00208   2.19692
    A2        1.87325  -0.00163   0.00000  -0.00385  -0.00381   1.86944
    A3        2.21509   0.00079   0.00000   0.00176   0.00173   2.21682
    A4        1.88690   0.00016   0.00000  -0.00060  -0.00061   1.88629
    A5        2.29461  -0.00133   0.00000  -0.00737  -0.00736   2.28725
    A6        2.10168   0.00117   0.00000   0.00797   0.00797   2.10965
    A7        1.90446   0.00293   0.00000   0.00889   0.00884   1.91331
    A8        2.18919  -0.00147   0.00000  -0.00451  -0.00449   2.18470
    A9        2.18953  -0.00145   0.00000  -0.00438  -0.00436   2.18517
   A10        1.88689   0.00018   0.00000  -0.00053  -0.00055   1.88634
   A11        2.10179   0.00114   0.00000   0.00778   0.00779   2.10958
   A12        2.29450  -0.00132   0.00000  -0.00725  -0.00724   2.28727
   A13        1.87327  -0.00164   0.00000  -0.00391  -0.00387   1.86940
   A14        2.21509   0.00079   0.00000   0.00177   0.00175   2.21684
   A15        2.19482   0.00085   0.00000   0.00214   0.00212   2.19694
   A16        1.99571  -0.00133   0.00000  -0.00851  -0.00855   1.98716
   A17        1.98260  -0.00149   0.00000  -0.00888  -0.00891   1.97369
   A18        1.98464  -0.00145   0.00000  -0.00876  -0.00878   1.97586
   A19        1.82752   0.00159   0.00000   0.00953   0.00949   1.83700
   A20        1.82729   0.00154   0.00000   0.00901   0.00898   1.83627
   A21        1.82832   0.00177   0.00000   0.01150   0.01149   1.83981
   A22        3.13397   0.00001   0.00000   0.00643   0.00644   3.14041
   A23        3.14305   0.00001   0.00000  -0.00016  -0.00016   3.14288
    D1        3.14157   0.00000   0.00000   0.00005   0.00005  -3.14156
    D2       -0.00004  -0.00000   0.00000  -0.00004  -0.00004  -0.00008
    D3       -0.00006   0.00000   0.00000   0.00014   0.00014   0.00008
    D4        3.14151   0.00000   0.00000   0.00005   0.00005   3.14156
    D5        0.00000   0.00000   0.00000   0.00000   0.00000   0.00000
    D6       -3.14155  -0.00000   0.00000  -0.00009  -0.00009   3.14155
    D7        3.14155   0.00000   0.00000   0.00009   0.00009  -3.14154
    D8       -0.00000   0.00000   0.00000   0.00000   0.00000   0.00000
    D9        0.00010  -0.00001   0.00000  -0.00023  -0.00023  -0.00013
   D10        3.14156   0.00000   0.00000   0.00004   0.00004  -3.14158
   D11       -3.14147  -0.00000   0.00000  -0.00015  -0.00015   3.14156
   D12       -0.00001   0.00000   0.00000   0.00012   0.00012   0.00011
   D13       -0.00010   0.00001   0.00000   0.00023   0.00023   0.00013
   D14        3.14148   0.00000   0.00000   0.00015   0.00015  -3.14156
   D15       -3.14156  -0.00000   0.00000  -0.00003  -0.00003   3.14159
   D16        0.00001  -0.00000   0.00000  -0.00012  -0.00012  -0.00010
   D17        3.04104  -0.00001   0.00000  -0.00027  -0.00027   3.04077
   D18       -1.14481  -0.00007   0.00000  -0.00193  -0.00192  -1.14673
   D19        0.94221   0.00007   0.00000   0.00178   0.00177   0.94398
   D20       -0.10183  -0.00001   0.00000   0.00017   0.00017  -0.10166
   D21        1.99550  -0.00006   0.00000  -0.00149  -0.00147   1.99402
   D22       -2.20066   0.00008   0.00000   0.00222   0.00221  -2.19845
   D23        0.00006  -0.00000   0.00000  -0.00014  -0.00014  -0.00008
   D24       -3.14157  -0.00000   0.00000  -0.00005  -0.00005   3.14156
   D25       -3.14151  -0.00000   0.00000  -0.00005  -0.00005  -3.14156
   D26        0.00004   0.00000   0.00000   0.00004   0.00004   0.00008
         Item               Value     Threshold  Converged?
 Maximum Force            0.021604     0.000450     NO 
 RMS     Force            0.004832     0.000300     NO 
 Maximum Displacement     0.069127     0.001800     NO 
 RMS     Displacement     0.024082     0.001200     NO 
 Predicted change in Energy=-1.732584D-03
 GradGradGradGradGradGradGradGradGradGradGradGradGradGradGradGradGradGrad

                          Input orientation:                          
 ---------------------------------------------------------------------
 Center     Atomic      Atomic             Coordinates (Angstroms)
 Number     Number       Type             X           Y           Z
 ---------------------------------------------------------------------
      1          6           0       -0.384116    0.405920    0.169734
      2          6           0       -0.133469   -0.876091   -0.333721
      3          1           0       -1.146160    1.096368   -0.191697
      4          7           0        0.905095   -1.424892    0.390285
      5          1           0       -0.607848   -1.433064   -1.140752
      6          6           0        1.328508   -0.525882    1.347569
      7          1           0        1.303833   -2.363574    0.238771
      8          6           0        0.543901    0.628219    1.236965
      9          1           0        2.144855   -0.773728    2.024850
     10          1           0        0.632576    1.522433    1.853866
     11          7           0        2.045542   -4.117507   -0.044494
     12          1           0        2.870268   -4.314701    0.526253
     13          1           0        1.386611   -4.870097    0.166032
     14          1           0        2.342408   -4.278319   -1.009329
 ---------------------------------------------------------------------
                    Distance matrix (angstroms):
                    1          2          3          4          5
     1  C    0.000000
     2  C    1.399943   0.000000
     3  H    1.089983   2.221780   0.000000
     4  N    2.250018   1.379849   3.301985   0.000000
     5  H    2.269205   1.089291   2.754726   2.152472   0.000000
     6  C    2.277857   2.255385   3.335419   1.379816   3.280884
     7  H    3.244077   2.146204   4.261334   1.031054   2.534454
     8  C    1.431648   2.277901   2.261978   2.250021   3.350963
     9  H    3.350928   3.280868   4.386470   2.152399   4.246544
    10  H    2.261983   3.335458   2.744041   3.301979   4.386497
    11  N    5.139117   3.916442   6.114992   2.956319   3.930457
    12  H    5.744770   4.646077   6.776932   3.497340   4.814564
    13  H    5.565235   4.302614   6.491657   3.485912   4.183150
    14  H    5.546730   4.261639   6.459558   3.488098   4.100823
                    6          7          8          9         10
     6  C    0.000000
     7  H    2.146428   0.000000
     8  C    1.399925   3.244182   0.000000
     9  H    1.089293   2.534760   2.269201   0.000000
    10  H    2.221768   4.261475   1.089977   2.754738   0.000000
    11  N    3.918130   1.925266   5.139939   3.933561   6.116303
    12  H    4.172137   2.518583   5.509042   3.912864   6.390771
    13  H    4.502401   2.508944   5.664675   4.561839   6.654457
    14  H    4.545739   2.510505   5.688108   4.639765   6.691049
                   11         12         13         14
    11  N    0.000000
    12  H    1.022159   0.000000
    13  H    1.022206   1.624642   0.000000
    14  H    1.022202   1.624183   1.626414   0.000000
 Stoichiometry    C4H8N2
 Framework group  C1[X(C4H8N2)]
 Deg. of freedom    36
 Full point group                 C1      NOp   1
 Largest Abelian subgroup         C1      NOp   1
 Largest concise Abelian subgroup C1      NOp   1
                         Standard orientation:                         
 ---------------------------------------------------------------------
 Center     Atomic      Atomic             Coordinates (Angstroms)
 Number     Number       Type             X           Y           Z
 ---------------------------------------------------------------------
      1          6           0       -1.914224   -0.716596    0.000328
      2          6           0       -0.575895   -1.127350   -0.000300
      3          1           0       -2.783995   -1.373529    0.000694
      4          7           0        0.218281    0.001041   -0.000574
      5          1           0       -0.133059   -2.122564   -0.000478
      6          6           0       -0.577821    1.128034   -0.000303
      7          1           0        1.249335    0.001688   -0.001041
      8          6           0       -1.915444    0.715051    0.000328
      9          1           0       -0.136627    2.123979   -0.000484
     10          1           0       -2.786318    1.370511    0.000697
     11          7           0        3.174600    0.000614    0.000169
     12          1           0        3.588575    0.930415   -0.094191
     13          1           0        3.574633   -0.386096    0.857685
     14          1           0        3.577595   -0.550823   -0.760364
 ---------------------------------------------------------------------
 Rotational constants (GHZ):           8.6595053           1.7150744           1.4424398
 Standard basis: Aug-CC-pVDZ (5D, 7F)
 There are   222 symmetry adapted cartesian basis functions of A   symmetry.
 There are   210 symmetry adapted basis functions of A   symmetry.
   210 basis functions,   346 primitive gaussians,   222 cartesian basis functions
    23 alpha electrons       23 beta electrons
       nuclear repulsion energy       217.7090953809 Hartrees.
 NAtoms=   14 NActive=   14 NUniq=   14 SFac= 1.00D+00 NAtFMM=   60 NAOKFM=F Big=F
 Integral buffers will be    131072 words long.
 Raffenetti 1 integral format.
 Two-electron integral symmetry is turned on.
 One-electron integrals computed using PRISM.
 NBasis=   210 RedAO= T EigKep=  9.20D-06  NBF=   210
 NBsUse=   210 1.00D-06 EigRej= -1.00D+00 NBFU=   210
 Initial guess from the checkpoint file:  "/scr/Gau-76954.chk"
 B after Tr=    -0.000000   -0.000000    0.000000
         Rot=    1.000000   -0.000001   -0.000000    0.000483 Ang=  -0.06 deg.
 ExpMin= 2.97D-02 ExpMax= 9.05D+03 ExpMxC= 3.09D+02 IAcc=3 IRadAn=         5 AccDes= 0.00D+00
 Harris functional with IExCor=  205 and IRadAn=       5 diagonalized for initial guess.
 HarFok:  IExCor=  205 AccDes= 0.00D+00 IRadAn=         5 IDoV= 1 UseB2=F ITyADJ=14
 ICtDFT=  3500011 ScaDFX=  1.000000  1.000000  1.000000  1.000000
 FoFCou: FMM=F IPFlag=           0 FMFlag=      100000 FMFlg1=           0
         NFxFlg=           0 DoJE=T BraDBF=F KetDBF=T FulRan=T
         wScrn=  0.000000 ICntrl=       500 IOpCl=  0 I1Cent=   200000004 NGrid=           0
         NMat0=    1 NMatS0=      1 NMatT0=    0 NMatD0=    1 NMtDS0=    0 NMtDT0=    0
 Petite list used in FoFCou.
 Requested convergence on RMS density matrix=1.00D-08 within 128 cycles.
 Requested convergence on MAX density matrix=1.00D-06.
 Requested convergence on             energy=1.00D-06.
 No special actions if energy rises.
 SCF Done:  E(RHF) =  -265.046040792     A.U. after   11 cycles
            NFock= 11  Conv=0.27D-08     -V/T= 2.0025
 ExpMin= 2.97D-02 ExpMax= 9.05D+03 ExpMxC= 3.09D+02 IAcc=3 IRadAn=         5 AccDes= 0.00D+00
 HarFok:  IExCor=  205 AccDes= 0.00D+00 IRadAn=         5 IDoV=-2 UseB2=F ITyADJ=14
 ICtDFT= 12500011 ScaDFX=  1.000000  1.000000  1.000000  1.000000
 Range of M.O.s used for correlation:     7   210
 NBasis=   210 NAE=    23 NBE=    23 NFC=     6 NFV=     0
 NROrb=    204 NOA=    17 NOB=    17 NVA=   187 NVB=   187

 **** Warning!!: The largest alpha MO coefficient is  0.91864970D+02

 Fully direct method using O(ONN) memory.
 JobTyp=1 Pass  1:  I=   7 to  23 NPSUse= 40 ParTrn=T ParDer=T DoDerP=T.
 Spin components of T(2) and E(2):
     alpha-alpha T2 =       0.4507270475D-01 E2=     -0.1206529766D+00
     alpha-beta  T2 =       0.2436840111D+00 E2=     -0.6932278808D+00
     beta-beta   T2 =       0.4507270475D-01 E2=     -0.1206529766D+00
 ANorm=    0.1154915330D+01
 E2 =    -0.9345338340D+00 EUMP2 =    -0.26598057462618D+03
          IDoAtm=11111111111111
          Differentiating once with respect to electric field.
                with respect to dipole field.
          Differentiating once with respect to nuclear coordinates.
 Keep R1 ints in memory in canonical form, NReq=254564540.
          There are     1 degrees of freedom in the 1st order CPHF.  IDoFFX=0 NUNeed=     1.
 LinEq1:  Iter=  0 NonCon=     1 RMS=3.21D-03 Max=4.57D-02 NDo=     1
 AX will form     1 AO Fock derivatives at one time.
 LinEq1:  Iter=  1 NonCon=     1 RMS=6.23D-04 Max=1.09D-02 NDo=     1
 LinEq1:  Iter=  2 NonCon=     1 RMS=3.47D-04 Max=9.82D-03 NDo=     1
 LinEq1:  Iter=  3 NonCon=     1 RMS=1.03D-04 Max=2.71D-03 NDo=     1
 LinEq1:  Iter=  4 NonCon=     1 RMS=4.69D-05 Max=8.32D-04 NDo=     1
 LinEq1:  Iter=  5 NonCon=     1 RMS=1.31D-05 Max=1.77D-04 NDo=     1
 LinEq1:  Iter=  6 NonCon=     1 RMS=2.47D-06 Max=3.71D-05 NDo=     1
 LinEq1:  Iter=  7 NonCon=     1 RMS=4.20D-07 Max=3.93D-06 NDo=     1
 LinEq1:  Iter=  8 NonCon=     1 RMS=1.69D-07 Max=2.60D-06 NDo=     1
 LinEq1:  Iter=  9 NonCon=     1 RMS=3.00D-08 Max=6.43D-07 NDo=     1
 LinEq1:  Iter= 10 NonCon=     1 RMS=5.39D-09 Max=9.14D-08 NDo=     1
 LinEq1:  Iter= 11 NonCon=     1 RMS=9.43D-10 Max=1.09D-08 NDo=     1
 LinEq1:  Iter= 12 NonCon=     1 RMS=1.65D-10 Max=1.83D-09 NDo=     1
 LinEq1:  Iter= 13 NonCon=     0 RMS=6.53D-11 Max=8.02D-10 NDo=     1
 Linear equations converged to 1.000D-10 1.000D-09 after    13 iterations.
 End of Minotr F.D. properties file   721 does not exist.
 End of Minotr F.D. properties file   722 does not exist.
 End of Minotr F.D. properties file   788 does not exist.
 Calling FoFJK, ICntrl=  10002127 FMM=F ISym2X=0 I1Cent= 0 IOpClX= 0 NMat=1 NMatS=1 NMatT=0.
 ***** Axes restored to original set *****
 -------------------------------------------------------------------
 Center     Atomic                   Forces (Hartrees/Bohr)
 Number     Number              X              Y              Z
 -------------------------------------------------------------------
      1        6           0.001366874    0.000181326    0.001480268
      2        6           0.001161532   -0.001667810    0.000199643
      3        1           0.000245116   -0.000406598    0.000005972
      4        7          -0.001226572    0.002758293    0.000388388
      5        1          -0.000031749    0.000551840    0.000298146
      6        6           0.000351656   -0.001886808   -0.000748412
      7        1          -0.001017168    0.002564384    0.000474350
      8        6          -0.001252938   -0.000460054   -0.001541303
      9        1          -0.000402336    0.000454129   -0.000133143
     10        1           0.000116209   -0.000439922   -0.000143652
     11        7           0.002018610   -0.004937274   -0.000849230
     12        1          -0.000513847    0.001061518    0.000117738
     13        1          -0.000343745    0.001160830    0.000146335
     14        1          -0.000471642    0.001066146    0.000304901
 -------------------------------------------------------------------
 Cartesian Forces:  Max     0.004937274 RMS     0.001277210

 GradGradGradGradGradGradGradGradGradGradGradGradGradGradGradGradGradGrad
 Berny optimization.
 Using GEDIIS/GDIIS optimizer.
 FormGI is forming the generalized inverse of G from B-inverse, IUseBI=4.
 Internal  Forces:  Max     0.002029988 RMS     0.000661364
 Search for a local minimum.
 Step number   2 out of a maximum of   73
 All quantities printed in internal units (Hartrees-Bohrs-Radians)
 Mixed Optimization -- En-DIIS/RFO-DIIS
 Update second derivatives using D2CorX and points    1    2
 DE= -1.67D-03 DEPred=-1.73D-03 R= 9.67D-01
 TightC=F SS=  1.41D+00  RLast= 1.08D-01 DXNew= 5.0454D-01 3.2489D-01
 Trust test= 9.67D-01 RLast= 1.08D-01 DXMaxT set to 3.25D-01
 ITU=  1  0
 Use linear search instead of GDIIS.
     Eigenvalues ---    0.00230   0.00230   0.00230   0.01504   0.02048
     Eigenvalues ---    0.02087   0.02165   0.02213   0.02257   0.02283
     Eigenvalues ---    0.04866   0.06526   0.06729   0.15383   0.16000
     Eigenvalues ---    0.16000   0.16000   0.16000   0.16000   0.16000
     Eigenvalues ---    0.16013   0.21876   0.22000   0.35750   0.35790
     Eigenvalues ---    0.35849   0.36194   0.40357   0.43568   0.43722
     Eigenvalues ---    0.43864   0.43872   0.44522   0.46942   0.50353
     Eigenvalues ---    0.56015
 RFO step:  Lambda=-1.45744474D-04 EMin= 2.29999955D-03
 Quartic linear search produced a step of -0.00507.
 Iteration  1 RMS(Cart)=  0.01420945 RMS(Int)=  0.00008347
 Iteration  2 RMS(Cart)=  0.00018791 RMS(Int)=  0.00001455
 Iteration  3 RMS(Cart)=  0.00000002 RMS(Int)=  0.00001455
 Variable       Old X    -DE/DX   Delta X   Delta X   Delta X     New X
                                 (Linear)    (Quad)   (Total)
    R1        2.64551  -0.00055  -0.00022   0.00091   0.00069   2.64620
    R2        2.05977  -0.00043  -0.00008  -0.00052  -0.00059   2.05918
    R3        2.70542  -0.00200  -0.00016  -0.00304  -0.00320   2.70223
    R4        2.60754  -0.00201  -0.00007  -0.00341  -0.00348   2.60405
    R5        2.05846  -0.00049  -0.00008  -0.00066  -0.00074   2.05772
    R6        2.60747  -0.00203  -0.00007  -0.00345  -0.00352   2.60395
    R7        1.94841  -0.00099  -0.00010  -0.00134  -0.00143   1.94698
    R8        2.64548  -0.00055  -0.00022   0.00091   0.00069   2.64617
    R9        2.05847  -0.00049  -0.00008  -0.00066  -0.00074   2.05773
   R10        3.63823   0.00181  -0.00033   0.03747   0.03714   3.67537
   R11        2.05976  -0.00043  -0.00008  -0.00052  -0.00060   2.05916
   R12        1.93160  -0.00055   0.00001  -0.00132  -0.00131   1.93029
   R13        1.93169  -0.00060   0.00001  -0.00143  -0.00143   1.93026
   R14        1.93168  -0.00059   0.00001  -0.00141  -0.00140   1.93028
    A1        2.19692  -0.00025  -0.00001  -0.00158  -0.00159   2.19533
    A2        1.86944   0.00009   0.00002   0.00063   0.00064   1.87008
    A3        2.21682   0.00016  -0.00001   0.00095   0.00095   2.21777
    A4        1.88629  -0.00057   0.00000  -0.00278  -0.00277   1.88351
    A5        2.28725  -0.00012   0.00004  -0.00147  -0.00144   2.28581
    A6        2.10965   0.00069  -0.00004   0.00425   0.00421   2.11386
    A7        1.91331   0.00097  -0.00004   0.00427   0.00423   1.91754
    A8        2.18470  -0.00044   0.00002  -0.00188  -0.00186   2.18285
    A9        2.18517  -0.00053   0.00002  -0.00239  -0.00237   2.18280
   A10        1.88634  -0.00058   0.00000  -0.00280  -0.00280   1.88354
   A11        2.10958   0.00069  -0.00004   0.00420   0.00416   2.11374
   A12        2.28727  -0.00011   0.00004  -0.00140  -0.00136   2.28591
   A13        1.86940   0.00010   0.00002   0.00068   0.00070   1.87010
   A14        2.21684   0.00016  -0.00001   0.00094   0.00093   2.21777
   A15        2.19694  -0.00026  -0.00001  -0.00162  -0.00163   2.19531
   A16        1.98716  -0.00089   0.00004  -0.00594  -0.00588   1.98127
   A17        1.97369  -0.00090   0.00005  -0.00598  -0.00597   1.96772
   A18        1.97586  -0.00088   0.00004  -0.00585  -0.00584   1.97002
   A19        1.83700   0.00101  -0.00005   0.00663   0.00660   1.84360
   A20        1.83627   0.00100  -0.00005   0.00661   0.00657   1.84284
   A21        1.83981   0.00101  -0.00006   0.00691   0.00678   1.84659
   A22        3.14041  -0.00006  -0.00003  -0.02326  -0.02331   3.11710
   A23        3.14288   0.00000   0.00000   0.00060   0.00060   3.14348
    D1       -3.14156  -0.00000  -0.00000  -0.00010  -0.00010   3.14152
    D2       -0.00008   0.00000   0.00000   0.00001   0.00001  -0.00007
    D3        0.00008  -0.00000  -0.00000  -0.00013  -0.00013  -0.00006
    D4        3.14156  -0.00000  -0.00000  -0.00002  -0.00002   3.14154
    D5        0.00000  -0.00000  -0.00000  -0.00000  -0.00000  -0.00000
    D6        3.14155   0.00000   0.00000   0.00003   0.00003   3.14158
    D7       -3.14154  -0.00000  -0.00000  -0.00003  -0.00003  -3.14157
    D8        0.00000   0.00000  -0.00000   0.00000   0.00000   0.00001
    D9       -0.00013   0.00001   0.00000   0.00022   0.00022   0.00010
   D10       -3.14158   0.00000  -0.00000   0.00023   0.00023  -3.14135
   D11        3.14156   0.00000   0.00000   0.00012   0.00012  -3.14150
   D12        0.00011   0.00000  -0.00000   0.00013   0.00013   0.00024
   D13        0.00013  -0.00001  -0.00000  -0.00022  -0.00022  -0.00010
   D14       -3.14156  -0.00000  -0.00000  -0.00012  -0.00012   3.14150
   D15        3.14159  -0.00000   0.00000  -0.00024  -0.00024   3.14135
   D16       -0.00010  -0.00000   0.00000  -0.00013  -0.00013  -0.00024
   D17        3.04077   0.00000   0.00000   0.00016   0.00016   3.04093
   D18       -1.14673  -0.00000   0.00001   0.00335   0.00333  -1.14341
   D19        0.94398   0.00000  -0.00001  -0.00226  -0.00224   0.94174
   D20       -0.10166   0.00000  -0.00000  -0.00031  -0.00031  -0.10197
   D21        1.99402  -0.00000   0.00001   0.00288   0.00285   1.99688
   D22       -2.19845   0.00000  -0.00001  -0.00273  -0.00271  -2.20116
   D23       -0.00008   0.00000   0.00000   0.00014   0.00014   0.00006
   D24        3.14156   0.00000   0.00000   0.00010   0.00010  -3.14152
   D25       -3.14156   0.00000   0.00000   0.00002   0.00002  -3.14154
   D26        0.00008  -0.00000  -0.00000  -0.00001  -0.00001   0.00007
         Item               Value     Threshold  Converged?
 Maximum Force            0.002030     0.000450     NO 
 RMS     Force            0.000661     0.000300     NO 
 Maximum Displacement     0.040728     0.001800     NO 
 RMS     Displacement     0.014298     0.001200     NO 
 Predicted change in Energy=-7.328565D-05
 GradGradGradGradGradGradGradGradGradGradGradGradGradGradGradGradGradGrad

                          Input orientation:                          
 ---------------------------------------------------------------------
 Center     Atomic      Atomic             Coordinates (Angstroms)
 Number     Number       Type             X           Y           Z
 ---------------------------------------------------------------------
      1          6           0       -0.383927    0.402865    0.168254
      2          6           0       -0.126094   -0.880588   -0.328875
      3          1           0       -1.148420    1.086831   -0.199334
      4          7           0        0.911964   -1.417411    0.401299
      5          1           0       -0.596638   -1.441946   -1.134582
      6          6           0        1.329502   -0.514775    1.355063
      7          1           0        1.315811   -2.354013    0.255726
      8          6           0        0.538822    0.634749    1.235747
      9          1           0        2.144595   -0.753135    2.036617
     10          1           0        0.622021    1.531729    1.848824
     11          7           0        2.045148   -4.130462   -0.052513
     12          1           0        2.870126   -4.336253    0.513571
     13          1           0        1.376067   -4.873629    0.155799
     14          1           0        2.333025   -4.278877   -1.021265
 ---------------------------------------------------------------------
                    Distance matrix (angstroms):
                    1          2          3          4          5
     1  C    0.000000
     2  C    1.400310   0.000000
     3  H    1.089669   2.220961   0.000000
     4  N    2.246564   1.378005   3.298055   0.000000
     5  H    2.268470   1.088898   2.752065   2.153002   0.000000
     6  C    2.277371   2.255709   3.334874   1.377952   3.281462
     7  H    3.239929   2.142856   4.256632   1.030295   2.534223
     8  C    1.429957   2.277367   2.260668   2.246530   3.349685
     9  H    3.349708   3.281437   4.385077   2.152883   4.247979
    10  H    2.260659   3.334865   2.743601   3.298002   4.385041
    11  N    5.147835   3.918208   6.118871   2.975013   3.921483
    12  H    5.759110   4.650663   6.787251   3.516624   4.807482
    13  H    5.562295   4.293690   6.482764   3.495870   4.163304
    14  H    5.542157   4.251475   6.448787   3.497298   4.079700
                    6          7          8          9         10
     6  C    0.000000
     7  H    2.142784   0.000000
     8  C    1.400292   3.239884   0.000000
     9  H    1.088903   2.534022   2.268507   0.000000
    10  H    2.220925   4.256559   1.089660   2.752109   0.000000
    11  N    3.945455   1.944921   5.160995   3.972492   6.140097
    12  H    4.205392   2.532125   5.537814   3.960404   6.424180
    13  H    4.521063   2.522317   5.675341   4.594190   6.668098
    14  H    4.563163   2.523992   5.697104   4.670868   6.702842
                   11         12         13         14
    11  N    0.000000
    12  H    1.021464   0.000000
    13  H    1.021450   1.627571   0.000000
    14  H    1.021459   1.627111   1.629410   0.000000
 Stoichiometry    C4H8N2
 Framework group  C1[X(C4H8N2)]
 Deg. of freedom    36
 Full point group                 C1      NOp   1
 Largest Abelian subgroup         C1      NOp   1
 Largest concise Abelian subgroup C1      NOp   1
                         Standard orientation:                         
 ---------------------------------------------------------------------
 Center     Atomic      Atomic             Coordinates (Angstroms)
 Number     Number       Type             X           Y           Z
 ---------------------------------------------------------------------
      1          6           0       -1.908568   -0.726564    0.000376
      2          6           0       -0.565704   -1.123533   -0.000299
      3          1           0       -2.770177   -1.393652    0.000795
      4          7           0        0.212541    0.013671   -0.000768
      5          1           0       -0.114168   -2.114398   -0.000481
      6          6           0       -0.592477    1.132017   -0.000290
      7          1           0        1.242762    0.025936   -0.001509
      8          6           0       -1.925524    0.703293    0.000381
      9          1           0       -0.164487    2.133283   -0.000464
     10          1           0       -2.802703    1.349755    0.000809
     11          7           0        3.187528    0.001455    0.000227
     12          1           0        3.606921    0.928073   -0.093997
     13          1           0        3.576732   -0.390721    0.859342
     14          1           0        3.578274   -0.555442   -0.761720
 ---------------------------------------------------------------------
 Rotational constants (GHZ):           8.6603531           1.7061107           1.4361576
 Standard basis: Aug-CC-pVDZ (5D, 7F)
 There are   222 symmetry adapted cartesian basis functions of A   symmetry.
 There are   210 symmetry adapted basis functions of A   symmetry.
   210 basis functions,   346 primitive gaussians,   222 cartesian basis functions
    23 alpha electrons       23 beta electrons
       nuclear repulsion energy       217.6378635520 Hartrees.
 NAtoms=   14 NActive=   14 NUniq=   14 SFac= 1.00D+00 NAtFMM=   60 NAOKFM=F Big=F
 Integral buffers will be    131072 words long.
 Raffenetti 1 integral format.
 Two-electron integral symmetry is turned on.
 One-electron integrals computed using PRISM.
 NBasis=   210 RedAO= T EigKep=  9.21D-06  NBF=   210
 NBsUse=   210 1.00D-06 EigRej= -1.00D+00 NBFU=   210
 Initial guess from the checkpoint file:  "/scr/Gau-76954.chk"
 B after Tr=    -0.000000    0.000000   -0.000000
         Rot=    0.999999   -0.000011    0.000002   -0.001715 Ang=  -0.20 deg.
 ExpMin= 2.97D-02 ExpMax= 9.05D+03 ExpMxC= 3.09D+02 IAcc=3 IRadAn=         5 AccDes= 0.00D+00
 Harris functional with IExCor=  205 and IRadAn=       5 diagonalized for initial guess.
 HarFok:  IExCor=  205 AccDes= 0.00D+00 IRadAn=         5 IDoV= 1 UseB2=F ITyADJ=14
 ICtDFT=  3500011 ScaDFX=  1.000000  1.000000  1.000000  1.000000
 FoFCou: FMM=F IPFlag=           0 FMFlag=      100000 FMFlg1=           0
         NFxFlg=           0 DoJE=T BraDBF=F KetDBF=T FulRan=T
         wScrn=  0.000000 ICntrl=       500 IOpCl=  0 I1Cent=   200000004 NGrid=           0
         NMat0=    1 NMatS0=      1 NMatT0=    0 NMatD0=    1 NMtDS0=    0 NMtDT0=    0
 Petite list used in FoFCou.
 Requested convergence on RMS density matrix=1.00D-08 within 128 cycles.
 Requested convergence on MAX density matrix=1.00D-06.
 Requested convergence on             energy=1.00D-06.
 No special actions if energy rises.
 SCF Done:  E(RHF) =  -265.046540596     A.U. after   10 cycles
            NFock= 10  Conv=0.62D-08     -V/T= 2.0024
 ExpMin= 2.97D-02 ExpMax= 9.05D+03 ExpMxC= 3.09D+02 IAcc=3 IRadAn=         5 AccDes= 0.00D+00
 HarFok:  IExCor=  205 AccDes= 0.00D+00 IRadAn=         5 IDoV=-2 UseB2=F ITyADJ=14
 ICtDFT= 12500011 ScaDFX=  1.000000  1.000000  1.000000  1.000000
 Range of M.O.s used for correlation:     7   210
 NBasis=   210 NAE=    23 NBE=    23 NFC=     6 NFV=     0
 NROrb=    204 NOA=    17 NOB=    17 NVA=   187 NVB=   187

 **** Warning!!: The largest alpha MO coefficient is  0.92635646D+02

 Fully direct method using O(ONN) memory.
 JobTyp=1 Pass  1:  I=   7 to  23 NPSUse= 40 ParTrn=T ParDer=T DoDerP=T.
 Spin components of T(2) and E(2):
     alpha-alpha T2 =       0.4503086929D-01 E2=     -0.1206035219D+00
     alpha-beta  T2 =       0.2434429471D+00 E2=     -0.6929371602D+00
     beta-beta   T2 =       0.4503086929D-01 E2=     -0.1206035219D+00
 ANorm=    0.1154774734D+01
 E2 =    -0.9341442039D+00 EUMP2 =    -0.26598068479970D+03
          IDoAtm=11111111111111
          Differentiating once with respect to electric field.
                with respect to dipole field.
          Differentiating once with respect to nuclear coordinates.
 Keep R1 ints in memory in canonical form, NReq=254564009.
          There are     1 degrees of freedom in the 1st order CPHF.  IDoFFX=0 NUNeed=     1.
 LinEq1:  Iter=  0 NonCon=     1 RMS=3.20D-03 Max=4.56D-02 NDo=     1
 AX will form     1 AO Fock derivatives at one time.
 LinEq1:  Iter=  1 NonCon=     1 RMS=6.18D-04 Max=1.08D-02 NDo=     1
 LinEq1:  Iter=  2 NonCon=     1 RMS=3.43D-04 Max=9.76D-03 NDo=     1
 LinEq1:  Iter=  3 NonCon=     1 RMS=1.02D-04 Max=2.70D-03 NDo=     1
 LinEq1:  Iter=  4 NonCon=     1 RMS=4.64D-05 Max=8.33D-04 NDo=     1
 LinEq1:  Iter=  5 NonCon=     1 RMS=1.30D-05 Max=1.77D-04 NDo=     1
 LinEq1:  Iter=  6 NonCon=     1 RMS=2.45D-06 Max=3.71D-05 NDo=     1
 LinEq1:  Iter=  7 NonCon=     1 RMS=4.03D-07 Max=4.10D-06 NDo=     1
 LinEq1:  Iter=  8 NonCon=     1 RMS=1.63D-07 Max=2.49D-06 NDo=     1
 LinEq1:  Iter=  9 NonCon=     1 RMS=2.97D-08 Max=6.30D-07 NDo=     1
 LinEq1:  Iter= 10 NonCon=     1 RMS=5.31D-09 Max=9.19D-08 NDo=     1
 LinEq1:  Iter= 11 NonCon=     1 RMS=9.17D-10 Max=1.03D-08 NDo=     1
 LinEq1:  Iter= 12 NonCon=     1 RMS=1.67D-10 Max=2.15D-09 NDo=     1
 LinEq1:  Iter= 13 NonCon=     1 RMS=7.24D-11 Max=1.56D-09 NDo=     1
 LinEq1:  Iter= 14 NonCon=     0 RMS=1.46D-11 Max=2.78D-10 NDo=     1
 Linear equations converged to 1.000D-10 1.000D-09 after    14 iterations.
 End of Minotr F.D. properties file   721 does not exist.
 End of Minotr F.D. properties file   722 does not exist.
 End of Minotr F.D. properties file   788 does not exist.
 Calling FoFJK, ICntrl=  10002127 FMM=F ISym2X=0 I1Cent= 0 IOpClX= 0 NMat=1 NMatS=1 NMatT=0.
 ***** Axes restored to original set *****
 -------------------------------------------------------------------
 Center     Atomic                   Forces (Hartrees/Bohr)
 Number     Number              X              Y              Z
 -------------------------------------------------------------------
      1        6           0.000580858    0.000033628    0.000610521
      2        6           0.000404457   -0.000240356    0.000244184
      3        1           0.000108213   -0.000174635    0.000008406
      4        7           0.000312442   -0.000280634    0.000176935
      5        1           0.000081497    0.000211082    0.000206408
      6        6          -0.000202177   -0.000252677   -0.000376890
      7        1          -0.001162321    0.002119210    0.000091453
      8        6          -0.000484077   -0.000203909   -0.000603072
      9        1          -0.000230808    0.000135601   -0.000153730
     10        1           0.000040244   -0.000182892   -0.000064785
     11        7           0.001335346   -0.003043556   -0.000461308
     12        1          -0.000313383    0.000575731    0.000040484
     13        1          -0.000187719    0.000683261    0.000081185
     14        1          -0.000282573    0.000620146    0.000200209
 -------------------------------------------------------------------
 Cartesian Forces:  Max     0.003043556 RMS     0.000705607

 GradGradGradGradGradGradGradGradGradGradGradGradGradGradGradGradGradGrad
 Berny optimization.
 Using GEDIIS/GDIIS optimizer.
 FormGI is forming the generalized inverse of G from B-inverse, IUseBI=4.
 Internal  Forces:  Max     0.001292525 RMS     0.000344656
 Search for a local minimum.
 Step number   3 out of a maximum of   73
 All quantities printed in internal units (Hartrees-Bohrs-Radians)
 Mixed Optimization -- En-DIIS/RFO-DIIS
 Swapping is turned off.
 Update second derivatives using D2CorX and points    1    2    3
 DE= -1.10D-04 DEPred=-7.33D-05 R= 1.50D+00
 TightC=F SS=  1.41D+00  RLast= 4.82D-02 DXNew= 5.4640D-01 1.4471D-01
 Trust test= 1.50D+00 RLast= 4.82D-02 DXMaxT set to 3.25D-01
 ITU=  1  1  0
     Eigenvalues ---    0.00230   0.00230   0.00266   0.01508   0.02048
     Eigenvalues ---    0.02087   0.02165   0.02198   0.02220   0.02257
     Eigenvalues ---    0.02282   0.06563   0.06826   0.13635   0.16000
     Eigenvalues ---    0.16000   0.16000   0.16000   0.16000   0.16004
     Eigenvalues ---    0.16258   0.21999   0.23937   0.35750   0.35798
     Eigenvalues ---    0.35849   0.36074   0.40351   0.42885   0.43575
     Eigenvalues ---    0.43864   0.43872   0.44398   0.47925   0.50364
     Eigenvalues ---    0.53546
 En-DIIS/RFO-DIIS/Sim-DIIS IScMMF=       -3 using points:     3    2
 RFO step:  Lambda=-2.24079300D-04.
 DidBck=F Rises=F RFO-DIIS coefs:    1.19926   -0.19926
 Iteration  1 RMS(Cart)=  0.08691153 RMS(Int)=  0.00299529
 Iteration  2 RMS(Cart)=  0.00774965 RMS(Int)=  0.00006390
 Iteration  3 RMS(Cart)=  0.00002714 RMS(Int)=  0.00006259
 Iteration  4 RMS(Cart)=  0.00000000 RMS(Int)=  0.00006259
 Variable       Old X    -DE/DX   Delta X   Delta X   Delta X     New X
                                 (Linear)    (Quad)   (Total)
    R1        2.64620  -0.00031   0.00014   0.00192   0.00206   2.64826
    R2        2.05918  -0.00019  -0.00012  -0.00065  -0.00077   2.05840
    R3        2.70223  -0.00098  -0.00064  -0.00534  -0.00598   2.69624
    R4        2.60405  -0.00071  -0.00069  -0.00481  -0.00551   2.59855
    R5        2.05772  -0.00030  -0.00015  -0.00138  -0.00153   2.05619
    R6        2.60395  -0.00064  -0.00070  -0.00455  -0.00525   2.59871
    R7        1.94698  -0.00110  -0.00029  -0.00509  -0.00537   1.94160
    R8        2.64617  -0.00032   0.00014   0.00189   0.00202   2.64819
    R9        2.05773  -0.00030  -0.00015  -0.00138  -0.00153   2.05620
   R10        3.67537   0.00129   0.00740   0.08445   0.09185   3.76721
   R11        2.05916  -0.00018  -0.00012  -0.00063  -0.00075   2.05841
   R12        1.93029  -0.00035  -0.00026  -0.00277  -0.00303   1.92726
   R13        1.93026  -0.00036  -0.00028  -0.00291  -0.00320   1.92707
   R14        1.93028  -0.00036  -0.00028  -0.00290  -0.00318   1.92710
    A1        2.19533  -0.00009  -0.00032  -0.00233  -0.00265   2.19268
    A2        1.87008   0.00002   0.00013   0.00048   0.00060   1.87068
    A3        2.21777   0.00008   0.00019   0.00186   0.00205   2.21982
    A4        1.88351   0.00002  -0.00055  -0.00208  -0.00263   1.88088
    A5        2.28581  -0.00009  -0.00029  -0.00268  -0.00297   2.28284
    A6        2.11386   0.00007   0.00084   0.00476   0.00560   2.11947
    A7        1.91754  -0.00005   0.00084   0.00338   0.00423   1.92177
    A8        2.18285  -0.00013  -0.00037  -0.00345  -0.00382   2.17902
    A9        2.18280   0.00018  -0.00047   0.00007  -0.00040   2.18240
   A10        1.88354   0.00004  -0.00056  -0.00194  -0.00250   1.88104
   A11        2.11374   0.00006   0.00083   0.00466   0.00549   2.11923
   A12        2.28591  -0.00010  -0.00027  -0.00272  -0.00299   2.28291
   A13        1.87010  -0.00002   0.00014   0.00016   0.00030   1.87040
   A14        2.21777   0.00009   0.00018   0.00191   0.00209   2.21986
   A15        2.19531  -0.00006  -0.00032  -0.00207  -0.00239   2.19292
   A16        1.98127  -0.00043  -0.00117  -0.01041  -0.01176   1.96952
   A17        1.96772  -0.00055  -0.00119  -0.01259  -0.01389   1.95383
   A18        1.97002  -0.00055  -0.00116  -0.01239  -0.01350   1.95651
   A19        1.84360   0.00058   0.00131   0.01358   0.01458   1.85818
   A20        1.84284   0.00058   0.00131   0.01349   0.01480   1.85764
   A21        1.84659   0.00056   0.00135   0.01265   0.01409   1.86068
   A22        3.11710   0.00023  -0.00464   0.16155   0.15696   3.27406
   A23        3.14348  -0.00000   0.00012  -0.00128  -0.00118   3.14230
    D1        3.14152   0.00000  -0.00002   0.00025   0.00024  -3.14143
    D2       -0.00007  -0.00000   0.00000  -0.00007  -0.00007  -0.00014
    D3       -0.00006   0.00000  -0.00003   0.00028   0.00026   0.00020
    D4        3.14154  -0.00000  -0.00000  -0.00005  -0.00004   3.14150
    D5       -0.00000   0.00000  -0.00000   0.00001   0.00001   0.00001
    D6        3.14158  -0.00000   0.00001  -0.00003  -0.00002   3.14155
    D7       -3.14157   0.00000  -0.00001   0.00003   0.00003  -3.14154
    D8        0.00001  -0.00000   0.00000  -0.00000  -0.00000   0.00001
    D9        0.00010  -0.00001   0.00004  -0.00047  -0.00044  -0.00035
   D10       -3.14135  -0.00000   0.00005  -0.00008  -0.00001  -3.14136
   D11       -3.14150  -0.00000   0.00002  -0.00019  -0.00017   3.14151
   D12        0.00024   0.00000   0.00003   0.00021   0.00026   0.00049
   D13       -0.00010   0.00001  -0.00004   0.00048   0.00045   0.00035
   D14        3.14150   0.00000  -0.00002   0.00020   0.00019  -3.14150
   D15        3.14135   0.00000  -0.00005   0.00009   0.00002   3.14137
   D16       -0.00024  -0.00000  -0.00003  -0.00019  -0.00024  -0.00048
   D17        3.04093   0.00000   0.00003   0.00206   0.00200   3.04293
   D18       -1.14341  -0.00000   0.00066  -0.02065  -0.01980  -1.16321
   D19        0.94174  -0.00000  -0.00045   0.01802   0.01756   0.95930
   D20       -0.10197   0.00001  -0.00006   0.00366   0.00345  -0.09852
   D21        1.99688   0.00000   0.00057  -0.01905  -0.01835   1.97853
   D22       -2.20116   0.00000  -0.00054   0.01962   0.01902  -2.18215
   D23        0.00006  -0.00000   0.00003  -0.00029  -0.00028  -0.00022
   D24       -3.14152  -0.00000   0.00002  -0.00026  -0.00024   3.14142
   D25       -3.14154   0.00000   0.00000   0.00002   0.00002  -3.14152
   D26        0.00007   0.00000  -0.00000   0.00006   0.00005   0.00012
         Item               Value     Threshold  Converged?
 Maximum Force            0.001293     0.000450     NO 
 RMS     Force            0.000345     0.000300     NO 
 Maximum Displacement     0.204216     0.001800     NO 
 RMS     Displacement     0.091141     0.001200     NO 
 Predicted change in Energy=-1.161130D-04
 GradGradGradGradGradGradGradGradGradGradGradGradGradGradGradGradGradGrad

                          Input orientation:                          
 ---------------------------------------------------------------------
 Center     Atomic      Atomic             Coordinates (Angstroms)
 Number     Number       Type             X           Y           Z
 ---------------------------------------------------------------------
      1          6           0       -0.388083    0.443645    0.187791
      2          6           0       -0.184096   -0.830957   -0.357824
      3          1           0       -1.136181    1.163094   -0.142712
      4          7           0        0.846746   -1.423136    0.333238
      5          1           0       -0.690780   -1.345225   -1.171913
      6          6           0        1.314278   -0.571435    1.306442
      7          1           0        1.213336   -2.364852    0.147660
      8          6           0        0.560207    0.607940    1.241111
      9          1           0        2.132875   -0.856432    1.964185
     10          1           0        0.687271    1.478986    1.882692
     11          7           0        2.092830   -4.146542   -0.014230
     12          1           0        2.901949   -4.245851    0.598619
     13          1           0        1.456902   -4.908256    0.220923
     14          1           0        2.424748   -4.325893   -0.961651
 ---------------------------------------------------------------------
                    Distance matrix (angstroms):
                    1          2          3          4          5
     1  C    0.000000
     2  C    1.401399   0.000000
     3  H    1.089261   2.220130   0.000000
     4  N    2.242950   1.375091   3.293495   0.000000
     5  H    2.267263   1.088090   2.747599   2.153029   0.000000
     6  C    2.275918   2.254387   3.333675   1.375175   3.280436
     7  H    3.233235   2.135688   4.248641   1.027452   2.531120
     8  C    1.426790   2.276183   2.258516   2.243124   3.347015
     9  H    3.346790   3.280355   4.382262   2.152967   4.248183
    10  H    2.258540   3.333921   2.743543   3.293713   4.382443
    11  N    5.221644   4.036775   6.215726   3.015030   4.115348
    12  H    5.743210   4.701059   6.790637   3.501715   4.945312
    13  H    5.661087   4.433078   6.611928   3.539911   4.387222
    14  H    5.655240   4.402868   6.593926   3.548638   4.316840
                    6          7          8          9         10
     6  C    0.000000
     7  H    2.137595   0.000000
     8  C    1.401363   3.234147   0.000000
     9  H    1.088094   2.533900   2.267268   0.000000
    10  H    2.220231   4.249961   1.089262   2.747833   0.000000
    11  N    3.889950   1.993524   5.150720   3.839343   6.100858
    12  H    4.064855   2.567671   5.427324   3.734221   6.271156
    13  H    4.472886   2.556089   5.680956   4.462418   6.644596
    14  H    4.524749   2.558080   5.715889   4.547843   6.693709
                   11         12         13         14
    11  N    0.000000
    12  H    1.019862   0.000000
    13  H    1.019759   1.633889   0.000000
    14  H    1.019776   1.633575   1.635345   0.000000
 Stoichiometry    C4H8N2
 Framework group  C1[X(C4H8N2)]
 Deg. of freedom    36
 Full point group                 C1      NOp   1
 Largest Abelian subgroup         C1      NOp   1
 Largest concise Abelian subgroup C1      NOp   1
                         Standard orientation:                         
 ---------------------------------------------------------------------
 Center     Atomic      Atomic             Coordinates (Angstroms)
 Number     Number       Type             X           Y           Z
 ---------------------------------------------------------------------
      1          6           0       -1.966166   -0.649651    0.000120
      2          6           0       -0.656095   -1.147277   -0.000184
      3          1           0       -2.873756   -1.251955    0.000283
      4          7           0        0.201150   -0.072099   -0.000101
      5          1           0       -0.283981   -2.169760   -0.000203
      6          6           0       -0.513801    1.102615   -0.000203
      7          1           0        1.226441   -0.138703   -0.000466
      8          6           0       -1.876161    0.774297    0.000116
      9          1           0       -0.015562    2.069934   -0.000248
     10          1           0       -2.700659    1.486121    0.000280
     11          7           0        3.215412   -0.004040   -0.000064
     12          1           0        3.547310    0.955697   -0.094230
     13          1           0        3.621816   -0.367167    0.861842
     14          1           0        3.635794   -0.531089   -0.765206
 ---------------------------------------------------------------------
 Rotational constants (GHZ):           8.6697855           1.6862468           1.4223884
 Standard basis: Aug-CC-pVDZ (5D, 7F)
 There are   222 symmetry adapted cartesian basis functions of A   symmetry.
 There are   210 symmetry adapted basis functions of A   symmetry.
   210 basis functions,   346 primitive gaussians,   222 cartesian basis functions
    23 alpha electrons       23 beta electrons
       nuclear repulsion energy       217.4324878044 Hartrees.
 NAtoms=   14 NActive=   14 NUniq=   14 SFac= 1.00D+00 NAtFMM=   60 NAOKFM=F Big=F
 Integral buffers will be    131072 words long.
 Raffenetti 1 integral format.
 Two-electron integral symmetry is turned on.
 One-electron integrals computed using PRISM.
 NBasis=   210 RedAO= T EigKep=  9.26D-06  NBF=   210
 NBsUse=   210 1.00D-06 EigRej= -1.00D+00 NBFU=   210
 Initial guess from the checkpoint file:  "/scr/Gau-76954.chk"
 B after Tr=    -0.000000   -0.000000   -0.000000
         Rot=    0.999933   -0.000000   -0.000003    0.011612 Ang=  -1.33 deg.
 ExpMin= 2.97D-02 ExpMax= 9.05D+03 ExpMxC= 3.09D+02 IAcc=3 IRadAn=         5 AccDes= 0.00D+00
 Harris functional with IExCor=  205 and IRadAn=       5 diagonalized for initial guess.
 HarFok:  IExCor=  205 AccDes= 0.00D+00 IRadAn=         5 IDoV= 1 UseB2=F ITyADJ=14
 ICtDFT=  3500011 ScaDFX=  1.000000  1.000000  1.000000  1.000000
 FoFCou: FMM=F IPFlag=           0 FMFlag=      100000 FMFlg1=           0
         NFxFlg=           0 DoJE=T BraDBF=F KetDBF=T FulRan=T
         wScrn=  0.000000 ICntrl=       500 IOpCl=  0 I1Cent=   200000004 NGrid=           0
         NMat0=    1 NMatS0=      1 NMatT0=    0 NMatD0=    1 NMtDS0=    0 NMtDT0=    0
 Petite list used in FoFCou.
 Requested convergence on RMS density matrix=1.00D-08 within 128 cycles.
 Requested convergence on MAX density matrix=1.00D-06.
 Requested convergence on             energy=1.00D-06.
 No special actions if energy rises.
 SCF Done:  E(RHF) =  -265.047262824     A.U. after   12 cycles
            NFock= 12  Conv=0.48D-08     -V/T= 2.0024
[...]
 8,0.00003072,-0.00025444,0.00000698,-0.00006706,-0.00011455,-0.0001381
 5,0.00009661,0.00003962,-0.00001722,-0.00000636,0.00000189,0.00019200,
 0.00001452,0.00005528,-0.00000591,-0.00000538,0.00000203,-0.00002171,-
 0.00005941,-0.00000159,0.00003376,-0.00004682,-0.00003304,-0.00012325,
 -0.00016319,0.00015664,0.00001094,0.00000289,-0.00000518,-0.00043723,-
 0.00024680,0.00028505,0.00001001,-0.00005072,0.00003561,0.00000190,-0.
 00000117,0.00008831,0.00100106,-0.00001139,0.00004787,-0.00000107,-0.0
 0003038,-0.00005837,0.00013499,0.00000716,0.00000173,-0.00000558,-0.00
 025774,-0.00046064,-0.00000204,-0.00000150,-0.00002364,0.00001815,-0.0
 0004333,0.00001224,0.00003046,0.00073939,0.00081482,-0.00000388,-0.000
 02706,-0.00001730,0.00018699,0.00001116,-0.00007796,-0.00000136,-0.000
 00622,0.00001119,0.00026738,0.00003689,-0.00053881,0.00005975,-0.00003
 424,-0.00000549,0.00008204,0.00007395,-0.00002725,-0.00085648,-0.00024
 141,0.00121378,0.00000252,-0.00000824,0.00000064,-0.00005672,-0.000010
 63,-0.00002154,-0.00003154,0.00001405,-0.00000416,0.00004878,-0.000028
 76,0.00000056,0.00000079,0.00000809,0.00000513,-0.00000597,0.00008316,
 0.00002143,0.00001206,-0.00002119,-0.00002583,0.00010627,0.00001304,-0
 .00005309,0.00007093,0.00005279,-0.00005511,0.00000950,0.00001501,-0.0
 0000390,0.00000625,-0.00006590,0.00004577,-0.00004479,-0.00000688,0.00
 000043,0.00000049,0.00002957,0.00002166,-0.00001657,-0.00002084,0.0000
 3252,-0.00001398,-0.00009961,0.00005736,0.00006661,0.00006438,0.000035
 16,-0.00001658,-0.00003537,-0.00004082,-0.00000707,0.00001006,-0.00001
 157,-0.00002706,-0.00002309,-0.00000086,-0.00000423,0.00000973,-0.0000
 0552,-0.00003309,0.00003404,0.00006820,-0.00001877,-0.00002008,0.00000
 598,0.00000039,-0.00008950,-0.00004759,0.00001626,-0.00000330,0.000001
 36,-0.00000073,-0.00000254,-0.00001158,0.00000019,0.00000099,0.0000011
 6,-0.00000741,0.00000062,-0.00000791,-0.00000087,-0.00000286,0.0000025
 6,0.00004916,-0.00002864,-0.00001413,-0.00001320,-0.00000850,0.0000138
 2,-0.00004198,0.00002138,0.00001661,-0.00000178,-0.00000482,-0.0000003
 7,-0.00001439,0.00000714,-0.00001163,-0.00000262,0.00000130,-0.0000004
 0,0.00000115,0.00000418,-0.00001254,-0.00000325,-0.00000293,-0.0000010
 4,0.00000018,-0.00005216,0.00010133,0.00000760,0.00003184,0.00001758,0
 .00005926,0.00001270,-0.00002704,0.00000736,0.00001176,-0.00005086,-0.
 00000375,-0.00000858,0.00001318,-0.00000284,-0.00002038,-0.00000205,0.
 00000187,0.00000161,0.00000122,-0.00001175,-0.00000723,-0.00001774,0.0
 0000056,0.00000109,-0.00000290,-0.00001084,0.00000373,0.00002140,0.000
 03246,0.00002288,0.00001609,0.00001022,0.00003603,-0.00002613,-0.00000
 604,-0.00002950,-0.00000204,0.00000743,0.00000873,0.00002426,0.0000073
 3,0.00000546,-0.00000316,-0.00000364,-0.00000297,-0.00000072,-0.000006
 90,-0.00000960,0.00001141,0.00000123,-0.00000045,-0.00000336,0.0000083
 9,-0.00001552,-0.00000166,-0.00000017,0.00000353,0.00000417,-0.0000243
 5,0.00002531,-0.00000550,0.00000473,-0.00000010,-0.00000393,0.00000692
 ,-0.00000099,0.00000760,-0.00000340,0.00000529,-0.00000179,0.00000092,
 -0.00000390,0.00000049,-0.00000006,-0.00001568,-0.00000669,0.00000145,
 0.00000039,-0.00000053,-0.00000195,-0.00000736,0.00000155,-0.00001231,
 0.00000108,-0.00000110,0.00000266,0.00002629,-0.00000255,0.00002181,-0
 .00000186,0.00000379,-0.00000190,-0.00000779,-0.00000112,0.00001544,0.
 00000292,0.00001050,-0.00000319,-0.00000100,0.00000851,-0.00000083,0.0
 0000040,-0.00000544,0.00001567,0.00000729,-0.00000931,-0.00000220,-0.0
 0000327,0.00000058,-0.00000539,-0.00000493,-0.00000901,0.00000647,0.00
 000216,0.00000064,-0.00000610,0.00001606,0.00000744,0.00000105,-0.0000
 0460,0.00000457,-0.00001610,-0.00000703,-0.00000647,0.00013187,0.00002
 535,0.00009888,-0.00005598,-0.00005192,-0.00017150,0.00000113,-0.00002
 285,0.00000089,0.00028021,0.00048664,0.00008143,0.00001000,-0.00001316
 ,-0.00000687,-0.00006010,0.00008623,-0.00012985,-0.00234928,0.00011210
 ,0.00003553,0.00000282,0.00005314,0.00007876,0.00002665,0.00010827,0.0
 0010980,-0.00001195,-0.00000024,-0.00000890,2.07869495,0.00011493,-0.0
 0017969,-0.00001114,-0.00037900,0.00009603,-0.00036129,-0.00000197,-0.
 00002142,-0.00000275,0.00034394,0.00057887,0.00016526,0.00004459,-0.00
 002851,0.00002485,0.00006409,0.00035032,0.00014393,-0.00114653,-0.0005
 4138,0.00026931,0.00008529,-0.00005357,0.00009322,-0.00000420,0.000029
 99,0.00003312,-0.00000762,-0.00001816,-0.00001023,-0.40209612,-0.47918
 730,0.00009587,-0.00008410,0.00015977,-0.00015897,-0.00001713,-0.00036
 379,0.00000675,-0.00002460,-0.00001138,0.00002040,0.00030523,0.0006776
 9,0.00003252,-0.00003472,0.00001821,-0.00022382,0.00013140,0.00008291,
 -0.00052065,0.00079016,-0.00223362,0.00010990,0.00005655,0.00006915,0.
 00003385,0.00011694,0.00009170,-0.00001227,0.00000102,-0.00001695,1.32
 717566,-0.42664837,1.43608517,-0.00012675,0.00005282,-0.00009488,0.000
 16608,0.00002949,0.00009084,-0.00000920,0.00002442,0.00001109,0.000015
 21,-0.00024362,-0.00011894,-0.00004913,0.00002784,-0.00000491,0.000024
 59,-0.00011692,-0.00006737,0.00116577,-0.00051932,0.00064422,0.0000118
 3,-0.00005761,-0.00005983,-0.00003494,-0.00011378,-0.00007335,-0.00000
 883,-0.00000300,-0.00000460,-1.98486940,0.66437378,-1.85090059,1.97083
 908,-0.00000015,-0.00000382,-0.00000197,0.00019992,-0.00001298,0.00009
 946,0.00000414,-0.00000406,0.00000354,0.00000503,-0.00061390,-0.000238
 72,-0.00000397,0.00000160,0.00001340,0.00006934,-0.00010051,-0.0000043
 8,0.00023897,0.00038643,0.00028870,-0.00002583,0.00000375,-0.00006088,
 0.00000729,-0.00001733,0.00001473,0.00000241,-0.00000499,0.00000409,0.
 67961973,0.55480975,0.47415863,-0.66143039,-0.54841665,-0.00006101,0.0
 0002512,-0.00009754,-0.00000305,-0.00010419,0.00033653,0.00000675,0.00
 002095,0.00000267,0.00004605,-0.00049667,-0.00023881,-0.00001159,0.000
 03855,-0.00001971,0.00002925,-0.00015448,-0.00003209,0.00111389,-0.000
 07642,0.00056768,-0.00006100,-0.00007180,-0.00000652,0.00000817,-0.000
 06883,-0.00007205,0.00000372,-0.00000066,-0.00000975,-1.84374192,0.461
 86517,-0.55681462,1.82778141,-0.46498926,0.55333343,0.00001146,0.00000
 648,-0.00002681,-0.00011149,0.00004935,0.00000949,-0.00000374,-0.00000
 243,-0.00000448,-0.00008758,0.00000055,-0.00007157,-0.00000788,0.00002
 204,-0.00001375,0.00005313,0.00002211,0.00005749,0.00033281,0.00029232
 ,0.00003670,-0.00004965,-0.00002319,0.00001524,0.00000322,-0.00000395,
 -0.00002847,0.00001426,-0.00000447,0.00000645,-0.17307672,-0.32208084,
 0.11718379,0.00731536,-0.01449691,0.01090306,0.16349577,-0.00006217,0.
 00007079,0.00000192,0.00008870,0.00001573,0.00007112,-0.00000022,0.000
 01234,-0.00000040,-0.00015130,0.00012642,0.00002218,-0.00002678,0.0000
 1950,-0.00001975,-0.00007036,-0.00006695,-0.00003130,0.00025598,-0.000
 07721,0.00003189,-0.00001047,0.00001681,-0.00002330,0.00000737,-0.0000
 1525,-0.00002603,0.00000019,0.00000805,0.00000135,-0.34541330,-0.27429
 431,0.14303553,-0.00088993,-0.00500929,0.00358555,0.34620774,0.2741822
 9,0.00000237,0.00004076,-0.00002231,0.00006883,0.00004702,0.00007400,-
 0.00000743,0.00000796,0.00001138,0.00002981,0.00004566,-0.00016233,-0.
 00000752,-0.00000251,0.00001378,0.00001954,-0.00004190,-0.00009120,-0.
 00018872,-0.00065075,0.00026056,-0.00001675,0.00002733,0.00001189,-0.0
 0001492,-0.00002515,-0.00001501,-0.00000798,0.00000765,0.00001046,0.11
 557568,0.13329145,0.06935988,0.00606326,-0.00282411,0.00305353,-0.1311
 8725,-0.14311213,-0.07423989,-0.00002608,-0.00003602,0.00004153,0.0000
 3822,0.00004671,0.00000490,0.00000630,0.00000946,-0.00000234,-0.000106
 70,-0.00008494,0.00005629,0.00002736,0.00000099,0.00001049,-0.00006217
 ,-0.00005630,0.00002979,0.00035479,-0.00026114,-0.00044305,0.00002507,
 0.00006395,-0.00000547,0.00000072,0.00000055,-0.00001396,0.00000557,0.
 00001221,0.00000223,0.08127579,0.06068966,0.40715757,0.00556034,-0.004
 18957,0.00398629,0.00211108,0.00006455,0.00967109,-0.08921030,-0.00002
 902,0.00006960,0.00000113,0.00008349,-0.00003332,0.00013801,-0.0000000
 5,0.00001206,0.00000444,-0.00007954,-0.00004983,0.00005448,-0.00000100
 ,0.00000762,-0.00001618,-0.00007924,-0.00007893,-0.00009020,0.00040592
 ,-0.00015086,-0.00045092,-0.00002492,0.00001672,0.00001143,0.00000249,
 -0.00001621,-0.00001955,-0.00000159,0.00001546,-0.00000322,0.06710614,
 0.19845939,-0.19178654,-0.00113377,-0.00101801,0.00042697,-0.00998878,
 0.00501108,0.01318871,-0.05626011,-0.20224476,-0.00003626,0.00002606,-
 0.00001289,-0.00000444,0.00010216,-0.00004189,-0.00000723,0.00000227,-
 0.00000157,-0.00015081,0.00014938,-0.00011819,-0.00004282,0.00002725,-
 0.00000984,0.00010222,0.00004407,0.00000446,-0.00009559,-0.00000144,0.
 00082450,-0.00001300,0.00001351,-0.00005893,-0.00002402,-0.00004413,-0
 .00001024,0.00001114,-0.00000822,0.00001423,0.40090241,-0.16885253,-0.
 94710412,0.01673366,-0.00646321,-0.00000275,0.00312011,-0.00353663,0.0
 0173525,-0.42049537,0.17854145,0.94478197,-0.00019603,-0.00000603,0.00
 003779,-0.00001760,0.00011370,-0.00014883,0.00007260,0.00002681,0.0000
 4541,0.00003791,0.00004985,-0.00002848,-0.00002295,0.00006018,0.000047
 73,0.00003772,-0.00004104,0.00005770,-0.00006159,0.00008025,0.00008209
 ,0.00011107,-0.00005752,0.00001273,-0.00000845,0.00000425,-0.00000210,
 -0.00006187,-0.00004803,0.00008297,-0.00005289,0.00002551,-0.00002618,
 0.00001052,0.00001953,-0.00006286,0.00001593,-0.00006110,0.00006403,0.
 00000501,0.00000181,0.00000351,-0.00000500,0.00002565,-0.00004643,-0.0
 0000714,0.00002447,-0.00004050,-0.00002526,-0.00012080,0.00018804,-0.0
 0001058,-0.00001097,0.00000802,0.00036459,0.00004386,0.00007339,0.0000
 5602,-0.00001280,-0.00011935,0.00002384,-0.00000962,0.00000456,0.00000
 871,-0.00003952,0.00060964,-0.00004411,0.00001796,0.00005838,0.0002439
 7,-0.00008381,-0.00004299,0.00000967,0.00001033,-0.00001420,-0.0003701
 4,-0.00005134,0.00031435,0.00000938,0.00000497,0.00001593,-0.00004914,
 -0.00002052,-0.00000069,0.00000496,-0.00000268,-0.00000265,0.00001697,
 0.00001185,0.00000281,0.00002521,0.00001878,0.00000009,0.00001814,-0.0
 0005079,-0.00000185,-0.00000463,0.00000196,-0.00000693,-0.00000867,0.0
 0000362,-0.00001433,-0.00000897,0.00003779,-0.00000697,0.00002110,0.00
 000970,0.00002185,-0.00001193,0.00001017,-0.00004424,0.00000011,-0.000
 00872,-0.00000266,-0.00000401,-0.00000602,0.00001578,-0.00002990,-0.00
 000866,0.00001818,-0.00011132,-0.00001622,0.00003388,0.00008424,0.0000
 5258,-0.00004474,0.00001430,0.00001031,-0.00000646,-0.00005652,0.00006
 145,0.00007948,0.00000563,0.00000142,0.00000314,-0.00009968,-0.0000026
 2,-0.00011684,0.00001213,-0.00014686,0.00015407,-0.00012730,0.00001378
 ,0.00000301,0.00000217,0.00012302,-0.00017457,0.00003615,0.00000252,0.
 00000788,-0.00000117,-0.00007724,0.00003783,0.00003377,-0.00003688,-0.
 00014092,-0.00016883,0.00006842,0.00003944,0.00000116,-0.00000175,0.00
 002523,0.00010635,-0.00002526,-0.00003019,-0.00000310,0.00000512,0.000
 00480,-0.00007057,0.00008250,-0.00007045,-0.00000615,-0.00003413,0.000
 00340,0.00008230,-0.00000915,-0.00005545,0.00000716,0.00000955,0.00000
 720,-0.00054405,0.00005623,0.00008665,0.00000255,0.00000010,0.00000478
 ,-0.00007185,0.00005519,0.00007400,0.00098994,-0.00003217,0.00002338,0
 .00000032,0.00007499,0.00002317,0.00003097,0.00000410,0.00000069,0.000
 00105,0.00002803,-0.00035882,0.00019421,-0.00000903,0.00000572,-0.0000
 1114,-0.00010876,0.00004265,-0.00000956,-0.00004847,0.00028927,0.00000
 924,0.00001154,-0.00002840,0.00000534,-0.00007379,0.00005284,-0.000000
 04,-0.00000011,0.00001028,0.00009385,0.00017146,-0.00043277,0.00000056
 ,-0.00000387,0.00000360,0.00000111,0.00015542,-0.00002859,-0.00003581,
 -0.00040679,0.00080337,0.00010252,0.00009383,-0.00006529,-0.00016337,0
 .00000209,-0.00002455,-0.00004341,0.00000590,0.00000260,0.00010528,-0.
 00006442,0.00004001,-0.00001121,-0.00000369,0.00000070,0.00008110,0.00
 004767,0.00003535,0.00003294,0.00003382,-0.00010609,-0.00010489,-0.000
 00291,-0.00005161,-0.00007210,0.00007763,-0.00011389,0.00003977,0.0000
 1881,0.00000214,0.00002864,-0.00004902,0.00003485,-0.00005022,-0.00001
 105,0.00002146,0.00001488,0.00003987,0.00003092,-0.00004063,0.00005812
 ,0.00005196,0.00001638,-0.00013337,-0.00006634,-0.00005282,0.00004415,
 0.00012312,-0.00000962,-0.00000919,-0.00011410,-0.00000101,0.00002315,
 -0.00002386,0.00002791,-0.00006241,0.00001377,0.00000322,0.00000859,-0
 .00000737,0.00001433,-0.00004727,0.00011887,-0.00006580,-0.00001980,0.
 00006747,0.00005311,-0.00002213,-0.00021168,0.00000740,-0.00000671,-0.
 00000536,-0.00000127,-0.00000398,-0.00000239,-0.00000240,0.00000029,-0
 .00000154,-0.00001597,0.00000382,0.00000546,-0.00000144,-0.00000116,-0
 .00000087,0.00010320,0.00000242,0.00000342,0.00000905,0.00000877,-0.00
 000368,-0.00003561,-0.00001774,0.00002158,-0.00006688,-0.00000448,0.00
 001535,-0.00001030,0.00000681,0.00000290,0.00000803,0.00000126,-0.0000
 0109,0.00000171,0.00001996,0.00000464,0.00003357,-0.00000499,0.0000018
 9,0.00000075,-0.00000817,0.00002869,-0.00004897,-0.00000519,-0.0000029
 0,-0.00002171,-0.00002823,0.00001087,0.00002119,0.00000281,-0.00004016
 ,-0.00000783,-0.00000135,0.00000437,0.00000218,-0.00000288,-0.00000295
 ,-0.00000049,0.00000150,-0.00000175,0.00002075,0.00001791,0.00001254,-
 0.00000310,0.00000120,-0.00000232,0.00001199,-0.00004714,0.00003747,-0
 .00001675,-0.00000869,-0.00000855,0.00001358,0.00003156,-0.00002528,-0
 .00001589,0.00001986,-0.00002213,-0.00000328,-0.00003652,0.00001822,0.
 00001500,0.00000378,-0.00000786,-0.00000580,-0.00000303,-0.00001635,-0
 .00001415,-0.00000590,-0.00000800,0.00000200,0.00000073,0.00000028,-0.
 00000043,0.00001211,0.00002648,0.00000309,-0.00000228,0.00001745,0.000
 02943,0.00005432,-0.00003100,0.00000401,0.00001271,-0.00001156,-0.0000
 2709,-0.00003145,-0.00002197,-0.00002612,0.00000941,0.00000169,-0.0000
 0289,-0.00000094,0.00000620,-0.00000280,-0.00000679,0.00001362,0.00000
 729,-0.00000079,-0.00000157,-0.00000150,-0.00000552,-0.00005474,-0.000
 02623,0.00000110,0.00000013,0.00000303,0.00006114,0.00014961,0.0000860
 4,0.00001417,-0.00000277,0.00000087,-0.00003656,-0.00008178,0.00001685
 ,-0.00004062,-0.00004086,-0.00000140,-0.00000798,0.00001421,-0.0000148
 6,-0.00000464,-0.00000825,-0.00000571,0.00000766,-0.00000893,0.0000008
 3,-0.00000043,0.00000130,0.00000514,0.00000384,-0.00000388,0.00001077,
 0.00000342,0.00000836,-0.00002041,0.00007963,0.00009910,-0.00000523,-0
 .00000390,0.00001079,0.00001324,-0.00003395,-0.00006432,0.00006611,0.0
 0019104,-0.00006701,0.00030002,-0.00011264,0.00011922,-0.00002903,0.00
 000516,0.00002143,0.00087970,-0.00024937,-0.00017259,-0.00000239,-0.00
 006213,0.00005738,0.00005691,-0.00003184,-0.00060114,-0.00235123,-0.00
 192012,0.00063559,-0.00004915,0.00004598,0.00013715,-0.00003437,0.0000
 0279,0.00005847,-0.00004849,0.00001654,-0.00000297,0.57675159,0.000079
 78,-0.00000368,-0.00009364,-0.00016403,0.00014303,-0.00012194,-0.00000
 886,-0.00001126,0.00001330,-0.00001705,0.00032589,-0.00027552,0.000019
 18,-0.00004755,0.00004239,0.00030005,0.00015700,0.00001698,-0.00082564
 ,-0.00093559,0.00080532,-0.00001330,-0.00013442,0.00002755,-0.00002211
 ,-0.00003461,0.00002263,-0.00000776,-0.00001763,-0.00000024,1.51816157
 ,0.86513069,-0.00017086,-0.00004786,0.00020457,0.00001851,-0.00003720,
 0.00004770,0.00001689,0.00002131,-0.00003157,-0.00010238,-0.00040079,0
 .00054839,0.00009496,-0.00002099,-0.00000759,-0.00047246,-0.00031616,0
 .00023657,0.00116936,0.00030932,-0.00289565,0.00020576,0.00008025,-0.0
 0008695,0.00004655,0.00006226,-0.00001361,-0.00001054,0.00001996,-0.00
 003423,-1.14774451,-0.04123773,1.59385815,-0.00002640,-0.00004043,0.00
 002250,-0.00004848,0.00002025,-0.00006330,0.00000630,-0.00000065,-0.00
 000422,-0.00004585,-0.00016539,0.00004207,0.00000080,0.00001059,-0.000
 00972,0.00001956,-0.00001094,0.00008781,0.00012638,0.00024414,-0.00013
 839,0.00002586,-0.00004670,-0.00003419,-0.00000610,-0.00001929,-0.0000
 1148,0.00000653,-0.00000566,-0.00000357,0.00206690,-0.01327141,-0.0041
 8721,0.00348824,-0.00004552,0.00002995,0.00002435,0.00010874,-0.000011
 66,0.00006905,-0.00000003,0.00001195,0.00000166,-0.00009781,0.00025361
 ,0.00015089,-0.00000945,0.00000359,-0.00001132,-0.00011022,-0.00002690
 ,-0.00008038,0.00025874,-0.00029559,-0.00013686,-0.00000714,0.00006256
 ,0.00000452,0.00000025,-0.00000377,0.00000414,-0.00000801,0.00001336,-
 0.00000323,0.00551154,-0.01489373,0.00702973,-0.00379091,-0.00267211,0
 .00001407,0.00004566,-0.00005012,0.00001394,-0.00001169,0.00004517,-0.
 00000343,0.00000447,0.00000859,0.00004368,0.00010899,-0.00009109,-0.00
 002290,0.00000721,-0.00000783,0.00002070,-0.00000620,-0.00005228,-0.00
 003830,-0.00026285,0.00029039,-0.00002640,-0.00002244,-0.00000034,0.00
 000830,-0.00001725,-0.00002381,-0.00000439,0.00000041,0.00000099,0.005
 74469,-0.00844653,-0.01992645,0.01883320,-0.00213202,0.01677608,-0.000
 01009,-0.00006121,0.00003180,-0.00024470,0.00004170,-0.00000026,0.0000
 0787,-0.00000313,-0.00002383,-0.00062482,0.00034538,0.00025333,0.00000
 583,0.00004523,-0.00003665,-0.00005566,-0.00000456,0.00036167,0.001627
 12,0.00141767,-0.00084197,0.00000083,-0.00000723,-0.00003960,0.0000495
 0,0.00002719,-0.00004576,0.00003156,-0.00000725,-0.00000007,-0.8459851
 4,-1.62344348,0.42111020,-0.00437280,-0.00195852,-0.00550452,0.8485762
 9,-0.00000866,-0.00001996,0.00003318,-0.00007202,-0.00003017,0.0000327
 8,0.00000874,-0.00000070,-0.00001571,0.00009425,-0.00020475,-0.0000621
 8,0.00000202,0.00004081,-0.00003477,-0.00002600,-0.00001396,0.00008417
 ,0.00017488,0.00068853,-0.00007057,-0.00001631,-0.00000701,-0.00002440
 ,0.00003879,0.00002916,-0.00004977,0.00001220,-0.00000591,0.00000179,-
 1.64490349,-1.25658005,0.48300218,0.01480124,0.01114838,0.00175711,1.6
 2255695,1.24403381,0.00009308,-0.00002271,-0.00007501,-0.00005589,-0.0
 0005083,0.00001192,0.00000641,-0.00001031,0.00001086,0.00008364,-0.000
 22653,-0.00011422,0.00000747,0.00000374,-0.00001191,0.00011309,0.00005
 747,-0.00009373,-0.00029487,0.00009101,0.00050058,-0.00004791,-0.00004
 563,0.00005759,-0.00000084,0.00000742,-0.00000251,0.00000727,-0.000000
 90,0.00000328,0.42157710,0.47742925,0.45767350,-0.01162362,-0.00319621
 ,0.00028275,-0.40661014,-0.47585393,-0.45958803,-0.00000872,-0.0000824
 9,0.00001177,-0.00005131,0.00003238,-0.00008199,0.00000987,-0.00000776
 ,-0.00000013,-0.00002224,0.00002444,-0.00016863,-0.00000914,-0.0000024
 2,0.00000559,0.00003059,0.00001735,0.00011372,0.00009278,0.00030933,0.
 00036284,0.00002964,-0.00002670,-0.00002333,-0.00000913,-0.00000312,0.
 00000592,0.00000762,-0.00000740,0.00000740,0.26837859,0.11921306,0.730
 02573,-0.00124095,0.00014835,-0.01907866,0.00099421,0.00733740,-0.0032
 5479,-0.26820181,-0.00001043,-0.00002013,0.00002031,0.00005634,-0.0000
 4114,0.00000241,0.00000456,-0.00000250,0.00000360,0.00004861,-0.000448
 39,0.00008166,-0.00001983,-0.00000224,0.00000541,-0.00011350,-0.000074
 99,0.00001257,0.00030866,0.00046742,-0.00044946,0.00002203,0.00000871,
 -0.00003010,-0.00001962,-0.00000820,0.00001015,0.00000421,0.00000176,-
 0.00000134,0.12334497,0.40690195,-0.44846429,0.00227517,0.00638036,0.0
 0897510,0.00105126,0.00092181,0.00181814,-0.12695244,-0.41408444,0.000
 05141,0.00000888,-0.00004992,-0.00002508,0.00013957,-0.00015030,-0.000
 02003,-0.00001850,0.00000623,-0.00004952,0.00037777,-0.00022883,-0.000
 06346,0.00001223,0.00001842,0.00031148,0.00019563,-0.00004222,-0.00084
 916,0.00008853,0.00165706,-0.00006052,-0.00003807,-0.00001045,-0.00004
 951,-0.00005261,0.00003776,0.00000675,-0.00002323,0.00002245,0.7202371
 8,-0.42818183,-2.02957283,-0.00290990,-0.00172432,0.00274797,-0.008654
 20,-0.00879988,0.00134492,-0.70792544,0.43801583,2.02421975\\@
 The archive entry for this job was punched.


 ALL THINGS ARE POSSIBLE EXCEPT SKIING THROUGH A REVOLVING DOOR.
 Job cpu time:      11 days  9 hours  1 minutes 13.5 seconds.
 Elapsed time:       0 days  6 hours 52 minutes 45.3 seconds.
 File lengths (MBytes):  RWF=   8095 Int=      0 D2E=      0 Chk=     51 Scr=      1
 Normal termination of Gaussian 16 at Fri Apr  4 20:34:03 2025.
