 Entering Gaussian System, Link 0=g16
 Input=pyrrole_h2o_mp2_avdz_opt_anharm.gjf
 Output=pyrrole_h2o_mp2_avdz_opt_anharm.log
 Initial command:
 /sw/contrib/chem-src/g16/c01/g16/l1.exe "/scr/Gau-98422.inp" -scrdir="/scr/"
 Entering Link 1 = /sw/contrib/chem-src/g16/c01/g16/l1.exe PID=     98423.
  
 Copyright (c) 1988-2019, Gaussian, Inc.  All Rights Reserved.
  
 This is part of the Gaussian(R) 16 program.  It is based on
 the Gaussian(R) 09 system (copyright 2009, Gaussian, Inc.),
 the Gaussian(R) 03 system (copyright 2003, Gaussian, Inc.),
 the Gaussian(R) 98 system (copyright 1998, Gaussian, Inc.),
 the Gaussian(R) 94 system (copyright 1995, Gaussian, Inc.),
 the Gaussian 92(TM) system (copyright 1992, Gaussian, Inc.),
 the Gaussian 90(TM) system (copyright 1990, Gaussian, Inc.),
 the Gaussian 88(TM) system (copyright 1988, Gaussian, Inc.),
 the Gaussian 86(TM) system (copyright 1986, Carnegie Mellon
 University), and the Gaussian 82(TM) system (copyright 1983,
 Carnegie Mellon University). Gaussian is a federally registered
 trademark of Gaussian, Inc.
  
 This software contains proprietary and confidential information,
 including trade secrets, belonging to Gaussian, Inc.
  
 This software is provided under written license and may be
 used, copied, transmitted, or stored only in accord with that
 written license.
  
 The following legend is applicable only to US Government
 contracts under FAR:
  
                    RESTRICTED RIGHTS LEGEND
  
 Use, reproduction and disclosure by the US Government is
 subject to restrictions as set forth in subparagraphs (a)
 and (c) of the Commercial Computer Software - Restricted
 Rights clause in FAR 52.227-19.
  
 Gaussian, Inc.
 340 Quinnipiac St., Bldg. 40, Wallingford CT 06492
  
  
 ---------------------------------------------------------------
 Warning -- This program may not be used in any manner that
 competes with the business of Gaussian, Inc. or will provide
 assistance to any competitor of Gaussian, Inc.  The licensee
 of this program is prohibited from giving any competitor of
 Gaussian, Inc. access to this program.  By using this program,
 the user acknowledges that Gaussian, Inc. is engaged in the
 business of creating and licensing software in the field of
 computational chemistry and represents and warrants to the
 licensee that it is not a competitor of Gaussian, Inc. and that
 it will not use this program in any manner prohibited above.
 ---------------------------------------------------------------
  

 Cite this work as:
 Gaussian 16, Revision C.01,
 M. J. Frisch, G. W. Trucks, H. B. Schlegel, G. E. Scuseria, 
 M. A. Robb, J. R. Cheeseman, G. Scalmani, V. Barone, 
 G. A. Petersson, H. Nakatsuji, X. Li, M. Caricato, A. V. Marenich, 
 J. Bloino, B. G. Janesko, R. Gomperts, B. Mennucci, H. P. Hratchian, 
 J. V. Ortiz, A. F. Izmaylov, J. L. Sonnenberg, D. Williams-Young, 
 F. Ding, F. Lipparini, F. Egidi, J. Goings, B. Peng, A. Petrone, 
 T. Henderson, D. Ranasinghe, V. G. Zakrzewski, J. Gao, N. Rega, 
 G. Zheng, W. Liang, M. Hada, M. Ehara, K. Toyota, R. Fukuda, 
 J. Hasegawa, M. Ishida, T. Nakajima, Y. Honda, O. Kitao, H. Nakai, 
 T. Vreven, K. Throssell, J. A. Montgomery, Jr., J. E. Peralta, 
 F. Ogliaro, M. J. Bearpark, J. J. Heyd, E. N. Brothers, K. N. Kudin, 
 V. N. Staroverov, T. A. Keith, R. Kobayashi, J. Normand, 
 K. Raghavachari, A. P. Rendell, J. C. Burant, S. S. Iyengar, 
 J. Tomasi, M. Cossi, J. M. Millam, M. Klene, C. Adamo, R. Cammi, 
 J. W. Ochterski, R. L. Martin, K. Morokuma, O. Farkas, 
 J. B. Foresman, and D. J. Fox, Gaussian, Inc., Wallingford CT, 2019.
 
 ******************************************
 Gaussian 16:  EM64L-G16RevC.01  3-Jul-2019
                 8-Apr-2025 
 ******************************************
 %nprocshared=40
 Will use up to   40 processors via shared memory.
 %mem=50gb
 ----------------------------------------------
 # MP2/aug-cc-pVDZ opt freq=(vibrot,anharmonic)
 ----------------------------------------------
 1/18=20,19=15,38=1,80=1/1,3;
 2/9=110,12=2,17=6,18=5,40=1/2;
 3/5=16,7=10,11=9,25=1,30=1,71=1/1,2,3;
 4//1;
 5/5=2,38=5/2;
 8/6=4,10=1/1;
 9/15=2,16=-3/6;
 10/5=1/2;
 6/7=2,8=2,9=2,10=2/1;
 7/12=2/1,2,3,16;
 1/18=20,19=15,80=1/3(2);
 2/9=110/2;
 99//99;
 2/9=110/2;
 3/5=16,7=10,11=9,25=1,30=1,71=1/1,2,3;
 4/5=5,16=3,69=1/1;
 5/5=2,38=5/2;
 8/6=4,10=1/1;
 9/15=2,16=-3/6;
 10/5=1/2;
 7/12=2/1,2,3,16;
 1/18=20,19=15,80=1/3(-8);
 2/9=110/2;
 6/7=2,8=2,9=2,10=2/1;
 99/9=10/99;
 ----
 blah
 ----
 Symbolic Z-matrix:
 Charge =  0 Multiplicity = 1
 C                     0.00006   0.7146   -1.91511 
 C                     0.        1.12936  -0.57885 
 H                     0.00012   1.37205  -2.7836 
 N                     0.        0.        0.21033 
 H                     0.        2.12407  -0.13774 
 C                     0.       -1.12936  -0.57885 
 H                     0.        0.        1.22835 
 C                    -0.00006  -0.7146   -1.91511 
 H                    0.        -2.12407  -0.13774 
 H                    -0.00012  -1.37205  -2.7836 
 O                     0.        0.        3.18911 
 H                    -0.70394   0.50418   3.61681 
 H                     0.81784   0.35147   3.56364 
 
 Add virtual bond connecting atoms O11        and H7         Dist= 3.71D+00.

 GradGradGradGradGradGradGradGradGradGradGradGradGradGradGradGradGradGrad
 Berny optimization.
 Initialization pass.
                           ----------------------------
                           !    Initial Parameters    !
                           ! (Angstroms and Degrees)  !
 --------------------------                            --------------------------
 ! Name  Definition              Value          Derivative Info.                !
 --------------------------------------------------------------------------------
 ! R1    R(1,2)                  1.3991         estimate D2E/DX2                !
 ! R2    R(1,3)                  1.0893         estimate D2E/DX2                !
 ! R3    R(1,8)                  1.4292         estimate D2E/DX2                !
 ! R4    R(2,4)                  1.3778         estimate D2E/DX2                !
 ! R5    R(2,5)                  1.0881         estimate D2E/DX2                !
 ! R6    R(4,6)                  1.3778         estimate D2E/DX2                !
 ! R7    R(4,7)                  1.018          estimate D2E/DX2                !
 ! R8    R(6,8)                  1.3991         estimate D2E/DX2                !
 ! R9    R(6,9)                  1.0881         estimate D2E/DX2                !
 ! R10   R(7,11)                 1.9608         estimate D2E/DX2                !
 ! R11   R(8,10)                 1.0893         estimate D2E/DX2                !
 ! R12   R(11,12)                0.9657         estimate D2E/DX2                !
 ! R13   R(11,13)                0.9657         estimate D2E/DX2                !
 ! A1    A(2,1,3)              125.6302         estimate D2E/DX2                !
 ! A2    A(2,1,8)              107.244          estimate D2E/DX2                !
 ! A3    A(3,1,8)              127.1258         estimate D2E/DX2                !
 ! A4    A(1,2,4)              107.7012         estimate D2E/DX2                !
 ! A5    A(1,2,5)              131.1589         estimate D2E/DX2                !
 ! A6    A(4,2,5)              121.1398         estimate D2E/DX2                !
 ! A7    A(2,4,6)              110.1096         estimate D2E/DX2                !
 ! A8    A(2,4,7)              124.9452         estimate D2E/DX2                !
 ! A9    A(6,4,7)              124.9452         estimate D2E/DX2                !
 ! A10   A(4,6,8)              107.7012         estimate D2E/DX2                !
 ! A11   A(4,6,9)              121.1398         estimate D2E/DX2                !
 ! A12   A(8,6,9)              131.1589         estimate D2E/DX2                !
 ! A13   A(1,8,6)              107.244          estimate D2E/DX2                !
 ! A14   A(1,8,10)             127.1258         estimate D2E/DX2                !
 ! A15   A(6,8,10)             125.6302         estimate D2E/DX2                !
 ! A16   A(7,11,12)            116.2872         estimate D2E/DX2                !
 ! A17   A(7,11,13)            112.8183         estimate D2E/DX2                !
 ! A18   A(12,11,13)           104.8045         estimate D2E/DX2                !
 ! A19   L(4,7,11,5,-1)        180.0            estimate D2E/DX2                !
 ! A20   L(4,7,11,5,-2)        180.0            estimate D2E/DX2                !
 ! D1    D(3,1,2,4)           -179.9975         estimate D2E/DX2                !
 ! D2    D(3,1,2,5)             -0.0007         estimate D2E/DX2                !
 ! D3    D(8,1,2,4)              0.0069         estimate D2E/DX2                !
 ! D4    D(8,1,2,5)           -179.9962         estimate D2E/DX2                !
 ! D5    D(2,1,8,6)             -0.0085         estimate D2E/DX2                !
 ! D6    D(2,1,8,10)           179.996          estimate D2E/DX2                !
 ! D7    D(3,1,8,6)            179.996          estimate D2E/DX2                !
 ! D8    D(3,1,8,10)             0.0005         estimate D2E/DX2                !
 ! D9    D(1,2,4,6)             -0.0027         estimate D2E/DX2                !
 ! D10   D(1,2,4,7)            179.9973         estimate D2E/DX2                !
 ! D11   D(5,2,4,6)           -179.9999         estimate D2E/DX2                !
 ! D12   D(5,2,4,7)              0.0001         estimate D2E/DX2                !
 ! D13   D(2,4,6,8)             -0.0027         estimate D2E/DX2                !
 ! D14   D(2,4,6,9)           -179.9999         estimate D2E/DX2                !
 ! D15   D(7,4,6,8)            179.9973         estimate D2E/DX2                !
 ! D16   D(7,4,6,9)              0.0001         estimate D2E/DX2                !
 ! D17   D(2,4,11,12)           54.3884         estimate D2E/DX2                !
 ! D18   D(2,4,11,13)          -66.7439         estimate D2E/DX2                !
 ! D19   D(6,4,11,12)         -125.6116         estimate D2E/DX2                !
 ! D20   D(6,4,11,13)          113.2561         estimate D2E/DX2                !
 ! D21   D(4,6,8,1)              0.0069         estimate D2E/DX2                !
 ! D22   D(4,6,8,10)          -179.9975         estimate D2E/DX2                !
 ! D23   D(9,6,8,1)           -179.9962         estimate D2E/DX2                !
 ! D24   D(9,6,8,10)            -0.0007         estimate D2E/DX2                !
 --------------------------------------------------------------------------------
 Trust Radius=3.00D-01 FncErr=1.00D-07 GrdErr=1.00D-07 EigMax=2.50D+02 EigMin=1.00D-04
 Number of steps in this run=     67 maximum allowed number of steps=    100.
 GradGradGradGradGradGradGradGradGradGradGradGradGradGradGradGradGradGrad

                          Input orientation:                          
 ---------------------------------------------------------------------
 Center     Atomic      Atomic             Coordinates (Angstroms)
 Number     Number       Type             X           Y           Z
 ---------------------------------------------------------------------
      1          6           0        0.000063    0.714596   -1.915107
      2          6           0        0.000000    1.129360   -0.578851
      3          1           0        0.000117    1.372048   -2.783600
      4          7           0        0.000000    0.000000    0.210326
      5          1           0        0.000001    2.124074   -0.137743
      6          6           0        0.000000   -1.129360   -0.578851
      7          1           0        0.000000    0.000000    1.228349
      8          6           0       -0.000063   -0.714596   -1.915107
      9          1           0       -0.000001   -2.124074   -0.137743
     10          1           0       -0.000117   -1.372048   -2.783600
     11          8           0        0.000000    0.000000    3.189113
     12          1           0       -0.703937    0.504184    3.616812
     13          1           0        0.817835    0.351472    3.563638
 ---------------------------------------------------------------------
                    Distance matrix (angstroms):
                    1          2          3          4          5
     1  C    0.000000
     2  C    1.399146   0.000000
     3  H    1.089276   2.218066   0.000000
     4  N    2.242345   1.377772   3.293343   0.000000
     5  H    2.268403   1.088132   2.750655   2.152404   0.000000
     6  C    2.277225   2.258720   3.334361   1.377772   3.283201
     7  H    3.223657   2.131062   4.240077   1.018023   2.525450
     8  C    1.429192   2.277225   2.260169   2.242345   3.349189
     9  H    3.349189   3.283201   4.384453   2.152404   4.248148
    10  H    2.260169   3.334361   2.744096   3.293343   4.384453
    11  O    5.153999   3.933574   6.128280   2.978787   3.947108
    12  H    5.580503   4.299995   6.497242   3.514808   4.149247
    13  H    5.551329   4.293504   6.480561   3.469450   4.184637
                    6          7          8          9         10
     6  C    0.000000
     7  H    2.131062   0.000000
     8  C    1.399146   3.223657   0.000000
     9  H    1.088132   2.525450   2.268403   0.000000
    10  H    2.218066   4.240077   1.089276   2.750655   0.000000
    11  O    3.933574   1.960764   5.153999   3.947108   6.128280
    12  H    4.557146   2.540568   5.708151   4.636804   6.706779
    13  H    4.474587   2.499192   5.641108   4.527406   6.627744
                   11         12         13
    11  O    0.000000
    12  H    0.965741   0.000000
    13  H    0.965741   1.530340   0.000000
 Stoichiometry    C4H7NO
 Framework group  C1[X(C4H7NO)]
 Deg. of freedom    33
 Full point group                 C1      NOp   1
 Largest Abelian subgroup         C1      NOp   1
 Largest concise Abelian subgroup C1      NOp   1
                         Standard orientation:                         
 ---------------------------------------------------------------------
 Center     Atomic      Atomic             Coordinates (Angstroms)
 Number     Number       Type             X           Y           Z
 ---------------------------------------------------------------------
      1          6           0        1.890911    0.738401    0.003347
      2          6           0        0.545729    1.123226    0.001286
      3          1           0        2.744503    1.415079    0.006794
      4          7           0       -0.218028   -0.023469   -0.002998
      5          1           0        0.082518    2.107841    0.002565
      6          6           0        0.596171   -1.134925   -0.003816
      7          1           0       -1.235795   -0.046199   -0.005234
      8          6           0        1.922828   -0.690430   -0.000007
      9          1           0        0.177388   -2.139237   -0.007032
     10          1           0        2.805785   -1.328325    0.000361
     11          8           0       -3.196066   -0.089977   -0.009540
     12          1           0       -3.633406    0.406155   -0.713274
     13          1           0       -3.580100    0.251157    0.808263
 ---------------------------------------------------------------------
 Rotational constants (GHZ):           8.8260600           1.6646034           1.4096353
 Standard basis: Aug-CC-pVDZ (5D, 7F)
 There are   213 symmetry adapted cartesian basis functions of A   symmetry.
 There are   201 symmetry adapted basis functions of A   symmetry.
   201 basis functions,   335 primitive gaussians,   213 cartesian basis functions
    23 alpha electrons       23 beta electrons
       nuclear repulsion energy       215.5875478499 Hartrees.
 NAtoms=   13 NActive=   13 NUniq=   13 SFac= 1.00D+00 NAtFMM=   60 NAOKFM=F Big=F
 Integral buffers will be    131072 words long.
 Raffenetti 1 integral format.
 Two-electron integral symmetry is turned on.
 One-electron integrals computed using PRISM.
 NBasis=   201 RedAO= T EigKep=  1.02D-05  NBF=   201
 NBsUse=   201 1.00D-06 EigRej= -1.00D+00 NBFU=   201
 ExpMin= 2.97D-02 ExpMax= 1.17D+04 ExpMxC= 4.01D+02 IAcc=3 IRadAn=         5 AccDes= 0.00D+00
 Harris functional with IExCor=  205 and IRadAn=       5 diagonalized for initial guess.
 HarFok:  IExCor=  205 AccDes= 0.00D+00 IRadAn=         5 IDoV= 1 UseB2=F ITyADJ=14
 ICtDFT=  3500011 ScaDFX=  1.000000  1.000000  1.000000  1.000000
 FoFCou: FMM=F IPFlag=           0 FMFlag=      100000 FMFlg1=           0
         NFxFlg=           0 DoJE=T BraDBF=F KetDBF=T FulRan=T
         wScrn=  0.000000 ICntrl=       500 IOpCl=  0 I1Cent=   200000004 NGrid=           0
         NMat0=    1 NMatS0=      1 NMatT0=    0 NMatD0=    1 NMtDS0=    0 NMtDT0=    0
 Petite list used in FoFCou.
 Requested convergence on RMS density matrix=1.00D-08 within 128 cycles.
 Requested convergence on MAX density matrix=1.00D-06.
 Requested convergence on             energy=1.00D-06.
 No special actions if energy rises.
 SCF Done:  E(RHF) =  -284.881927189     A.U. after   13 cycles
            NFock= 13  Conv=0.75D-08     -V/T= 2.0022
 ExpMin= 2.97D-02 ExpMax= 1.17D+04 ExpMxC= 4.01D+02 IAcc=3 IRadAn=         5 AccDes= 0.00D+00
 HarFok:  IExCor=  205 AccDes= 0.00D+00 IRadAn=         5 IDoV=-2 UseB2=F ITyADJ=14
 ICtDFT= 12500011 ScaDFX=  1.000000  1.000000  1.000000  1.000000
 Range of M.O.s used for correlation:     7   201
 NBasis=   201 NAE=    23 NBE=    23 NFC=     6 NFV=     0
 NROrb=    195 NOA=    17 NOB=    17 NVA=   178 NVB=   178

 **** Warning!!: The largest alpha MO coefficient is  0.77638135D+02

 Fully direct method using O(ONN) memory.
 JobTyp=1 Pass  1:  I=   7 to  23 NPSUse= 40 ParTrn=T ParDer=T DoDerP=T.
 Spin components of T(2) and E(2):
     alpha-alpha T2 =       0.4495550994D-01 E2=     -0.1248969878D+00
     alpha-beta  T2 =       0.2389442605D+00 E2=     -0.7018083067D+00
     beta-beta   T2 =       0.4495550994D-01 E2=     -0.1248969878D+00
 ANorm=    0.1152759854D+01
 E2 =    -0.9516022822D+00 EUMP2 =    -0.28583352947170D+03
          IDoAtm=1111111111111
          Differentiating once with respect to electric field.
                with respect to dipole field.
          Differentiating once with respect to nuclear coordinates.
 Keep R1 ints in memory in canonical form, NReq=215138072.
          There are     1 degrees of freedom in the 1st order CPHF.  IDoFFX=0 NUNeed=     1.
 LinEq1:  Iter=  0 NonCon=     1 RMS=3.44D-03 Max=4.54D-02 NDo=     1
 AX will form     1 AO Fock derivatives at one time.
 LinEq1:  Iter=  1 NonCon=     1 RMS=7.53D-04 Max=1.13D-02 NDo=     1
 LinEq1:  Iter=  2 NonCon=     1 RMS=3.79D-04 Max=7.28D-03 NDo=     1
 LinEq1:  Iter=  3 NonCon=     1 RMS=1.07D-04 Max=2.48D-03 NDo=     1
 LinEq1:  Iter=  4 NonCon=     1 RMS=4.63D-05 Max=9.91D-04 NDo=     1
 LinEq1:  Iter=  5 NonCon=     1 RMS=1.45D-05 Max=2.91D-04 NDo=     1
 LinEq1:  Iter=  6 NonCon=     1 RMS=4.04D-06 Max=4.59D-05 NDo=     1
 LinEq1:  Iter=  7 NonCon=     1 RMS=1.46D-06 Max=1.72D-05 NDo=     1
 LinEq1:  Iter=  8 NonCon=     1 RMS=2.30D-07 Max=2.15D-06 NDo=     1
 LinEq1:  Iter=  9 NonCon=     1 RMS=4.76D-08 Max=8.40D-07 NDo=     1
 LinEq1:  Iter= 10 NonCon=     1 RMS=2.24D-08 Max=4.72D-07 NDo=     1
 LinEq1:  Iter= 11 NonCon=     1 RMS=5.86D-09 Max=1.18D-07 NDo=     1
 LinEq1:  Iter= 12 NonCon=     1 RMS=2.08D-09 Max=3.03D-08 NDo=     1
 LinEq1:  Iter= 13 NonCon=     1 RMS=7.91D-10 Max=8.49D-09 NDo=     1
 LinEq1:  Iter= 14 NonCon=     1 RMS=1.91D-10 Max=2.75D-09 NDo=     1
 LinEq1:  Iter= 15 NonCon=     0 RMS=2.99D-11 Max=3.22D-10 NDo=     1
 Linear equations converged to 1.000D-10 1.000D-09 after    15 iterations.
 End of Minotr F.D. properties file   721 does not exist.
 End of Minotr F.D. properties file   722 does not exist.
 End of Minotr F.D. properties file   788 does not exist.

 **********************************************************************

            Population analysis using the SCF Density.

 **********************************************************************

 Orbital symmetries:
       Occupied  (A) (A) (A) (A) (A) (A) (A) (A) (A) (A) (A) (A)
                 (A) (A) (A) (A) (A) (A) (A) (A) (A) (A) (A)
       Virtual   (A) (A) (A) (A) (A) (A) (A) (A) (A) (A) (A) (A)
                 (A) (A) (A) (A) (A) (A) (A) (A) (A) (A) (A) (A)
                 (A) (A) (A) (A) (A) (A) (A) (A) (A) (A) (A) (A)
                 (A) (A) (A) (A) (A) (A) (A) (A) (A) (A) (A) (A)
                 (A) (A) (A) (A) (A) (A) (A) (A) (A) (A) (A) (A)
                 (A) (A) (A) (A) (A) (A) (A) (A) (A) (A) (A) (A)
                 (A) (A) (A) (A) (A) (A) (A) (A) (A) (A) (A) (A)
                 (A) (A) (A) (A) (A) (A) (A) (A) (A) (A) (A) (A)
                 (A) (A) (A) (A) (A) (A) (A) (A) (A) (A) (A) (A)
                 (A) (A) (A) (A) (A) (A) (A) (A) (A) (A) (A) (A)
                 (A) (A) (A) (A) (A) (A) (A) (A) (A) (A) (A) (A)
                 (A) (A) (A) (A) (A) (A) (A) (A) (A) (A) (A) (A)
                 (A) (A) (A) (A) (A) (A) (A) (A) (A) (A) (A) (A)
                 (A) (A) (A) (A) (A) (A) (A) (A) (A) (A) (A) (A)
                 (A) (A) (A) (A) (A) (A) (A) (A) (A) (A)
 The electronic state is 1-A.
 Alpha  occ. eigenvalues --  -20.61135 -15.59506 -11.25037 -11.24963 -11.21004
 Alpha  occ. eigenvalues --  -11.20880  -1.38736  -1.27058  -1.02386  -0.95918
 Alpha  occ. eigenvalues --   -0.77692  -0.75121  -0.74831  -0.71907  -0.62579
 Alpha  occ. eigenvalues --   -0.57495  -0.56663  -0.54556  -0.53824  -0.53102
 Alpha  occ. eigenvalues --   -0.51351  -0.33049  -0.28109
 Alpha virt. eigenvalues --    0.02067   0.04750   0.04826   0.05046   0.06076
 Alpha virt. eigenvalues --    0.06428   0.08659   0.11548   0.12853   0.13619
 Alpha virt. eigenvalues --    0.14665   0.14768   0.14983   0.15874   0.16159
 Alpha virt. eigenvalues --    0.16917   0.17522   0.17665   0.18729   0.19090
 Alpha virt. eigenvalues --    0.19554   0.19830   0.21814   0.22310   0.26158
 Alpha virt. eigenvalues --    0.26356   0.26689   0.27104   0.27548   0.30581
 Alpha virt. eigenvalues --    0.30896   0.31343   0.33467   0.34224   0.35877
 Alpha virt. eigenvalues --    0.36887   0.37427   0.39149   0.39853   0.40205
 Alpha virt. eigenvalues --    0.40894   0.41086   0.41951   0.43637   0.45613
 Alpha virt. eigenvalues --    0.46005   0.47224   0.48364   0.50136   0.51511
 Alpha virt. eigenvalues --    0.52728   0.53491   0.54845   0.55709   0.57113
 Alpha virt. eigenvalues --    0.59266   0.61735   0.62207   0.62726   0.63732
 Alpha virt. eigenvalues --    0.64380   0.64858   0.65572   0.66351   0.66716
 Alpha virt. eigenvalues --    0.68512   0.69145   0.69424   0.70001   0.73605
 Alpha virt. eigenvalues --    0.74339   0.74581   0.75793   0.75973   0.81068
 Alpha virt. eigenvalues --    0.82557   0.83544   0.84387   0.84852   0.85270
 Alpha virt. eigenvalues --    0.90903   0.90959   0.92218   0.92579   0.94971
 Alpha virt. eigenvalues --    0.96992   0.99508   1.00227   1.04615   1.04744
 Alpha virt. eigenvalues --    1.06114   1.07570   1.11376   1.12782   1.16840
 Alpha virt. eigenvalues --    1.18099   1.19980   1.20593   1.22607   1.23545
 Alpha virt. eigenvalues --    1.26359   1.29251   1.29940   1.37612   1.42989
 Alpha virt. eigenvalues --    1.43657   1.45264   1.47992   1.52667   1.53688
 Alpha virt. eigenvalues --    1.58458   1.58585   1.59572   1.60310   1.65391
 Alpha virt. eigenvalues --    1.67361   1.69998   1.70035   1.72630   1.76969
 Alpha virt. eigenvalues --    1.77946   1.80286   1.81374   1.84925   1.93455
 Alpha virt. eigenvalues --    1.94024   1.96456   1.97976   1.98247   2.00328
 Alpha virt. eigenvalues --    2.03331   2.04238   2.12504   2.13061   2.13258
 Alpha virt. eigenvalues --    2.13947   2.16172   2.16799   2.22949   2.23576
 Alpha virt. eigenvalues --    2.24913   2.26712   2.29335   2.32295   2.33709
 Alpha virt. eigenvalues --    2.41946   2.44535   2.46663   2.52498   2.58596
 Alpha virt. eigenvalues --    2.58720   2.60587   2.61364   2.67660   2.70290
 Alpha virt. eigenvalues --    2.71489   2.72278   2.73858   2.84818   2.88517
 Alpha virt. eigenvalues --    2.90279   2.91147   2.97374   3.02779   3.08177
 Alpha virt. eigenvalues --    3.10240   3.15373   3.34118   3.36879   3.37369
 Alpha virt. eigenvalues --    3.48101   3.69014   3.73037   3.82516   4.04332
 Alpha virt. eigenvalues --    4.08936   4.23338   4.27575
          Condensed to atoms (all electrons):
               1          2          3          4          5          6
     1  C    5.563029   0.073049   0.054366  -0.210272  -0.127297   0.304296
     2  C    0.073049   5.244042   0.018618   0.266595   0.259897  -0.434414
     3  H    0.054366   0.018618   1.259556   0.010797  -0.011292  -0.075429
     4  N   -0.210272   0.266595   0.010797   6.983774  -0.046202   0.221405
     5  H   -0.127297   0.259897  -0.011292  -0.046202   1.222793   0.037272
     6  C    0.304296  -0.434414  -0.075429   0.221405   0.037272   5.323543
     7  H   -0.030231  -0.199192  -0.000823   0.457761  -0.000982  -0.233397
     8  C   -0.000158   0.261448   0.078704  -0.176462  -0.021628   0.038114
     9  H   -0.045396   0.070931  -0.005041  -0.053008   0.007659   0.267972
    10  H    0.088201  -0.080428  -0.020291   0.006335  -0.004024   0.030865
    11  O    0.000852  -0.011880   0.000335  -0.065546  -0.005138   0.037113
    12  H    0.000284  -0.003201  -0.000018   0.000692  -0.000047   0.001812
    13  H    0.000232  -0.002773  -0.000040   0.000521   0.000253   0.000628
               7          8          9         10         11         12
     1  C   -0.030231  -0.000158  -0.045396   0.088201   0.000852   0.000284
     2  C   -0.199192   0.261448   0.070931  -0.080428  -0.011880  -0.003201
     3  H   -0.000823   0.078704  -0.005041  -0.020291   0.000335  -0.000018
     4  N    0.457761  -0.176462  -0.053008   0.006335  -0.065546   0.000692
     5  H   -0.000982  -0.021628   0.007659  -0.004024  -0.005138  -0.000047
     6  C   -0.233397   0.038114   0.267972   0.030865   0.037113   0.001812
     7  H    1.103374   0.000265  -0.010160  -0.003392  -0.035535   0.002836
     8  C    0.000265   5.553266  -0.121547   0.040123  -0.014208  -0.000664
     9  H   -0.010160  -0.121547   1.173919  -0.006489   0.004465  -0.000207
    10  H   -0.003392   0.040123  -0.006489   1.258691  -0.000446   0.000006
    11  O   -0.035535  -0.014208   0.004465  -0.000446   7.796341   0.358067
    12  H    0.002836  -0.000664  -0.000207   0.000006   0.358067   0.500359
    13  H    0.003703  -0.000606   0.000095  -0.000020   0.357002  -0.048074
              13
     1  C    0.000232
     2  C   -0.002773
     3  H   -0.000040
     4  N    0.000521
     5  H    0.000253
     6  C    0.000628
     7  H    0.003703
     8  C   -0.000606
     9  H    0.000095
    10  H   -0.000020
    11  O    0.357002
    12  H   -0.048074
    13  H    0.502091
 Mulliken charges:
               1
     1  C    0.329045
     2  C    0.537307
     3  H   -0.309443
     4  N   -0.396387
     5  H   -0.311265
     6  C    0.480219
     7  H   -0.054227
     8  C    0.363353
     9  H   -0.283194
    10  H   -0.309131
    11  O   -0.421421
    12  H    0.188155
    13  H    0.186989
 Sum of Mulliken charges =  -0.00000
 Mulliken charges with hydrogens summed into heavy atoms:
               1
     1  C    0.019602
     2  C    0.226042
     4  N   -0.450614
     6  C    0.197025
     8  C    0.054222
    11  O   -0.046278
 Electronic spatial extent (au):  <R**2>=            816.6453
 Charge=             -0.0000 electrons
 Dipole moment (field-independent basis, Debye):
    X=             -4.1920    Y=              1.2860    Z=              0.1771  Tot=              4.3884
 Quadrupole moment (field-independent basis, Debye-Ang):
   XX=            -23.8298   YY=            -34.5054   ZZ=            -39.6952
   XY=             -5.3605   XZ=             -0.5978   YZ=             -0.2266
 Traceless Quadrupole moment (field-independent basis, Debye-Ang):
   XX=              8.8470   YY=             -1.8286   ZZ=             -7.0184
   XY=             -5.3605   XZ=             -0.5978   YZ=             -0.2266
 Octapole moment (field-independent basis, Debye-Ang**2):
  XXX=            -70.7054  YYY=             -0.0057  ZZZ=              0.4026  XYY=             -6.8583
  XXY=             20.1145  XXZ=              1.9495  XZZ=            -22.6721  YZZ=              0.8065
  YYZ=             -0.1473  XYZ=              0.9252
 Hexadecapole moment (field-independent basis, Debye-Ang**3):
 XXXX=           -543.0942 YYYY=           -191.7247 ZZZZ=            -51.7515 XXXY=            -76.0874
 XXXZ=             -5.8807 YYYX=             -2.9021 YYYZ=             -0.1442 ZZZX=             -1.5332
 ZZZY=             -0.2436 XXYY=           -160.4756 XXZZ=           -119.0295 YYZZ=            -50.9354
 XXYZ=             -3.3381 YYXZ=              0.4931 ZZXY=             -3.7078
 N-N= 2.155875478499D+02 E-N=-1.098661632971D+03  KE= 2.842607023389D+02
 Calling FoFJK, ICntrl=  10002127 FMM=F ISym2X=0 I1Cent= 0 IOpClX= 0 NMat=1 NMatS=1 NMatT=0.
 ***** Axes restored to original set *****
 -------------------------------------------------------------------
 Center     Atomic                   Forces (Hartrees/Bohr)
 Number     Number              X              Y              Z
 -------------------------------------------------------------------
      1        6          -0.000014685    0.000100376   -0.000277842
      2        6           0.000060252   -0.000237890    0.000053754
      3        1          -0.000013655   -0.000024420   -0.000040490
      4        7           0.000116617   -0.000425037   -0.000951631
      5        1          -0.000008323    0.000161967   -0.000145142
      6        6           0.000023649    0.000165587   -0.000102591
      7        1          -0.000381824   -0.000322305    0.001114397
      8        6           0.000032287    0.000141275    0.000101253
      9        1          -0.000039333    0.000049882    0.000058191
     10        1          -0.000005161    0.000065407   -0.000015531
     11        8           0.000089667   -0.000480256   -0.001871945
     12        1          -0.000072934    0.000366973    0.000909531
     13        1           0.000213445    0.000438440    0.001168045
 -------------------------------------------------------------------
 Cartesian Forces:  Max     0.001871945 RMS     0.000485316

 GradGradGradGradGradGradGradGradGradGradGradGradGradGradGradGradGradGrad
 Berny optimization.
 FormGI is forming the generalized inverse of G from B-inverse, IUseBI=4.
 Internal  Forces:  Max     0.001320028 RMS     0.000328342
 Search for a local minimum.
 Step number   1 out of a maximum of   67
 All quantities printed in internal units (Hartrees-Bohrs-Radians)
 Mixed Optimization -- En-DIIS/RFO-DIIS
 Second derivative matrix not updated -- first step.
 ITU=  0
     Eigenvalues ---    0.00230   0.00230   0.00230   0.01536   0.01839
     Eigenvalues ---    0.01934   0.01938   0.02017   0.02051   0.02058
     Eigenvalues ---    0.04207   0.04599   0.16000   0.16000   0.16000
     Eigenvalues ---    0.16000   0.16000   0.16000   0.16000   0.22000
     Eigenvalues ---    0.22000   0.34896   0.34896   0.35029   0.35029
     Eigenvalues ---    0.38352   0.40887   0.44655   0.45167   0.47290
     Eigenvalues ---    0.48797   0.54257   0.54257
 RFO step:  Lambda=-6.45945314D-05 EMin= 2.30000000D-03
 Linear search not attempted -- first point.
 Iteration  1 RMS(Cart)=  0.04818031 RMS(Int)=  0.00127713
 Iteration  2 RMS(Cart)=  0.00238810 RMS(Int)=  0.00024361
 Iteration  3 RMS(Cart)=  0.00000158 RMS(Int)=  0.00024361
 Iteration  4 RMS(Cart)=  0.00000000 RMS(Int)=  0.00024361
 Variable       Old X    -DE/DX   Delta X   Delta X   Delta X     New X
                                 (Linear)    (Quad)   (Total)
    R1        2.64400   0.00008   0.00000   0.00019   0.00020   2.64420
    R2        2.05843   0.00002   0.00000   0.00005   0.00005   2.05848
    R3        2.70078  -0.00017   0.00000  -0.00043  -0.00042   2.70036
    R4        2.60361   0.00028   0.00000   0.00060   0.00059   2.60420
    R5        2.05627   0.00009   0.00000   0.00025   0.00025   2.05652
    R6        2.60361  -0.00014   0.00000  -0.00028  -0.00029   2.60332
    R7        1.92378   0.00132   0.00000   0.00296   0.00298   1.92676
    R8        2.64400   0.00008   0.00000   0.00015   0.00015   2.64415
    R9        2.05627  -0.00002   0.00000  -0.00006  -0.00006   2.05621
   R10        3.70531   0.00021   0.00000   0.00447   0.00446   3.70976
   R11        2.05843  -0.00003   0.00000  -0.00008  -0.00008   2.05836
   R12        1.82499   0.00065   0.00000   0.00119   0.00119   1.82618
   R13        1.82499   0.00079   0.00000   0.00146   0.00146   1.82645
    A1        2.19266   0.00012   0.00000   0.00065   0.00065   2.19331
    A2        1.87176  -0.00016   0.00000  -0.00073  -0.00073   1.87103
    A3        2.21876   0.00003   0.00000   0.00008   0.00008   2.21885
    A4        1.87974   0.00016   0.00000   0.00085   0.00084   1.88058
    A5        2.28916  -0.00029   0.00000  -0.00170  -0.00170   2.28746
    A6        2.11429   0.00012   0.00000   0.00085   0.00086   2.11515
    A7        1.92178  -0.00022   0.00000  -0.00092  -0.00090   1.92088
    A8        2.18070   0.00002   0.00000  -0.00009  -0.00008   2.18063
    A9        2.18070   0.00020   0.00000   0.00101   0.00097   2.18168
   A10        1.87974   0.00010   0.00000   0.00038   0.00037   1.88011
   A11        2.11429  -0.00012   0.00000  -0.00066  -0.00065   2.11363
   A12        2.28916   0.00003   0.00000   0.00028   0.00029   2.28944
   A13        1.87176   0.00012   0.00000   0.00042   0.00042   1.87218
   A14        2.21876  -0.00012   0.00000  -0.00061  -0.00061   2.21816
   A15        2.19266   0.00000   0.00000   0.00019   0.00018   2.19284
   A16        2.02959   0.00073   0.00000   0.00574   0.00565   2.03525
   A17        1.96905   0.00114   0.00000   0.00835   0.00826   1.97731
   A18        1.82918  -0.00092   0.00000  -0.00378  -0.00392   1.82526
   A19        3.14159  -0.00022   0.00000  -0.06777  -0.06774   3.07385
   A20        3.14159   0.00022   0.00000   0.08109   0.08010   3.22170
    D1       -3.14155  -0.00001   0.00000  -0.00032  -0.00025   3.14138
    D2       -0.00001   0.00000   0.00000   0.00008   0.00011   0.00010
    D3        0.00012   0.00000   0.00000   0.00021   0.00037   0.00050
    D4       -3.14153   0.00001   0.00000   0.00061   0.00073  -3.14079
    D5       -0.00015   0.00001   0.00000   0.00065   0.00065   0.00050
    D6        3.14152  -0.00001   0.00000  -0.00072  -0.00081   3.14071
    D7        3.14152   0.00002   0.00000   0.00120   0.00129  -3.14037
    D8        0.00001  -0.00000   0.00000  -0.00018  -0.00017  -0.00017
    D9       -0.00005  -0.00002   0.00000  -0.00103  -0.00130  -0.00134
   D10        3.14155   0.00003   0.00000   0.00183   0.00216  -3.13948
   D11       -3.14159  -0.00002   0.00000  -0.00138  -0.00161   3.13998
   D12        0.00000   0.00002   0.00000   0.00147   0.00184   0.00184
   D13       -0.00005   0.00002   0.00000   0.00144   0.00171   0.00166
   D14       -3.14159   0.00003   0.00000   0.00187   0.00209  -3.13950
   D15        3.14155  -0.00002   0.00000  -0.00141  -0.00175   3.13980
   D16        0.00000  -0.00001   0.00000  -0.00099  -0.00137  -0.00136
   D17        0.94926   0.00019   0.00000   0.03473   0.03540   0.98466
   D18       -1.16490  -0.00001   0.00000   0.04951   0.05007  -1.11483
   D19       -2.19234   0.00007   0.00000  -0.02474  -0.02530  -2.21763
   D20        1.97669  -0.00013   0.00000  -0.00996  -0.01063   1.96607
   D21        0.00012  -0.00002   0.00000  -0.00127  -0.00143  -0.00131
   D22       -3.14155   0.00000   0.00000   0.00008   0.00001  -3.14154
   D23       -3.14153  -0.00003   0.00000  -0.00175  -0.00187   3.13979
   D24       -0.00001  -0.00001   0.00000  -0.00041  -0.00043  -0.00044
         Item               Value     Threshold  Converged?
 Maximum Force            0.001320     0.000450     NO 
 RMS     Force            0.000328     0.000300     NO 
 Maximum Displacement     0.124208     0.001800     NO 
 RMS     Displacement     0.048187     0.001200     NO 
 Predicted change in Energy=-3.282060D-05
 GradGradGradGradGradGradGradGradGradGradGradGradGradGradGradGradGradGrad

                          Input orientation:                          
 ---------------------------------------------------------------------
 Center     Atomic      Atomic             Coordinates (Angstroms)
 Number     Number       Type             X           Y           Z
 ---------------------------------------------------------------------
      1          6           0        0.016604    0.719389   -1.898349
      2          6           0       -0.017085    1.107419   -0.554401
      3          1           0        0.037598    1.393512   -2.753742
      4          7           0       -0.035930   -0.037087    0.212975
      5          1           0       -0.029087    2.094028   -0.095298
      6          6           0       -0.017081   -1.150292   -0.598352
      7          1           0       -0.063150   -0.056511    1.232025
      8          6           0        0.017023   -0.709315   -1.925834
      9          1           0       -0.029558   -2.153332   -0.176788
     10          1           0        0.038270   -1.349380   -2.806912
     11          8           0        0.022003    0.036235    3.191106
     12          1           0       -0.672779    0.543790    3.631041
     13          1           0        0.847070    0.417200    3.520165
 ---------------------------------------------------------------------
                    Distance matrix (angstroms):
                    1          2          3          4          5
     1  C    0.000000
     2  C    1.399249   0.000000
     3  H    1.089303   2.218545   0.000000
     4  N    2.243368   1.378084   3.294454   0.000000
     5  H    2.267755   1.088263   2.749999   2.153307   0.000000
     6  C    2.277462   2.258139   3.334612   1.377618   3.283112
     7  H    3.226084   2.132645   4.242529   1.019599   2.527403
     8  C    1.428968   2.276514   2.260031   2.242587   3.348391
     9  H    3.349391   3.282567   4.384667   2.151847   4.248142
    10  H    2.259593   3.333577   2.743408   3.293530   4.383429
    11  O    5.135102   3.895868   6.097841   2.979597   3.877831
    12  H    5.574964   4.273819   6.480132   3.525077   4.086952
    13  H    5.490107   4.221996   6.400807   3.453053   4.080560
                    6          7          8          9         10
     6  C    0.000000
     7  H    2.132782   0.000000
     8  C    1.399225   3.225625   0.000000
     9  H    1.088099   2.526369   2.268593   0.000000
    10  H    2.218206   4.242029   1.089235   2.751089   0.000000
    11  O    3.971066   1.963123   5.170971   4.017409   6.156007
    12  H    4.603001   2.547015   5.738027   4.710388   6.748105
    13  H    4.490654   2.507685   5.622892   4.587327   6.618676
                   11         12         13
    11  O    0.000000
    12  H    0.966373   0.000000
    13  H    0.966515   1.529137   0.000000
 Stoichiometry    C4H7NO
 Framework group  C1[X(C4H7NO)]
 Deg. of freedom    33
 Full point group                 C1      NOp   1
 Largest Abelian subgroup         C1      NOp   1
 Largest concise Abelian subgroup C1      NOp   1
                         Standard orientation:                         
 ---------------------------------------------------------------------
 Center     Atomic      Atomic             Coordinates (Angstroms)
 Number     Number       Type             X           Y           Z
 ---------------------------------------------------------------------
      1          6           0        1.866149    0.769516    0.021066
      2          6           0        0.509538    1.110237   -0.016534
      3          1           0        2.697339    1.473187    0.044575
      4          7           0       -0.217218   -0.060445   -0.037650
      5          1           0        0.016194    2.080160   -0.029846
      6          6           0        0.632547   -1.144550   -0.016467
      7          1           0       -1.234879   -0.115549   -0.067844
      8          6           0        1.943662   -0.657348    0.021524
      9          1           0        0.246415   -2.161738   -0.030202
     10          1           0        2.846555   -1.266160    0.045323
     11          8           0       -3.196246   -0.091495    0.011594
     12          1           0       -3.651662    0.400430   -0.684453
     13          1           0       -3.540851    0.277602    0.835709
 ---------------------------------------------------------------------
 Rotational constants (GHZ):           8.8183122           1.6654615           1.4104696
 Standard basis: Aug-CC-pVDZ (5D, 7F)
 There are   213 symmetry adapted cartesian basis functions of A   symmetry.
 There are   201 symmetry adapted basis functions of A   symmetry.
   201 basis functions,   335 primitive gaussians,   213 cartesian basis functions
    23 alpha electrons       23 beta electrons
       nuclear repulsion energy       215.5844139271 Hartrees.
 NAtoms=   13 NActive=   13 NUniq=   13 SFac= 1.00D+00 NAtFMM=   60 NAOKFM=F Big=F
 Integral buffers will be    131072 words long.
 Raffenetti 1 integral format.
 Two-electron integral symmetry is turned on.
 One-electron integrals computed using PRISM.
 NBasis=   201 RedAO= T EigKep=  1.02D-05  NBF=   201
 NBsUse=   201 1.00D-06 EigRej= -1.00D+00 NBFU=   201
 Initial guess from the checkpoint file:  "/scr/Gau-98423.chk"
 B after Tr=    -0.000000    0.000000    0.000000
         Rot=    0.999985    0.001201   -0.000248   -0.005280 Ang=   0.62 deg.
 ExpMin= 2.97D-02 ExpMax= 1.17D+04 ExpMxC= 4.01D+02 IAcc=3 IRadAn=         5 AccDes= 0.00D+00
 Harris functional with IExCor=  205 and IRadAn=       5 diagonalized for initial guess.
 HarFok:  IExCor=  205 AccDes= 0.00D+00 IRadAn=         5 IDoV= 1 UseB2=F ITyADJ=14
 ICtDFT=  3500011 ScaDFX=  1.000000  1.000000  1.000000  1.000000
 FoFCou: FMM=F IPFlag=           0 FMFlag=      100000 FMFlg1=           0
         NFxFlg=           0 DoJE=T BraDBF=F KetDBF=T FulRan=T
         wScrn=  0.000000 ICntrl=       500 IOpCl=  0 I1Cent=   200000004 NGrid=           0
         NMat0=    1 NMatS0=      1 NMatT0=    0 NMatD0=    1 NMtDS0=    0 NMtDT0=    0
 Petite list used in FoFCou.
 Requested convergence on RMS density matrix=1.00D-08 within 128 cycles.
 Requested convergence on MAX density matrix=1.00D-06.
 Requested convergence on             energy=1.00D-06.
 No special actions if energy rises.
 SCF Done:  E(RHF) =  -284.881822501     A.U. after   11 cycles
            NFock= 11  Conv=0.86D-08     -V/T= 2.0022
 ExpMin= 2.97D-02 ExpMax= 1.17D+04 ExpMxC= 4.01D+02 IAcc=3 IRadAn=         5 AccDes= 0.00D+00
 HarFok:  IExCor=  205 AccDes= 0.00D+00 IRadAn=         5 IDoV=-2 UseB2=F ITyADJ=14
 ICtDFT= 12500011 ScaDFX=  1.000000  1.000000  1.000000  1.000000
 Range of M.O.s used for correlation:     7   201
 NBasis=   201 NAE=    23 NBE=    23 NFC=     6 NFV=     0
 NROrb=    195 NOA=    17 NOB=    17 NVA=   178 NVB=   178

 **** Warning!!: The largest alpha MO coefficient is  0.77914312D+02

 Fully direct method using O(ONN) memory.
 JobTyp=1 Pass  1:  I=   7 to  23 NPSUse= 40 ParTrn=T ParDer=T DoDerP=T.
 Spin components of T(2) and E(2):
     alpha-alpha T2 =       0.4496900714D-01 E2=     -0.1249104581D+00
     alpha-beta  T2 =       0.2390263928D+00 E2=     -0.7018966886D+00
     beta-beta   T2 =       0.4496900714D-01 E2=     -0.1249104581D+00
 ANorm=    0.1152807186D+01
 E2 =    -0.9517176049D+00 EUMP2 =    -0.28583354010608D+03
          IDoAtm=1111111111111
          Differentiating once with respect to electric field.
                with respect to dipole field.
          Differentiating once with respect to nuclear coordinates.
 Keep R1 ints in memory in canonical form, NReq=215138249.
          There are     1 degrees of freedom in the 1st order CPHF.  IDoFFX=0 NUNeed=     1.
 LinEq1:  Iter=  0 NonCon=     1 RMS=3.44D-03 Max=4.49D-02 NDo=     1
 AX will form     1 AO Fock derivatives at one time.
 LinEq1:  Iter=  1 NonCon=     1 RMS=7.53D-04 Max=1.13D-02 NDo=     1
 LinEq1:  Iter=  2 NonCon=     1 RMS=3.79D-04 Max=7.84D-03 NDo=     1
 LinEq1:  Iter=  3 NonCon=     1 RMS=1.07D-04 Max=2.48D-03 NDo=     1
 LinEq1:  Iter=  4 NonCon=     1 RMS=4.63D-05 Max=9.85D-04 NDo=     1
 LinEq1:  Iter=  5 NonCon=     1 RMS=1.45D-05 Max=2.91D-04 NDo=     1
 LinEq1:  Iter=  6 NonCon=     1 RMS=4.05D-06 Max=4.45D-05 NDo=     1
 LinEq1:  Iter=  7 NonCon=     1 RMS=1.46D-06 Max=1.71D-05 NDo=     1
 LinEq1:  Iter=  8 NonCon=     1 RMS=2.30D-07 Max=2.13D-06 NDo=     1
 LinEq1:  Iter=  9 NonCon=     1 RMS=4.63D-08 Max=8.09D-07 NDo=     1
 LinEq1:  Iter= 10 NonCon=     1 RMS=2.16D-08 Max=4.87D-07 NDo=     1
 LinEq1:  Iter= 11 NonCon=     1 RMS=5.70D-09 Max=1.15D-07 NDo=     1
 LinEq1:  Iter= 12 NonCon=     1 RMS=2.04D-09 Max=3.29D-08 NDo=     1
 LinEq1:  Iter= 13 NonCon=     1 RMS=7.80D-10 Max=8.63D-09 NDo=     1
 LinEq1:  Iter= 14 NonCon=     1 RMS=1.90D-10 Max=2.72D-09 NDo=     1
 LinEq1:  Iter= 15 NonCon=     0 RMS=2.98D-11 Max=3.22D-10 NDo=     1
 Linear equations converged to 1.000D-10 1.000D-09 after    15 iterations.
 End of Minotr F.D. properties file   721 does not exist.
 End of Minotr F.D. properties file   722 does not exist.
 End of Minotr F.D. properties file   788 does not exist.
 Calling FoFJK, ICntrl=  10002127 FMM=F ISym2X=0 I1Cent= 0 IOpClX= 0 NMat=1 NMatS=1 NMatT=0.
 ***** Axes restored to original set *****
 -------------------------------------------------------------------
 Center     Atomic                   Forces (Hartrees/Bohr)
 Number     Number              X              Y              Z
 -------------------------------------------------------------------
      1        6           0.000002643   -0.000024262    0.000092665
      2        6           0.000050894    0.000121206    0.000277763
      3        1           0.000028830   -0.000010951    0.000024494
      4        7          -0.000489391   -0.000561068   -0.000035707
      5        1           0.000007837    0.000025915   -0.000043654
      6        6           0.000066996    0.000060966   -0.000202622
      7        1           0.000544608    0.000332289   -0.000270864
      8        6          -0.000093762   -0.000110597    0.000011905
      9        1           0.000027914   -0.000026300   -0.000015813
     10        1           0.000019587   -0.000003087   -0.000014680
     11        8          -0.000211556    0.000202979   -0.000909292
     12        1           0.000179643   -0.000031198    0.000580391
     13        1          -0.000134243    0.000024106    0.000505414
 -------------------------------------------------------------------
 Cartesian Forces:  Max     0.000909292 RMS     0.000266671

 GradGradGradGradGradGradGradGradGradGradGradGradGradGradGradGradGradGrad
 Berny optimization.
 Using GEDIIS/GDIIS optimizer.
 FormGI is forming the generalized inverse of G from B-inverse, IUseBI=4.
 Internal  Forces:  Max     0.000761707 RMS     0.000189656
 Search for a local minimum.
 Step number   2 out of a maximum of   67
 All quantities printed in internal units (Hartrees-Bohrs-Radians)
 Mixed Optimization -- En-DIIS/RFO-DIIS
 Swapping is turned off.
 Update second derivatives using D2CorX and points    1    2
 DE= -1.06D-05 DEPred=-3.28D-05 R= 3.24D-01
 Trust test= 3.24D-01 RLast= 1.25D-01 DXMaxT set to 3.00D-01
 ITU=  0  0
     Eigenvalues ---    0.00223   0.00230   0.00565   0.01641   0.01839
     Eigenvalues ---    0.01935   0.01945   0.02018   0.02052   0.02058
     Eigenvalues ---    0.03945   0.04537   0.11563   0.15998   0.16000
     Eigenvalues ---    0.16000   0.16000   0.16000   0.16314   0.21993
     Eigenvalues ---    0.22139   0.34896   0.34898   0.35025   0.35030
     Eigenvalues ---    0.38347   0.40874   0.43949   0.45186   0.47288
     Eigenvalues ---    0.48858   0.53543   0.54261
 En-DIIS/RFO-DIIS/Sim-DIIS IScMMF=       -3 using points:     2    1
 RFO step:  Lambda=-4.62028512D-05.
 DidBck=T Rises=F RFO-DIIS coefs:    0.53247    0.46753
 Iteration  1 RMS(Cart)=  0.02448645 RMS(Int)=  0.00031800
 Iteration  2 RMS(Cart)=  0.00061391 RMS(Int)=  0.00006267
 Iteration  3 RMS(Cart)=  0.00000014 RMS(Int)=  0.00006267
 Variable       Old X    -DE/DX   Delta X   Delta X   Delta X     New X
                                 (Linear)    (Quad)   (Total)
    R1        2.64420  -0.00001  -0.00009   0.00016   0.00007   2.64426
    R2        2.05848  -0.00003  -0.00002   0.00000  -0.00002   2.05846
    R3        2.70036   0.00005   0.00020  -0.00032  -0.00013   2.70023
    R4        2.60420  -0.00009  -0.00028   0.00043   0.00015   2.60435
    R5        2.05652   0.00000  -0.00012   0.00023   0.00012   2.05664
    R6        2.60332   0.00011   0.00014  -0.00013   0.00001   2.60333
    R7        1.92676  -0.00011  -0.00139   0.00255   0.00116   1.92792
    R8        2.64415  -0.00010  -0.00007   0.00001  -0.00006   2.64409
    R9        2.05621   0.00002   0.00003  -0.00003   0.00000   2.05621
   R10        3.70976   0.00018  -0.00208   0.00638   0.00430   3.71407
   R11        2.05836   0.00001   0.00004  -0.00005  -0.00001   2.05835
   R12        1.82618   0.00012  -0.00056   0.00122   0.00066   1.82684
   R13        1.82645   0.00007  -0.00068   0.00141   0.00072   1.82717
    A1        2.19331  -0.00005  -0.00030   0.00044   0.00014   2.19345
    A2        1.87103   0.00009   0.00034  -0.00042  -0.00008   1.87095
    A3        2.21885  -0.00004  -0.00004  -0.00002  -0.00006   2.21878
    A4        1.88058  -0.00009  -0.00039   0.00053   0.00014   1.88072
    A5        2.28746  -0.00001   0.00079  -0.00163  -0.00083   2.28662
    A6        2.11515   0.00010  -0.00040   0.00110   0.00070   2.11585
    A7        1.92088   0.00006   0.00042  -0.00067  -0.00025   1.92063
    A8        2.18063  -0.00041   0.00004  -0.00157  -0.00154   2.17909
    A9        2.18168   0.00035  -0.00045   0.00225   0.00179   2.18347
   A10        1.88011  -0.00001  -0.00017   0.00033   0.00016   1.88027
   A11        2.11363   0.00003   0.00031  -0.00050  -0.00019   2.11344
   A12        2.28944  -0.00002  -0.00013   0.00017   0.00003   2.28948
   A13        1.87218  -0.00006  -0.00020   0.00023   0.00003   1.87222
   A14        2.21816   0.00002   0.00028  -0.00050  -0.00022   2.21794
   A15        2.19284   0.00004  -0.00009   0.00027   0.00018   2.19303
   A16        2.03525   0.00076  -0.00264   0.00871   0.00605   2.04130
   A17        1.97731   0.00059  -0.00386   0.01051   0.00664   1.98395
   A18        1.82526  -0.00058   0.00183  -0.00440  -0.00259   1.82267
   A19        3.07385   0.00016   0.03167  -0.00408   0.02758   3.10143
   A20        3.22170  -0.00039  -0.03745  -0.00934  -0.04654   3.17516
    D1        3.14138   0.00000   0.00012  -0.00023  -0.00013   3.14126
    D2        0.00010   0.00000  -0.00005   0.00017   0.00011   0.00021
    D3        0.00050  -0.00002  -0.00018  -0.00062  -0.00084  -0.00034
    D4       -3.14079  -0.00002  -0.00034  -0.00023  -0.00060  -3.14139
    D5        0.00050  -0.00002  -0.00030  -0.00017  -0.00048   0.00002
    D6        3.14071   0.00003   0.00038   0.00041   0.00081   3.14152
    D7       -3.14037  -0.00005  -0.00060  -0.00058  -0.00120  -3.14158
    D8       -0.00017   0.00001   0.00008   0.00001   0.00009  -0.00008
    D9       -0.00134   0.00006   0.00061   0.00122   0.00189   0.00055
   D10       -3.13948  -0.00007  -0.00101  -0.00104  -0.00213   3.14157
   D11        3.13998   0.00006   0.00075   0.00087   0.00168  -3.14153
   D12        0.00184  -0.00007  -0.00086  -0.00139  -0.00234  -0.00050
   D13        0.00166  -0.00007  -0.00080  -0.00133  -0.00220  -0.00053
   D14       -3.13950  -0.00006  -0.00098  -0.00056  -0.00160  -3.14110
   D15        3.13980   0.00006   0.00082   0.00092   0.00183  -3.14156
   D16       -0.00136   0.00007   0.00064   0.00168   0.00243   0.00106
   D17        0.98466   0.00010  -0.01655   0.01624  -0.00046   0.98419
   D18       -1.11483  -0.00023  -0.02341   0.00742  -0.01616  -1.13099
   D19       -2.21763   0.00025   0.01183   0.02089   0.03289  -2.18475
   D20        1.96607  -0.00008   0.00497   0.01207   0.01719   1.98326
   D21       -0.00131   0.00006   0.00067   0.00090   0.00162   0.00031
   D22       -3.14154   0.00001  -0.00000   0.00033   0.00035  -3.14119
   D23        3.13979   0.00005   0.00087   0.00003   0.00094   3.14073
   D24       -0.00044  -0.00000   0.00020  -0.00053  -0.00033  -0.00077
         Item               Value     Threshold  Converged?
 Maximum Force            0.000762     0.000450     NO 
 RMS     Force            0.000190     0.000300     YES
 Maximum Displacement     0.072340     0.001800     NO 
 RMS     Displacement     0.024543     0.001200     NO 
 Predicted change in Energy=-2.330053D-05
 GradGradGradGradGradGradGradGradGradGradGradGradGradGradGradGradGradGrad

                          Input orientation:                          
 ---------------------------------------------------------------------
 Center     Atomic      Atomic             Coordinates (Angstroms)
 Number     Number       Type             X           Y           Z
 ---------------------------------------------------------------------
      1          6           0        0.007341    0.717195   -1.907991
      2          6           0       -0.005206    1.115285   -0.566587
      3          1           0        0.016672    1.384768   -2.768698
      4          7           0       -0.014808   -0.023406    0.209705
      5          1           0       -0.008406    2.105735   -0.115532
      6          6           0       -0.008094   -1.142566   -0.593591
      7          1           0       -0.024869   -0.033498    1.229818
      8          6           0        0.005529   -0.711607   -1.924693
      9          1           0       -0.014383   -2.142389   -0.164316
     10          1           0        0.013131   -1.358123   -2.801266
     11          8           0        0.012751    0.025401    3.193974
     12          1           0       -0.693649    0.519749    3.631204
     13          1           0        0.827890    0.399111    3.555608
 ---------------------------------------------------------------------
                    Distance matrix (angstroms):
                    1          2          3          4          5
     1  C    0.000000
     2  C    1.399284   0.000000
     3  H    1.089292   2.218646   0.000000
     4  N    2.243573   1.378165   3.294667   0.000000
     5  H    2.267421   1.088325   2.749492   2.153848   0.000000
     6  C    2.277410   2.258014   3.334535   1.377624   3.283291
     7  H    3.226519   2.132407   4.242798   1.020212   2.527164
     8  C    1.428901   2.276422   2.259924   2.242697   3.348234
     9  H    3.349343   3.282430   4.384587   2.151739   4.248408
    10  H    2.259407   3.333448   2.743087   3.293660   4.383143
    11  O    5.148655   3.915353   6.115664   2.984795   3.909100
    12  H    5.586865   4.295355   6.497042   3.530226   4.125887
    13  H    5.534021   4.266081   6.451855   3.476165   4.133912
                    6          7          8          9         10
     6  C    0.000000
     7  H    2.134276   0.000000
     8  C    1.399194   3.226716   0.000000
     9  H    1.088100   2.528070   2.268582   0.000000
    10  H    2.218275   4.243314   1.089230   2.751243   0.000000
    11  O    3.963613   1.965399   5.171459   3.997269   6.152808
    12  H    4.591533   2.553430   5.733505   4.685547   6.738146
    13  H    4.504607   2.514686   5.651873   4.583282   6.645416
                   11         12         13
    11  O    0.000000
    12  H    0.966722   0.000000
    13  H    0.966897   1.528185   0.000000
 Stoichiometry    C4H7NO
 Framework group  C1[X(C4H7NO)]
 Deg. of freedom    33
 Full point group                 C1      NOp   1
 Largest Abelian subgroup         C1      NOp   1
 Largest concise Abelian subgroup C1      NOp   1
                         Standard orientation:                         
 ---------------------------------------------------------------------
 Center     Atomic      Atomic             Coordinates (Angstroms)
 Number     Number       Type             X           Y           Z
 ---------------------------------------------------------------------
      1          6           0        1.877525    0.758128    0.010457
      2          6           0        0.524578    1.114854   -0.006225
      3          1           0        2.717303    1.451807    0.022220
      4          7           0       -0.216365   -0.047130   -0.017892
      5          1           0        0.043347    2.090992   -0.011022
      6          6           0        0.620881   -1.141104   -0.008490
      7          1           0       -1.235652   -0.088530   -0.031023
      8          6           0        1.938080   -0.669488    0.009038
      9          1           0        0.222517   -2.153633   -0.015832
     10          1           0        2.834058   -1.288792    0.019435
     11          8           0       -3.200795   -0.089942    0.000667
     12          1           0       -3.650859    0.390647   -0.707165
     13          1           0       -3.576187    0.272611    0.814624
 ---------------------------------------------------------------------
 Rotational constants (GHZ):           8.8280938           1.6602397           1.4066357
 Standard basis: Aug-CC-pVDZ (5D, 7F)
 There are   213 symmetry adapted cartesian basis functions of A   symmetry.
 There are   201 symmetry adapted basis functions of A   symmetry.
   201 basis functions,   335 primitive gaussians,   213 cartesian basis functions
    23 alpha electrons       23 beta electrons
       nuclear repulsion energy       215.4845784321 Hartrees.
 NAtoms=   13 NActive=   13 NUniq=   13 SFac= 1.00D+00 NAtFMM=   60 NAOKFM=F Big=F
 Integral buffers will be    131072 words long.
 Raffenetti 1 integral format.
 Two-electron integral symmetry is turned on.
 One-electron integrals computed using PRISM.
 NBasis=   201 RedAO= T EigKep=  1.02D-05  NBF=   201
 NBsUse=   201 1.00D-06 EigRej= -1.00D+00 NBFU=   201
 Initial guess from the checkpoint file:  "/scr/Gau-98423.chk"
 B after Tr=     0.000000    0.000000    0.000000
         Rot=    0.999998   -0.000162    0.000169    0.001939 Ang=  -0.22 deg.
 ExpMin= 2.97D-02 ExpMax= 1.17D+04 ExpMxC= 4.01D+02 IAcc=3 IRadAn=         5 AccDes= 0.00D+00
 Harris functional with IExCor=  205 and IRadAn=       5 diagonalized for initial guess.
 HarFok:  IExCor=  205 AccDes= 0.00D+00 IRadAn=         5 IDoV= 1 UseB2=F ITyADJ=14
 ICtDFT=  3500011 ScaDFX=  1.000000  1.000000  1.000000  1.000000
 FoFCou: FMM=F IPFlag=           0 FMFlag=      100000 FMFlg1=           0
         NFxFlg=           0 DoJE=T BraDBF=F KetDBF=T FulRan=T
         wScrn=  0.000000 ICntrl=       500 IOpCl=  0 I1Cent=   200000004 NGrid=           0
         NMat0=    1 NMatS0=      1 NMatT0=    0 NMatD0=    1 NMtDS0=    0 NMtDT0=    0
 Petite list used in FoFCou.
 Requested convergence on RMS density matrix=1.00D-08 within 128 cycles.
 Requested convergence on MAX density matrix=1.00D-06.
 Requested convergence on             energy=1.00D-06.
 No special actions if energy rises.
 SCF Done:  E(RHF) =  -284.881812568     A.U. after   11 cycles
            NFock= 11  Conv=0.36D-08     -V/T= 2.0022
 ExpMin= 2.97D-02 ExpMax= 1.17D+04 ExpMxC= 4.01D+02 IAcc=3 IRadAn=         5 AccDes= 0.00D+00
 HarFok:  IExCor=  205 AccDes= 0.00D+00 IRadAn=         5 IDoV=-2 UseB2=F ITyADJ=14
 ICtDFT= 12500011 ScaDFX=  1.000000  1.000000  1.000000  1.000000
 Range of M.O.s used for correlation:     7   201
 NBasis=   201 NAE=    23 NBE=    23 NFC=     6 NFV=     0
 NROrb=    195 NOA=    17 NOB=    17 NVA=   178 NVB=   178

 **** Warning!!: The largest alpha MO coefficient is  0.77108436D+02

 Fully direct method using O(ONN) memory.
 JobTyp=1 Pass  1:  I=   7 to  23 NPSUse= 40 ParTrn=T ParDer=T DoDerP=T.
 Spin components of T(2) and E(2):
     alpha-alpha T2 =       0.4497301029D-01 E2=     -0.1249112069D+00
     alpha-beta  T2 =       0.2390639754D+00 E2=     -0.7019357092D+00
     beta-beta   T2 =       0.4497301029D-01 E2=     -0.1249112069D+00
 ANorm=    0.1152826958D+01
 E2 =    -0.9517581230D+00 EUMP2 =    -0.28583357069135D+03
          IDoAtm=1111111111111
          Differentiating once with respect to electric field.
                with respect to dipole field.
          Differentiating once with respect to nuclear coordinates.
 Keep R1 ints in memory in canonical form, NReq=215138013.
          There are     1 degrees of freedom in the 1st order CPHF.  IDoFFX=0 NUNeed=     1.
 LinEq1:  Iter=  0 NonCon=     1 RMS=3.44D-03 Max=4.56D-02 NDo=     1
 AX will form     1 AO Fock derivatives at one time.
 LinEq1:  Iter=  1 NonCon=     1 RMS=7.53D-04 Max=1.16D-02 NDo=     1
 LinEq1:  Iter=  2 NonCon=     1 RMS=3.79D-04 Max=7.58D-03 NDo=     1
 LinEq1:  Iter=  3 NonCon=     1 RMS=1.08D-04 Max=2.55D-03 NDo=     1
 LinEq1:  Iter=  4 NonCon=     1 RMS=4.64D-05 Max=9.93D-04 NDo=     1
 LinEq1:  Iter=  5 NonCon=     1 RMS=1.45D-05 Max=2.92D-04 NDo=     1
 LinEq1:  Iter=  6 NonCon=     1 RMS=4.06D-06 Max=4.58D-05 NDo=     1
 LinEq1:  Iter=  7 NonCon=     1 RMS=1.47D-06 Max=1.74D-05 NDo=     1
 LinEq1:  Iter=  8 NonCon=     1 RMS=2.30D-07 Max=2.16D-06 NDo=     1
 LinEq1:  Iter=  9 NonCon=     1 RMS=4.64D-08 Max=8.19D-07 NDo=     1
 LinEq1:  Iter= 10 NonCon=     1 RMS=2.15D-08 Max=4.62D-07 NDo=     1
 LinEq1:  Iter= 11 NonCon=     1 RMS=5.63D-09 Max=1.17D-07 NDo=     1
 LinEq1:  Iter= 12 NonCon=     1 RMS=2.03D-09 Max=3.19D-08 NDo=     1
 LinEq1:  Iter= 13 NonCon=     1 RMS=7.78D-10 Max=9.08D-09 NDo=     1
 LinEq1:  Iter= 14 NonCon=     1 RMS=1.90D-10 Max=2.71D-09 NDo=     1
 LinEq1:  Iter= 15 NonCon=     0 RMS=2.99D-11 Max=3.24D-10 NDo=     1
 Linear equations converged to 1.000D-10 1.000D-09 after    15 iterations.
 End of Minotr F.D. properties file   721 does not exist.
 End of Minotr F.D. properties file   722 does not exist.
 End of Minotr F.D. properties file   788 does not exist.
 Calling FoFJK, ICntrl=  10002127 FMM=F ISym2X=0 I1Cent= 0 IOpClX= 0 NMat=1 NMatS=1 NMatT=0.
 ***** Axes restored to original set *****
 -------------------------------------------------------------------
 Center     Atomic                   Forces (Hartrees/Bohr)
 Number     Number              X              Y              Z
 -------------------------------------------------------------------
      1        6           0.000024107   -0.000001363    0.000159892
      2        6          -0.000031119    0.000175400    0.000112064
      3        1           0.000002784    0.000002851    0.000025468
      4        7          -0.000010222   -0.000002780    0.000457424
      5        1          -0.000014541   -0.000050566    0.000013556
      6        6          -0.000069484   -0.000091531   -0.000024681
      7        1           0.000036420   -0.000088122   -0.000788290
      8        6           0.000022130   -0.000103571    0.000017053
      9        1          -0.000010329   -0.000028490   -0.000025118
     10        1           0.000004390   -0.000032909    0.000004262
     11        8           0.000173076    0.000740202   -0.000551427
     12        1           0.000204722   -0.000283513    0.000257445
     13        1          -0.000331933   -0.000235608    0.000342352
 -------------------------------------------------------------------
 Cartesian Forces:  Max     0.000788290 RMS     0.000242597

 GradGradGradGradGradGradGradGradGradGradGradGradGradGradGradGradGradGrad
 Berny optimization.
 Using GEDIIS/GDIIS optimizer.
 FormGI is forming the generalized inverse of G from B-inverse, IUseBI=4.
 Internal  Forces:  Max     0.000740150 RMS     0.000176104
 Search for a local minimum.
 Step number   3 out of a maximum of   67
 All quantities printed in internal units (Hartrees-Bohrs-Radians)
 Mixed Optimization -- En-DIIS/RFO-DIIS
 Swapping is turned off.
 Update second derivatives using D2CorX and points    1    2    3
 DE= -3.06D-05 DEPred=-2.33D-05 R= 1.31D+00
 TightC=F SS=  1.41D+00  RLast= 6.87D-02 DXNew= 5.0454D-01 2.0610D-01
 Trust test= 1.31D+00 RLast= 6.87D-02 DXMaxT set to 3.00D-01
 ITU=  1  0  0
     Eigenvalues ---    0.00192   0.00233   0.00554   0.01573   0.01839
     Eigenvalues ---    0.01934   0.01948   0.02043   0.02053   0.02059
     Eigenvalues ---    0.02222   0.04678   0.09189   0.16000   0.16000
     Eigenvalues ---    0.16000   0.16000   0.16088   0.16501   0.22019
     Eigenvalues ---    0.22462   0.34896   0.34898   0.35029   0.35043
     Eigenvalues ---    0.38418   0.40889   0.45152   0.47251   0.48337
     Eigenvalues ---    0.49427   0.54258   0.57304
 En-DIIS/RFO-DIIS/Sim-DIIS IScMMF=       -3 using points:     3    2    1
 RFO step:  Lambda=-4.54553729D-05.
 DidBck=F Rises=F RFO-DIIS coefs:    3.00000   -1.15519   -0.84481
 Iteration  1 RMS(Cart)=  0.01944296 RMS(Int)=  0.00048794
 Iteration  2 RMS(Cart)=  0.00040965 RMS(Int)=  0.00023353
 Iteration  3 RMS(Cart)=  0.00000011 RMS(Int)=  0.00023353
 Variable       Old X    -DE/DX   Delta X   Delta X   Delta X     New X
                                 (Linear)    (Quad)   (Total)
    R1        2.64426  -0.00006   0.00030  -0.00041  -0.00011   2.64416
    R2        2.05846  -0.00002   0.00000  -0.00010  -0.00010   2.05836
    R3        2.70023   0.00013  -0.00061   0.00086   0.00025   2.70048
    R4        2.60435  -0.00013   0.00081  -0.00078   0.00003   2.60438
    R5        2.05664  -0.00004   0.00044  -0.00038   0.00006   2.05670
    R6        2.60333   0.00008  -0.00022   0.00034   0.00011   2.60344
    R7        1.92792  -0.00074   0.00483  -0.00499  -0.00015   1.92777
    R8        2.64409  -0.00010   0.00001  -0.00043  -0.00042   2.64368
    R9        2.05621   0.00002  -0.00005   0.00011   0.00006   2.05627
   R10        3.71407   0.00005   0.01237  -0.00128   0.01109   3.72515
   R11        2.05835   0.00002  -0.00009   0.00012   0.00003   2.05838
   R12        1.82684  -0.00018   0.00233  -0.00140   0.00093   1.82777
   R13        1.82717  -0.00024   0.00268  -0.00173   0.00095   1.82812
    A1        2.19345  -0.00006   0.00083  -0.00091  -0.00008   2.19337
    A2        1.87095   0.00009  -0.00077   0.00109   0.00031   1.87127
    A3        2.21878  -0.00003  -0.00006  -0.00018  -0.00024   2.21855
    A4        1.88072  -0.00013   0.00098  -0.00161  -0.00063   1.88008
    A5        2.28662   0.00010  -0.00310   0.00204  -0.00106   2.28556
    A6        2.11585   0.00003   0.00212  -0.00043   0.00170   2.11754
    A7        1.92063   0.00016  -0.00126   0.00187   0.00062   1.92124
    A8        2.17909  -0.00017  -0.00314  -0.00063  -0.00378   2.17531
    A9        2.18347   0.00001   0.00441  -0.00124   0.00316   2.18664
   A10        1.88027  -0.00008   0.00063  -0.00098  -0.00036   1.87991
   A11        2.11344   0.00008  -0.00094   0.00111   0.00017   2.11361
   A12        2.28948   0.00001   0.00031  -0.00013   0.00018   2.28966
   A13        1.87222  -0.00004   0.00042  -0.00037   0.00006   1.87227
   A14        2.21794   0.00005  -0.00095   0.00081  -0.00014   2.21780
   A15        2.19303  -0.00001   0.00052  -0.00044   0.00008   2.19311
   A16        2.04130   0.00048   0.01687   0.00582   0.02208   2.06338
   A17        1.98395   0.00063   0.02026   0.00784   0.02746   2.01140
   A18        1.82267  -0.00035  -0.00849   0.00522  -0.00425   1.81843
   A19        3.10143  -0.00006  -0.00208   0.02083   0.01856   3.11998
   A20        3.17516  -0.00003  -0.02540   0.01288  -0.01301   3.16215
    D1        3.14126   0.00001  -0.00047   0.00152   0.00109  -3.14084
    D2        0.00021  -0.00000   0.00031  -0.00053  -0.00020   0.00001
    D3       -0.00034   0.00002  -0.00136   0.00264   0.00137   0.00103
    D4       -3.14139   0.00000  -0.00057   0.00059   0.00008  -3.14131
    D5        0.00002  -0.00000  -0.00041   0.00048   0.00007   0.00009
    D6        3.14152  -0.00000   0.00093  -0.00112  -0.00024   3.14128
    D7       -3.14158   0.00000  -0.00132   0.00162   0.00036  -3.14122
    D8       -0.00008   0.00000   0.00003   0.00002   0.00005  -0.00003
    D9        0.00055  -0.00003   0.00269  -0.00490  -0.00235  -0.00181
   D10        3.14157  -0.00003  -0.00244  -0.00148  -0.00373   3.13784
   D11       -3.14153  -0.00001   0.00199  -0.00309  -0.00122   3.14044
   D12       -0.00050  -0.00001  -0.00313   0.00033  -0.00259  -0.00309
   D13       -0.00053   0.00003  -0.00294   0.00520   0.00240   0.00187
   D14       -3.14110   0.00001  -0.00143   0.00286   0.00154  -3.13956
   D15       -3.14156   0.00003   0.00218   0.00177   0.00379  -3.13777
   D16        0.00106   0.00001   0.00370  -0.00058   0.00293   0.00399
   D17        0.98419   0.00022   0.02898   0.02424   0.05387   1.03806
   D18       -1.13099  -0.00021   0.00998   0.00010   0.01006  -1.12093
   D19       -2.18475   0.00024   0.04440   0.01838   0.06280  -2.12195
   D20        1.98326  -0.00019   0.02540  -0.00576   0.01899   2.00224
   D21        0.00031  -0.00002   0.00202  -0.00342  -0.00148  -0.00118
   D22       -3.14119  -0.00001   0.00070  -0.00185  -0.00118   3.14081
   D23        3.14073   0.00000   0.00030  -0.00075  -0.00051   3.14023
   D24       -0.00077   0.00000  -0.00102   0.00083  -0.00020  -0.00097
         Item               Value     Threshold  Converged?
 Maximum Force            0.000740     0.000450     NO 
 RMS     Force            0.000176     0.000300     YES
 Maximum Displacement     0.084381     0.001800     NO 
 RMS     Displacement     0.019412     0.001200     NO 
 Predicted change in Energy=-2.372197D-05
 GradGradGradGradGradGradGradGradGradGradGradGradGradGradGradGradGradGrad

                          Input orientation:                          
 ---------------------------------------------------------------------
 Center     Atomic      Atomic             Coordinates (Angstroms)
 Number     Number       Type             X           Y           Z
 ---------------------------------------------------------------------
      1          6           0        0.006315    0.714954   -1.917405
      2          6           0       -0.000080    1.121170   -0.578456
      3          1           0        0.013850    1.377314   -2.782079
      4          7           0       -0.007880   -0.013286    0.204057
      5          1           0        0.000954    2.114840   -0.134450
      6          6           0       -0.009028   -1.137329   -0.592522
      7          1           0       -0.010525   -0.013979    1.224186
      8          6           0        0.000731   -0.714045   -1.925886
      9          1           0       -0.016720   -2.134623   -0.157350
     10          1           0        0.003108   -1.365489   -2.798853
     11          8           0        0.019133    0.026956    3.194803
     12          1           0       -0.704658    0.475096    3.653935
     13          1           0        0.818698    0.404077    3.587658
 ---------------------------------------------------------------------
                    Distance matrix (angstroms):
                    1          2          3          4          5
     1  C    0.000000
     2  C    1.399227   0.000000
     3  H    1.089238   2.218503   0.000000
     4  N    2.243019   1.378180   3.294124   0.000000
     5  H    2.266856   1.088358   2.748463   2.154898   0.000000
     6  C    2.277389   2.258561   3.334384   1.377684   3.284286
     7  H    3.225092   2.130303   4.241043   1.020132   2.525449
     8  C    1.429034   2.276748   2.259872   2.242274   3.348407
     9  H    3.349389   3.282955   4.384500   2.151920   4.249561
    10  H    2.259470   3.333714   2.742876   3.293333   4.383120
    11  O    5.158312   3.928761   6.127530   2.991139   3.929825
    12  H    5.621640   4.339006   6.538541   3.553262   4.187900
    13  H    5.573358   4.305941   6.493729   3.508016   4.177260
                    6          7          8          9         10
     6  C    0.000000
     7  H    2.135965   0.000000
     8  C    1.398973   3.226945   0.000000
     9  H    1.088131   2.530970   2.268495   0.000000
    10  H    2.218130   4.244009   1.089246   2.751273   0.000000
    11  O    3.962346   1.971266   5.174059   3.988814   6.153298
    12  H    4.595238   2.573849   5.748568   4.670094   6.747382
    13  H    4.531553   2.539366   5.684930   4.600870   6.677131
                   11         12         13
    11  O    0.000000
    12  H    0.967215   0.000000
    13  H    0.967399   1.526451   0.000000
 Stoichiometry    C4H7NO
 Framework group  C1[X(C4H7NO)]
 Deg. of freedom    33
 Full point group                 C1      NOp   1
 Largest Abelian subgroup         C1      NOp   1
 Largest concise Abelian subgroup C1      NOp   1
                         Standard orientation:                         
 ---------------------------------------------------------------------
 Center     Atomic      Atomic             Coordinates (Angstroms)
 Number     Number       Type             X           Y           Z
 ---------------------------------------------------------------------
      1          6           0        1.885252    0.751058    0.007699
      2          6           0        0.535049    1.117949   -0.005729
      3          1           0        2.730170    1.438426    0.016513
      4          7           0       -0.213954   -0.038910   -0.012800
      5          1           0        0.062209    2.098217   -0.010056
      6          6           0        0.615114   -1.139192   -0.006651
      7          1           0       -1.233607   -0.069422   -0.019708
      8          6           0        1.935492   -0.677093    0.007190
      9          1           0        0.209293   -2.148797   -0.012646
     10          1           0        2.827096   -1.302736    0.015516
     11          8           0       -3.204688   -0.085992    0.001563
     12          1           0       -3.673609    0.346074   -0.725718
     13          1           0       -3.611811    0.282207    0.798144
 ---------------------------------------------------------------------
 Rotational constants (GHZ):           8.8313675           1.6542660           1.4023933
 Standard basis: Aug-CC-pVDZ (5D, 7F)
 There are   213 symmetry adapted cartesian basis functions of A   symmetry.
 There are   201 symmetry adapted basis functions of A   symmetry.
   201 basis functions,   335 primitive gaussians,   213 cartesian basis functions
    23 alpha electrons       23 beta electrons
       nuclear repulsion energy       215.3619644309 Hartrees.
 NAtoms=   13 NActive=   13 NUniq=   13 SFac= 1.00D+00 NAtFMM=   60 NAOKFM=F Big=F
 Integral buffers will be    131072 words long.
 Raffenetti 1 integral format.
 Two-electron integral symmetry is turned on.
 One-electron integrals computed using PRISM.
 NBasis=   201 RedAO= T EigKep=  1.02D-05  NBF=   201
 NBsUse=   201 1.00D-06 EigRej= -1.00D+00 NBFU=   201
 Initial guess from the checkpoint file:  "/scr/Gau-98423.chk"
 B after Tr=    -0.000000   -0.000000   -0.000000
         Rot=    0.999999    0.001030    0.000071    0.001126 Ang=   0.18 deg.
 ExpMin= 2.97D-02 ExpMax= 1.17D+04 ExpMxC= 4.01D+02 IAcc=3 IRadAn=         5 AccDes= 0.00D+00
 Harris functional with IExCor=  205 and IRadAn=       5 diagonalized for initial guess.
 HarFok:  IExCor=  205 AccDes= 0.00D+00 IRadAn=         5 IDoV= 1 UseB2=F ITyADJ=14
 ICtDFT=  3500011 ScaDFX=  1.000000  1.000000  1.000000  1.000000
 FoFCou: FMM=F IPFlag=           0 FMFlag=      100000 FMFlg1=           0
         NFxFlg=           0 DoJE=T BraDBF=F KetDBF=T FulRan=T
         wScrn=  0.000000 ICntrl=       500 IOpCl=  0 I1Cent=   200000004 NGrid=           0
         NMat0=    1 NMatS0=      1 NMatT0=    0 NMatD0=    1 NMtDS0=    0 NMtDT0=    0
 Petite list used in FoFCou.
 Requested convergence on RMS density matrix=1.00D-08 within 128 cycles.
 Requested convergence on MAX density matrix=1.00D-06.
 Requested convergence on             energy=1.00D-06.
 No special actions if energy rises.
 SCF Done:  E(RHF) =  -284.881866162     A.U. after   10 cycles
            NFock= 10  Conv=0.66D-08     -V/T= 2.0022
 ExpMin= 2.97D-02 ExpMax= 1.17D+04 ExpMxC= 4.01D+02 IAcc=3 IRadAn=         5 AccDes= 0.00D+00
 HarFok:  IExCor=  205 AccDes= 0.00D+00 IRadAn=         5 IDoV=-2 UseB2=F ITyADJ=14
 ICtDFT= 12500011 ScaDFX=  1.000000  1.000000  1.000000  1.000000
 Range of M.O.s used for correlation:     7   201
 NBasis=   201 NAE=    23 NBE=    23 NFC=     6 NFV=     0
 NROrb=    195 NOA=    17 NOB=    17 NVA=   178 NVB=   178

 **** Warning!!: The largest alpha MO coefficient is  0.80253114D+02

 Fully direct method using O(ONN) memory.
 JobTyp=1 Pass  1:  I=   7 to  23 NPSUse= 40 ParTrn=T ParDer=T DoDerP=T.
 Spin components of T(2) and E(2):
     alpha-alpha T2 =       0.4497132465D-01 E2=     -0.1249003924D+00
     alpha-beta  T2 =       0.2390833929D+00 E2=     -0.7019426376D+00
     beta-beta   T2 =       0.4497132465D-01 E2=     -0.1249003924D+00
 ANorm=    0.1152833918D+01
 E2 =    -0.9517434224D+00 EUMP2 =    -0.28583360958444D+03
          IDoAtm=1111111111111
          Differentiating once with respect to electric field.
                with respect to dipole field.
          Differentiating once with respect to nuclear coordinates.
 Keep R1 ints in memory in canonical form, NReq=215137764.
          There are     1 degrees of freedom in the 1st order CPHF.  IDoFFX=0 NUNeed=     1.
 LinEq1:  Iter=  0 NonCon=     1 RMS=3.44D-03 Max=4.57D-02 NDo=     1
 AX will form     1 AO Fock derivatives at one time.
 LinEq1:  Iter=  1 NonCon=     1 RMS=7.53D-04 Max=1.23D-02 NDo=     1
 LinEq1:  Iter=  2 NonCon=     1 RMS=3.79D-04 Max=7.23D-03 NDo=     1
 LinEq1:  Iter=  3 NonCon=     1 RMS=1.08D-04 Max=2.70D-03 NDo=     1
 LinEq1:  Iter=  4 NonCon=     1 RMS=4.65D-05 Max=9.95D-04 NDo=     1
 LinEq1:  Iter=  5 NonCon=     1 RMS=1.46D-05 Max=2.92D-04 NDo=     1
 LinEq1:  Iter=  6 NonCon=     1 RMS=4.07D-06 Max=5.02D-05 NDo=     1
 LinEq1:  Iter=  7 NonCon=     1 RMS=1.47D-06 Max=1.77D-05 NDo=     1
 LinEq1:  Iter=  8 NonCon=     1 RMS=2.29D-07 Max=2.20D-06 NDo=     1
 LinEq1:  Iter=  9 NonCon=     1 RMS=4.55D-08 Max=7.89D-07 NDo=     1
 LinEq1:  Iter= 10 NonCon=     1 RMS=2.06D-08 Max=4.03D-07 NDo=     1
 LinEq1:  Iter= 11 NonCon=     1 RMS=5.38D-09 Max=1.19D-07 NDo=     1
 LinEq1:  Iter= 12 NonCon=     1 RMS=1.98D-09 Max=3.19D-08 NDo=     1
 LinEq1:  Iter= 13 NonCon=     1 RMS=7.63D-10 Max=1.03D-08 NDo=     1
 LinEq1:  Iter= 14 NonCon=     1 RMS=1.88D-10 Max=2.67D-09 NDo=     1
 LinEq1:  Iter= 15 NonCon=     0 RMS=2.99D-11 Max=3.26D-10 NDo=     1
 Linear equations converged to 1.000D-10 1.000D-09 after    15 iterations.
 End of Minotr F.D. properties file   721 does not exist.
 End of Minotr F.D. properties file   722 does not exist.
 End of Minotr F.D. properties file   788 does not exist.
 Calling FoFJK, ICntrl=  10002127 FMM=F ISym2X=0 I1Cent= 0 IOpClX= 0 NMat=1 NMatS=1 NMatT=0.
 ***** Axes restored to original set *****
 -------------------------------------------------------------------
 Center     Atomic                   Forces (Hartrees/Bohr)
 Number     Number              X              Y              Z
 -------------------------------------------------------------------
      1        6          -0.000045302   -0.000055698    0.000030722
      2        6           0.000206660   -0.000032624   -0.000287496
      3        1          -0.000023985    0.000023994   -0.000019143
      4        7          -0.000194615    0.000670754    0.000896115
      5        1           0.000024719   -0.000173809    0.000157030
      6        6           0.000172571   -0.000081055    0.000299792
      7        1          -0.000160396   -0.000584136   -0.000806349
      8        6          -0.000067564    0.000060752   -0.000157120
      9        1           0.000047986    0.000010720   -0.000022765
     10        1          -0.000030852   -0.000034914    0.000021932
[...]
 42,0.00193137,0.00034393,-0.00841999,0.00002152,0.00003500,0.00024687,
 0.00001534,0.00004373,0.00000478,0.00000708,0.00000518,0.00006639,-0.0
 0634307,-0.00269510,0.00519356,0.00081989,0.00016690,0.00204459,0.0037
 9999,0.00002464,0.00000851,0.00007060,-0.00004890,0.00009443,-0.000093
 06,-0.00000021,-0.00000385,0.00001447,-0.00004581,0.00015408,0.0006180
 7,-0.00000067,-0.00003244,0.00000050,-0.00000964,-0.00007516,0.0000075
 8,0.00118741,-0.00199632,-0.00136739,-0.00001115,-0.00001082,0.0000531
 7,-0.00000001,-0.00001091,0.00000382,0.00000784,-0.00000185,0.00001582
 ,-0.00307150,0.00382619,0.00167812,-0.00015997,0.00070805,-0.00005160,
 0.00212796,-0.00265991,-0.00002505,0.00017406,-0.00039366,0.00005962,-
 0.00095230,-0.00037779,-0.00002435,-0.00004717,-0.00010239,0.00043271,
 0.00008190,0.00006644,0.00002208,0.00006222,0.00001109,0.00003188,0.00
 095132,-0.00036987,-0.00327297,-0.00100919,0.00644733,-0.00000377,-0.0
 0019734,-0.00039785,0.00002710,-0.00007240,0.00000675,-0.00002353,0.00
 003970,-0.00010254,0.00582992,0.00194292,-0.00523314,-0.00202779,-0.00
 002363,0.00129598,-0.00102586,-0.00095010,-0.00085035,0.00022313,-0.00
 001930,0.00006458,-0.00004283,-0.00013586,-0.00016651,-0.00020645,0.00
 000100,0.00002427,0.00006144,0.00000464,-0.00013547,-0.00001130,0.0000
 1255,0.00051607,0.00002283,0.00021062,0.00005879,-0.00001626,0.0001770
 0,-0.00050054,-0.00002751,0.00000599,0.00000243,0.00003829,-0.00000075
 ,-0.00000012,-0.00000393,0.00000766,0.00002970,0.00003590,-0.00000119,
 -0.00000136,-0.00001477,-0.00000436,0.00001760,-0.00001182,0.00003326,
 0.00001038,0.00000086,-0.00003473,-0.00003352,0.00000233,-0.00000894,-
 0.00002783,-0.00003852,0.00000226,0.00000376,0.00037142,-0.00001843,0.
 00000402,-0.00004552,0.00000069,0.00000096,-0.00139795,0.00000883,0.00
 015148,-0.00003629,-0.00002157,-0.00045608,-0.00012212,-0.00000075,-0.
 00000960,-0.00001616,0.00003808,0.00041046,-0.00001074,-0.00023581,0.0
 0011209,0.00000942,0.00025131,0.00069106,0.00000218,0.00001097,0.00006
 498,0.00000429,-0.00010374,0.00011454,0.00006593,0.00000047,-0.0000034
 1,-0.00010742,0.00000169,0.00000151,-0.00000560,0.00000064,0.00000207,
 0.00002342,0.00000508,0.00000041,0.00003372,-0.00000195,0.00004128,-0.
 00001482,0.00000720,-0.00012684,-0.00005270,-0.00000094,-0.00000211,-0
 .00000485,0.00000173,0.00001404,0.00001727,-0.00000351,0.00003898,0.00
 000120,0.00001890,0.00001270,0.00000413,-0.00011090,0.00007415,-0.0000
 0054,-0.00001196,0.00000052,0.00000218,0.00011078,-0.00005022,-0.00000
 371,0.00002648,-0.00005317,-0.00000369,-0.00001429,-0.00001566,0.00000
 956,0.00000748,-0.00000593,-0.00000505,-0.00000107,0.00000030,0.000407
 80,-0.00002881,-0.00001589,-0.00001343,0.00000150,0.00000118,-0.000169
 14,-0.00000022,-0.00000466,0.00006878,0.00000400,0.00006643,-0.0000698
 9,0.00000007,0.00000806,0.00000779,-0.00002452,-0.00050792,-0.00022065
 ,-0.00000283,0.00002164,-0.00001367,0.00002806,0.00034882,0.00000527,0
 .00008247,0.00015896,-0.00000101,0.00014501,-0.00015863,0.00000226,-0.
 00000473,0.00000066,-0.00002486,0.00002593,0.00055804,-0.00000028,-0.0
 0000715,-0.00002387,0.00003361,-0.00008036,-0.00023456,-0.00016978,-0.
 00000059,-0.00000140,-0.00001520,-0.00000334,-0.00000557,-0.00001594,0
 .,-0.00000021,0.00095666,-0.00000059,0.00000218,-0.00001045,0.00000072
 ,-0.00000079,-0.00012536,0.00000649,-0.00000265,-0.00100637,0.00000065
 ,-0.00001252,-0.00003426,0.00000043,0.00011015,-0.00009299,0.00000027,
 0.00000813,0.00000447,0.00000128,0.00061545,0.00013659,-0.00000039,0.0
 0001913,-0.00001215,0.00000225,0.00006188,0.00006603,-0.00000054,-0.00
 120790,0.00000278,0.00013772,-0.00021491,-0.00000911,-0.00071270,-0.00
 030548,-0.00000107,-0.00004624,-0.00006363,-0.00000171,0.00020318,-0.0
 0236494,-0.00000032,0.00005458,-0.00000907,0.00000159,0.00062114,-0.00
 030238,0.00001948,-0.00007541,0.00453380,0.00009153,0.00002435,0.00003
 740,-0.00007871,-0.00000802,-0.00000045,0.00003365,-0.00000197,0.00000
 633,-0.00001967,0.00000349,-0.00000041,-0.00000962,-0.00000434,-0.0000
 0400,-0.00004659,-0.00000398,-0.00001019,0.00008313,-0.00000254,-0.000
 00221,-0.00005599,-0.00000311,-0.00007918,0.00013682,-0.00000204,0.000
 04892,-0.00011816,-0.00000033,-0.00003778,0.00003133,0.00000113,0.0000
 2387,0.00020590,-0.00000147,0.00000162,-0.00000282,0.00000758,-0.00002
 022,-0.00020649,-0.00000102,-0.00002080,-0.00011029,0.00000385,0.00010
 766,0.00003569,-0.00008625,-0.00016235,-0.00001771,-0.00013414,0.00016
 755,-0.00000745,0.00001614,-0.00000024,0.00000552,0.00017749,0.0000763
 4,0.00000397,0.00001198,0.00000431,-0.00000209,-0.00005300,0.00007582,
 0.,0.00006810,-0.00022441,-0.00002332,0.00013183,-0.00012421,-0.000052
 12,0.00000350,0.00000291,0.00002942,0.00000115,-0.00000193,-0.00000784
 ,0.00000014,-0.00000018,-0.00002048,-0.00000540,0.00000253,0.00001254,
 -0.00000082,0.00000015,-0.00005175,-0.00000369,-0.00000445,0.00000633,
 -0.00000062,-0.00000086,0.00007996,-0.00000106,0.00000208,-0.00001328,
 0.00000604,0.00000196,-0.00000431,-0.00000232,0.00001782,-0.00000581,-
 0.00000036,0.00000105,-0.00000176,-0.00000037,0.00002784,0.00001607,0.
 00000027,0.00000675,0.00000380,-0.00000981,-0.00006832,0.00004068,-0.0
 0000104,0.00000592,-0.00006510,-0.00000223,0.00002084,-0.00000551,0.00
 000867,0.00001275,-0.00000434,0.00000983,-0.00000392,0.00000055,0.0000
 3180,-0.00003305,0.00000040,-0.00000115,0.00000326,-0.00000005,-0.0001
 1965,-0.00002908,-0.00000022,-0.00000343,0.00001638,0.00000550,0.00009
 397,-0.00001330,-0.00000044,0.00000298,0.00000009,0.00000093,-0.000007
 77,0.00001846,-0.00000074,0.00000673,0.00004984,0.00004945,-0.00000232
 ,-0.00000782,-0.00002683,0.00000060,0.00000018,0.00002306,-0.00000057,
 -0.00000076,-0.00003998,0.00000298,0.00000156,-0.00001176,0.00000090,0
 .00000028,0.00005198,-0.00000178,0.00000286,-0.00000401,-0.00000015,-0
 .00000066,-0.00006191,-0.00000388,0.00000310,0.00000108,0.00000117,-0.
 00000140,-0.00000120,-0.00000260,-0.00001666,-0.00000050,0.00000131,0.
 00001030,0.00000166,0.00000138,-0.00001117,-0.00000694,-0.00000031,-0.
 00001492,-0.00001086,0.00000039,0.00000389,0.00000178,0.00000656,-0.00
 000087,0.00002686,0.00000012,0.00001037,0.00003301,-0.00000797,-0.0000
 1531,-0.00004296,-0.00000175,0.00000064,-0.00000028,0.00000312,0.00003
 293,0.00000143,-0.00002560,0.00001034,0.00000042,-0.00000743,0.0000039
 5,-0.00000071,0.00000246,0.00000461,0.00000108,0.00002841,0.00005634,0
 .00000017,0.00000091,0.00000117,-0.00000060,0.00004854,-0.00002748,-0.
 00000044,-0.00000035,-0.00005271,-0.00000460,-0.00004817,-0.00002223,0
 .00000064,-0.00000275,0.00000910,0.00000263,0.00001293,-0.00000912,0.0
 0012145,-0.00000077,0.00000024,0.00017248,-0.00000134,0.00000006,-0.00
 000229,-0.00000019,-0.00000007,-0.00030363,-0.00000037,0.00000343,0.00
 003211,-0.00000017,-0.00000068,0.00015670,-0.00000010,-0.00000208,-0.0
 0120916,0.00000763,0.00001750,0.00006869,-0.00000026,-0.00000071,0.000
 01390,0.00000042,-0.00000034,0.00001442,0.00000008,-0.00000022,3.72610
 011,-0.00000190,-0.00000533,-0.00009341,-0.00000371,-0.00014528,-0.000
 02813,-0.00000011,-0.00000114,-0.00000896,0.00000005,-0.00018611,-0.00
 024721,-0.00000016,0.00003547,-0.00001565,-0.00000231,0.00011424,-0.00
 018459,0.00000338,-0.00043605,-0.00001169,-0.00000066,0.00002776,-0.00
 008532,0.00000015,-0.00000402,0.00000389,0.00000007,0.00000960,-0.0000
 0848,-0.02726668,-0.87937717,-0.00000050,-0.00001333,0.00009878,0.0000
 0098,0.00022783,0.00017018,0.00000029,0.00001194,0.00001293,0.00000453
 ,-0.00027581,0.00062354,-0.00000057,-0.00000054,-0.00004408,-0.0000021
 3,-0.00007751,0.00007198,0.00001899,0.00064308,0.00055653,-0.00000093,
 -0.00003271,0.00007497,-0.00000065,0.00000265,-0.00005533,-0.00000018,
 -0.00000023,0.00000129,-0.01264470,1.11156447,1.20381829,-0.00002455,0
 .00000348,0.00018507,-0.00012399,0.00036383,-0.00018470,0.00000958,0.0
 0001616,0.00002462,0.00005086,-0.00008223,0.00011434,-0.00000488,-0.00
 000596,-0.00006244,-0.00010753,-0.00034126,-0.00011728,0.00075644,0.00
 060265,-0.00134414,-0.00004239,-0.00001450,0.00020139,0.00000059,-0.00
 002222,-0.00006882,0.00000298,-0.00000458,0.00002225,-1.81367811,0.760
 65239,1.73261096,1.87868497,0.00003802,-0.00001782,0.00004303,-0.00004
 752,0.00004483,0.00005977,-0.00000292,-0.00000085,0.00000255,-0.000067
 12,-0.00003263,0.00008968,0.00001700,-0.00002719,0.00000329,0.00007274
 ,-0.00000722,0.00004894,0.00008377,0.00041680,-0.00000325,-0.00001784,
 -0.00002843,-0.00000078,-0.00000432,-0.00001145,-0.00000797,0.00000169
 ,-0.00000439,-0.00000045,0.79804574,0.42659399,-0.57801645,-0.78049657
 ,-0.46113884,-0.00002896,0.00000224,0.00004140,0.00001966,0.00008558,-
 0.00006569,0.00000238,0.00000500,0.00001366,-0.00033547,0.00006725,0.0
 0007561,-0.00000050,-0.00001372,0.00003621,-0.00001442,-0.00015905,-0.
 00005093,0.00087715,-0.00036625,-0.00076760,0.00002116,0.00001011,0.00
 005566,0.00000968,0.00000774,0.00001927,0.00000280,-0.00000729,0.00001
 217,1.81199285,-0.57774433,-0.63681397,-1.77295984,0.57889148,0.603203
 65,-0.00002892,-0.00000377,-0.00018497,-0.00012397,-0.00036006,0.00018
 635,0.00000910,-0.00001595,-0.00002442,0.00005558,0.00008127,-0.000113
 30,-0.00000455,0.00000562,0.00006302,-0.00010354,0.00033976,0.00011881
 ,0.00075371,-0.00061092,0.00131873,-0.00004202,0.00001512,-0.00020049,
 0.00000162,0.00002178,0.00006896,0.00000271,0.00000424,-0.00002206,-1.
 91148666,-0.73338051,-1.71998610,-0.06552394,-0.01762268,-0.03958648,1
 .97649086,-0.00003677,-0.00001731,0.00004594,0.00005185,0.00005042,0.0
 0005561,0.00000283,-0.00000052,0.00000295,0.00006552,-0.00003587,0.000
 09048,-0.00001718,-0.00002671,0.00000212,-0.00006987,-0.00001194,0.000
 04732,-0.00008737,0.00042945,-0.00002495,0.00001785,-0.00002878,0.0000
 0271,0.00000404,-0.00001179,-0.00000900,-0.00000182,-0.00000439,-0.000
 00003,-0.77078400,0.45337406,-0.53403340,0.01932882,0.03421321,-0.0007
 7877,0.75152610,-0.48792982,0.00003000,0.00000177,0.00004440,-0.000016
 20,0.00009269,-0.00006882,-0.00000239,0.00000537,0.00001419,0.00033575
 ,0.00006075,0.00007170,0.00000087,-0.00001400,0.00003494,0.00001453,-0
 .00016590,-0.00005420,-0.00090632,-0.00033986,-0.00078530,-0.00001973,
 0.00001023,0.00006012,-0.00000918,0.00000758,0.00001832,-0.00000259,-0
 .00000720,0.00001260,-1.79936529,-0.53314060,-0.56851511,0.04157858,-0
 .00110984,0.03424057,1.75836195,0.53459900,0.53492658,-0.00004279,-0.0
 0001583,-0.00006450,-0.00003662,0.00022002,-0.00014651,-0.00020732,0.0
 0000305,0.00002206,0.00055891,0.00000658,0.00019078,-0.00015813,0.0000
 0151,-0.00031134,0.00001937,-0.00006344,-0.00009189,-0.00001585,0.0001
 1229,0.00027352,0.00011797,0.00000431,0.00000168,0.00000674,0.00000010
 ,0.00000005,-0.00011013,0.00000592,0.00015791,-0.00015396,-0.00000064,
 0.00000490,0.00001162,-0.00000370,-0.00008900,-0.00001234,-0.00017553,
 0.00025216,0.00000161,0.00005920,-0.00004643,0.00000272,0.00006982,-0.
 00012773,0.00010169,0.00000144,0.00000391,-0.00039533,-0.00000803,0.00
 000355,-0.00001840,0.00000036,0.00000035,0.00119073,0.00000701,-0.0000
 3388,0.00023840,-0.00000853,0.00047054,-0.00026104,-0.00000085,-0.0000
 1488,-0.00000372,0.00000893,-0.00088882,-0.00000896,0.00013115,0.00003
 223,0.00000597,-0.00007370,-0.00031683,0.00000145,-0.00000023,-0.00000
 862,-0.00000930,-0.00013054,0.00060721,0.00001644,0.00000024,-0.000002
 79,-0.00005389,0.00000398,0.00000182,0.00000940,0.00000047,0.00000164,
 0.00003959,0.00000347,0.00000024,0.00000909,-0.00000206,-0.00001859,0.
 00000910,0.00000847,0.00010818,0.00000051,-0.00000106,-0.00000228,-0.0
 0002425,0.00000140,0.00000862,-0.00002496,-0.00000405,-0.00008641,0.00
 000192,0.00001905,0.00003493,0.00000440,0.00002147,0.00009364,-0.00000
 069,-0.00001423,-0.00001629,0.00000092,-0.00007871,-0.00000443,-0.0000
 0364,0.00003443,-0.00011140,-0.00000817,-0.00001460,-0.00001811,-0.000
 04879,0.00000342,-0.00000154,0.00000752,-0.00000106,0.00000005,-0.0002
 1669,-0.00001467,-0.00001315,0.00002318,0.00000112,0.00000118,0.000340
 22,-0.00000204,-0.00009155,-0.00014352,0.00000247,-0.00031184,0.000155
 04,0.00000013,0.00001858,0.00000184,-0.00000844,0.00057465,0.00022488,
 -0.00000311,-0.00000017,-0.00000041,0.00001880,-0.00019434,0.00000269,
 -0.00002069,-0.00021753,-0.00000079,-0.00014098,0.00027511,0.00000205,
 0.00000451,-0.00001993,-0.00002152,0.00042183,-0.00024665,-0.00000011,
 0.00000827,0.00000238,0.00003093,-0.00039123,0.00033767,0.00005636,-0.
 00000320,-0.00000074,-0.00021692,0.00000302,-0.00000203,-0.00000828,0.
 00000022,0.00000027,-0.00082493,0.00000356,0.00002834,-0.00003070,0.00
 000032,-0.00000071,-0.00007757,0.00000013,-0.00000298,0.00266278,-0.00
 000103,-0.00002733,-0.00003745,0.00000177,0.00000643,0.00004998,0.0000
 0017,0.00000650,0.00001141,0.00000602,-0.00036431,0.00001080,-0.000000
 20,0.00000686,0.00000918,0.00000076,0.00002925,-0.00007189,-0.00000626
 ,0.00106117,0.00000221,-0.00003587,0.00011098,0.00000089,0.00018184,-0
 .00000337,-0.00000030,-0.00000059,0.00001632,0.00002178,-0.00004218,0.
 00014471,-0.00000077,-0.00001062,-0.00002609,-0.00000279,-0.00021642,-
 0.00006075,-0.00004081,0.00035757,-0.00130088,0.00002973,0.00002309,0.
 00003619,0.00012953,-0.00000924,-0.00000265,-0.00002415,-0.00000095,0.
 00000670,-0.00010608,0.00000203,-0.00000310,-0.00001429,-0.00000424,-0
 .00000374,0.00004195,-0.00000243,-0.00001021,-0.00003477,-0.00000212,0
 .00000148,-0.00022674,-0.00000158,-0.00010979,0.00008477,-0.00000523,-
 0.00015734,0.00004126,0.00000019,-0.00004315,0.00007031,-0.00000009,0.
 00001249,-0.00018681,-0.00000137,-0.00001285,0.00000640,0.00000874,0.0
 0011941,0.00006513,0.00000049,-0.00002782,0.00004309,0.00000250,0.0000
 2155,0.00003519,-0.00003322,0.00013881,-0.00001768,0.00013069,-0.00022
 435,-0.00000647,0.00008400,-0.00005079,0.00000115,-0.00030957,0.000035
 76,0.00000359,-0.00000839,0.00001239,-0.00000300,0.00018318,-0.0001388
 6,0.00000248,0.00003340,0.00011884,-0.00002130,-0.00015279,-0.00005752
 ,-0.00001612,0.00000284,0.00000262,0.00004092,0.00000075,-0.00000173,0
 .00000395,0.00000003,-0.00000027,0.00000404,-0.00000390,0.00000281,-0.
 00000641,-0.00000070,0.00000019,-0.00012658,-0.00000307,-0.00000335,-0
 .00000289,-0.00000080,-0.00000042,0.00002438,-0.00000066,0.00000214,0.
 00008631,0.00000522,-0.00000609,0.00000084,-0.00000225,0.00001257,-0.0
 0001398,-0.00000044,-0.00000149,-0.00000024,-0.00000035,0.00004837,0.0
 0004254,0.00000033,-0.00000164,0.00000359,-0.00000839,-0.00004519,0.00
 008487,-0.00000044,-0.00000369,0.00001231,-0.00000184,0.00003579,-0.00
 006519,0.00000696,-0.00003572,-0.00000455,-0.00002010,0.00001046,0.000
 00042,0.00000233,-0.00000405,0.00000028,-0.00000007,0.00000166,0.00000
 165,0.00009072,0.00000135,-0.00000015,-0.00000530,0.00000783,0.0000059
 0,0.00009240,0.00001463,-0.00000089,-0.00002357,-0.00002165,0.00000103
 ,-0.00005853,0.00004406,-0.00000225,-0.00005690,-0.00002872,-0.0000426
 2,-0.00000178,-0.00000752,-0.00000423,0.00000059,-0.00000033,0.0000178
 0,-0.00000067,-0.00000068,0.00000222,0.00000252,0.00000089,0.00000522,
 0.00000065,0.00000013,0.00000214,-0.00000202,0.00000264,-0.00001004,-0
 .00000008,-0.00000044,0.00009799,-0.00000274,0.00000457,-0.00000678,0.
 00000117,-0.00000116,-0.00005663,-0.00000241,-0.00003565,-0.00004421,0
 .00000117,0.00003378,-0.00001008,0.00000115,-0.00004030,-0.00000825,-0
 .00000074,-0.00002273,-0.00000743,0.00000016,-0.00000259,-0.00000285,0
 .00000653,-0.00001076,-0.00000718,0.00000003,0.00001591,0.00000297,-0.
 00000668,0.00012743,0.00010475,-0.00000161,-0.00000265,0.00000568,0.00
 000225,-0.00006399,0.00000146,-0.00005281,-0.00003525,0.00000021,-0.00
 000263,-0.00001761,-0.00000068,-0.00000130,0.00001180,0.00000038,0.000
 01822,-0.00001874,0.00000006,-0.00000090,0.00000002,-0.00000089,-0.000
 03280,-0.00002455,-0.00000022,-0.00001982,0.00001522,-0.00000277,0.000
 12290,0.00016798,0.00000063,0.00000855,0.00000634,0.00000192,-0.000039
 82,-0.00008128,-0.00006781,0.00000154,0.00000148,0.00065463,-0.0000042
 3,-0.00000454,-0.00004067,0.00000016,0.00000037,0.00010093,0.00000386,
 0.00000177,-0.00002275,0.00000076,-0.00000037,0.00019150,-0.00000332,-
 0.00000179,-0.00281981,0.00000149,0.00002642,0.00031314,-0.00000163,-0
 .00000073,-0.00000661,0.00000079,0.,-0.00003315,0.00000043,0.00000031,
 3.64305052,0.00000105,0.00009624,-0.00009559,-0.00000684,0.00002064,-0
 .00013358,0.00000054,0.00002112,0.00001819,0.00000081,0.00034537,-0.00
 021879,0.00000049,0.00009265,-0.00005065,-0.00000226,-0.00028115,0.000
 03387,-0.00000461,-0.00183928,-0.00068297,-0.00000110,0.00012295,0.000
 17617,0.00000046,0.00003897,-0.00002503,0.00000038,0.00000857,0.000011
 24,-0.02831520,-0.97251055,0.00000043,-0.00001766,-0.00008194,-0.00000
 638,-0.00012748,0.00007119,0.00000014,0.00000104,-0.00000720,0.0000036
 1,0.00020950,0.00035733,0.00000028,0.00002154,-0.00003832,0.00000086,0
 .00016036,0.00002692,0.00002492,-0.00007921,0.00070575,-0.00000496,0.0
 0000180,-0.00012843,-0.00000058,-0.00000366,-0.00001937,0.00000019,-0.
 00001321,-0.00001256,-0.01440212,1.24919903,1.36629217,0.00003206,-0.0
 0000597,0.00002941,-0.00023108,0.00012652,-0.00002074,0.00001899,0.000
 01514,0.00001272,0.00005928,-0.00002408,-0.00027225,0.00001216,0.00000
 150,-0.00001130,-0.00006433,-0.00015620,-0.00000726,0.00065784,0.00039
 702,-0.00005776,-0.00011476,0.00000582,0.00007603,0.00000214,-0.000013
 92,-0.00004264,0.00001378,-0.00000975,-0.00000303,-1.77105361,0.832992
 16,1.89824629,1.76282593,0.00001232,-0.00002861,0.00004005,0.00003557,
 -0.00003475,0.00005574,-0.00001073,-0.00000912,-0.00000943,0.00007582,
 -0.00006760,0.00011940,-0.00002152,-0.00004585,0.00002678,0.00006554,0
 .00009700,0.00000637,-0.00023639,0.00056614,0.00019834,0.00002937,-0.0
 0004452,-0.00007213,-0.00001105,-0.00001940,-0.00000049,-0.00000788,-0
 .00000340,-0.00000532,0.83428704,0.47331900,-0.64927466,-0.83371196,-0
 .47130741,-0.00002894,0.00002487,-0.00000297,0.00007432,-0.00000351,-0
 .00000527,-0.00001341,-0.00000031,-0.00000248,-0.00023642,-0.00007472,
 -0.00028589,-0.00003719,0.00000059,0.00002310,-0.00002498,-0.00001564,
 0.00002585,0.00066786,-0.00012950,0.00014718,0.00006627,-0.00001954,0.
 00003999,-0.00002168,-0.00000615,-0.00000589,-0.00001198,0.00000995,-0
 .00000553,1.89769485,-0.64869485,-0.72108664,-1.89800714,0.64582389,0.
 71756991,0.00003054,0.00000488,-0.00003156,-0.00023314,-0.00012498,0.0
 0002460,0.00001925,-0.00001528,-0.00001313,0.00006294,0.00002065,0.000
 26530,0.00001298,-0.00000209,0.00001171,-0.00006440,0.00015910,0.00000
 969,0.00064893,-0.00039673,0.00005051,-0.00011589,-0.00000443,-0.00007
 599,0.00000365,0.00001315,0.00004237,0.00001429,0.00000945,0.00000262,
 -1.87026632,-0.80466589,-1.88386267,0.00784159,-0.00050614,-0.00012157
 ,1.86204559,-0.00001316,-0.00002887,0.00003952,-0.00003052,-0.00003261
 ,0.00005579,0.00001020,-0.00000883,-0.00000936,-0.00007714,-0.00006779
 ,0.00011370,0.00002111,-0.00004598,0.00002594,-0.00006394,0.00009590,0
 .00000706,0.00024311,0.00057017,0.00019251,-0.00002838,-0.00004382,-0.
 00007073,0.00001076,-0.00001984,-0.00000118,0.00000761,-0.00000366,-0.
 00000549,-0.80597167,0.50056549,-0.60007739,0.00038372,-0.00242147,0.0
 0308493,0.80550830,-0.49855868,0.00002813,0.00002420,-0.00000340,-0.00
 006918,-0.00000143,-0.00000365,0.00001319,-0.00000028,-0.00000248,0.00
 022995,-0.00007817,-0.00029744,0.00003701,0.,0.00002219,0.00002552,-0.
 00001753,0.00002569,-0.00067550,-0.00011089,0.00015374,-0.00006294,-0.
 00001816,0.00004205,0.00002189,-0.00000656,-0.00000662,0.00001177,0.00
 000969,-0.00000582,-1.88331563,-0.59953704,-0.64607887,0.00005766,0.00
 309147,0.00358864,1.88369812,0.59664470,0.64256596\\@
 The archive entry for this job was punched.


 In the beginning there was nothing, which exploded.
 Job cpu time:       9 days  7 hours 17 minutes  8.2 seconds.
 Elapsed time:       0 days  5 hours 37 minutes 36.4 seconds.
 File lengths (MBytes):  RWF=   7143 Int=      0 D2E=      0 Chk=     49 Scr=      1
 Normal termination of Gaussian 16 at Tue Apr  8 23:20:28 2025.
