 Entering Gaussian System, Link 0=g16
 Input=vinylaminec_nh3_mp2_avdz_opt_anharm.gjf
 Output=vinylaminec_nh3_mp2_avdz_opt_anharm.log
 Initial command:
 /sw/contrib/chem-src/g16/c01/g16/l1.exe "/scr/Gau-29686.inp" -scrdir="/scr/"
 Entering Link 1 = /sw/contrib/chem-src/g16/c01/g16/l1.exe PID=     31321.
  
 Copyright (c) 1988-2019, Gaussian, Inc.  All Rights Reserved.
  
 This is part of the Gaussian(R) 16 program.  It is based on
 the Gaussian(R) 09 system (copyright 2009, Gaussian, Inc.),
 the Gaussian(R) 03 system (copyright 2003, Gaussian, Inc.),
 the Gaussian(R) 98 system (copyright 1998, Gaussian, Inc.),
 the Gaussian(R) 94 system (copyright 1995, Gaussian, Inc.),
 the Gaussian 92(TM) system (copyright 1992, Gaussian, Inc.),
 the Gaussian 90(TM) system (copyright 1990, Gaussian, Inc.),
 the Gaussian 88(TM) system (copyright 1988, Gaussian, Inc.),
 the Gaussian 86(TM) system (copyright 1986, Carnegie Mellon
 University), and the Gaussian 82(TM) system (copyright 1983,
 Carnegie Mellon University). Gaussian is a federally registered
 trademark of Gaussian, Inc.
  
 This software contains proprietary and confidential information,
 including trade secrets, belonging to Gaussian, Inc.
  
 This software is provided under written license and may be
 used, copied, transmitted, or stored only in accord with that
 written license.
  
 The following legend is applicable only to US Government
 contracts under FAR:
  
                    RESTRICTED RIGHTS LEGEND
  
 Use, reproduction and disclosure by the US Government is
 subject to restrictions as set forth in subparagraphs (a)
 and (c) of the Commercial Computer Software - Restricted
 Rights clause in FAR 52.227-19.
  
 Gaussian, Inc.
 340 Quinnipiac St., Bldg. 40, Wallingford CT 06492
  
  
 ---------------------------------------------------------------
 Warning -- This program may not be used in any manner that
 competes with the business of Gaussian, Inc. or will provide
 assistance to any competitor of Gaussian, Inc.  The licensee
 of this program is prohibited from giving any competitor of
 Gaussian, Inc. access to this program.  By using this program,
 the user acknowledges that Gaussian, Inc. is engaged in the
 business of creating and licensing software in the field of
 computational chemistry and represents and warrants to the
 licensee that it is not a competitor of Gaussian, Inc. and that
 it will not use this program in any manner prohibited above.
 ---------------------------------------------------------------
  

 Cite this work as:
 Gaussian 16, Revision C.01,
 M. J. Frisch, G. W. Trucks, H. B. Schlegel, G. E. Scuseria, 
 M. A. Robb, J. R. Cheeseman, G. Scalmani, V. Barone, 
 G. A. Petersson, H. Nakatsuji, X. Li, M. Caricato, A. V. Marenich, 
 J. Bloino, B. G. Janesko, R. Gomperts, B. Mennucci, H. P. Hratchian, 
 J. V. Ortiz, A. F. Izmaylov, J. L. Sonnenberg, D. Williams-Young, 
 F. Ding, F. Lipparini, F. Egidi, J. Goings, B. Peng, A. Petrone, 
 T. Henderson, D. Ranasinghe, V. G. Zakrzewski, J. Gao, N. Rega, 
 G. Zheng, W. Liang, M. Hada, M. Ehara, K. Toyota, R. Fukuda, 
 J. Hasegawa, M. Ishida, T. Nakajima, Y. Honda, O. Kitao, H. Nakai, 
 T. Vreven, K. Throssell, J. A. Montgomery, Jr., J. E. Peralta, 
 F. Ogliaro, M. J. Bearpark, J. J. Heyd, E. N. Brothers, K. N. Kudin, 
 V. N. Staroverov, T. A. Keith, R. Kobayashi, J. Normand, 
 K. Raghavachari, A. P. Rendell, J. C. Burant, S. S. Iyengar, 
 J. Tomasi, M. Cossi, J. M. Millam, M. Klene, C. Adamo, R. Cammi, 
 J. W. Ochterski, R. L. Martin, K. Morokuma, O. Farkas, 
 J. B. Foresman, and D. J. Fox, Gaussian, Inc., Wallingford CT, 2019.
 
 ******************************************
 Gaussian 16:  EM64L-G16RevC.01  3-Jul-2019
                 4-Apr-2025 
 ******************************************
 %nprocshared=24
 Will use up to   24 processors via shared memory.
 %mem=50gb
 ----------------------------------------------
 # MP2/aug-cc-pVDZ opt freq=(vibrot,anharmonic)
 ----------------------------------------------
 1/18=20,19=15,38=1,80=1/1,3;
 2/9=110,12=2,17=6,18=5,40=1/2;
 3/5=16,7=10,11=9,25=1,30=1,71=1/1,2,3;
 4//1;
 5/5=2,38=5/2;
 8/6=4,10=1/1;
 9/15=2,16=-3/6;
 10/5=1/2;
 6/7=2,8=2,9=2,10=2/1;
 7/12=2/1,2,3,16;
 1/18=20,19=15,80=1/3(2);
 2/9=110/2;
 99//99;
 2/9=110/2;
 3/5=16,7=10,11=9,25=1,30=1,71=1/1,2,3;
 4/5=5,16=3,69=1/1;
 5/5=2,38=5/2;
 8/6=4,10=1/1;
 9/15=2,16=-3/6;
 10/5=1/2;
 7/12=2/1,2,3,16;
 1/18=20,19=15,80=1/3(-8);
 2/9=110/2;
 6/7=2,8=2,9=2,10=2/1;
 99/9=10/99;
 ----
 blah
 ----
 Symbolic Z-matrix:
 Charge =  0 Multiplicity = 1
 C                    -0.58099   0.08254  -0.39309 
 C                    -0.02217  -1.12316  -0.49824 
 H                    -0.29974   0.76544   0.40023 
 H                    -1.3332    0.40845  -1.10261 
 N                     0.92148  -1.63755   0.32262 
 H                    -0.31826  -1.79448  -1.30218 
 H                     1.2814   -1.09733   1.11904 
 H                     1.294    -2.56539   0.17129 
 N                     2.03906  -0.19367   2.64141 
 H                     2.42586   0.68686   2.29702 
 H                     1.25754   0.07024   3.24402 
 H                     2.74866  -0.57286   3.26997 
 
 Add virtual bond connecting atoms N9         and H7         Dist= 3.64D+00.

 GradGradGradGradGradGradGradGradGradGradGradGradGradGradGradGradGradGrad
 Berny optimization.
 Initialization pass.
                           ----------------------------
                           !    Initial Parameters    !
                           ! (Angstroms and Degrees)  !
 --------------------------                            --------------------------
 ! Name  Definition              Value          Derivative Info.                !
 --------------------------------------------------------------------------------
 ! R1    R(1,2)                  1.3331         estimate D2E/DX2                !
 ! R2    R(1,3)                  1.0839         estimate D2E/DX2                !
 ! R3    R(1,4)                  1.0842         estimate D2E/DX2                !
 ! R4    R(2,5)                  1.3524         estimate D2E/DX2                !
 ! R5    R(2,6)                  1.0884         estimate D2E/DX2                !
 ! R6    R(5,7)                  1.0274         estimate D2E/DX2                !
 ! R7    R(5,8)                  1.0112         estimate D2E/DX2                !
 ! R8    R(7,9)                  1.9257         estimate D2E/DX2                !
 ! R9    R(9,10)                 1.0215         estimate D2E/DX2                !
 ! R10   R(9,11)                 1.0215         estimate D2E/DX2                !
 ! R11   R(9,12)                 1.021          estimate D2E/DX2                !
 ! A1    A(2,1,3)              121.2524         estimate D2E/DX2                !
 ! A2    A(2,1,4)              120.738          estimate D2E/DX2                !
 ! A3    A(3,1,4)              118.0095         estimate D2E/DX2                !
 ! A4    A(1,2,5)              126.062          estimate D2E/DX2                !
 ! A5    A(1,2,6)              120.1374         estimate D2E/DX2                !
 ! A6    A(5,2,6)              113.8006         estimate D2E/DX2                !
 ! A7    A(2,5,7)              120.9934         estimate D2E/DX2                !
 ! A8    A(2,5,8)              121.0121         estimate D2E/DX2                !
 ! A9    A(7,5,8)              117.9945         estimate D2E/DX2                !
 ! A10   A(7,9,10)             106.6756         estimate D2E/DX2                !
 ! A11   A(7,9,11)             106.6534         estimate D2E/DX2                !
 ! A12   A(7,9,12)             125.8645         estimate D2E/DX2                !
 ! A13   A(10,9,11)            105.4188         estimate D2E/DX2                !
 ! A14   A(10,9,12)            105.338          estimate D2E/DX2                !
 ! A15   A(11,9,12)            105.3364         estimate D2E/DX2                !
 ! A16   L(5,7,9,3,-1)         184.1694         estimate D2E/DX2                !
 ! A17   L(5,7,9,3,-2)         180.0157         estimate D2E/DX2                !
 ! D1    D(3,1,2,5)              0.0006         estimate D2E/DX2                !
 ! D2    D(3,1,2,6)           -179.9998         estimate D2E/DX2                !
 ! D3    D(4,1,2,5)           -179.9996         estimate D2E/DX2                !
 ! D4    D(4,1,2,6)              0.0            estimate D2E/DX2                !
 ! D5    D(1,2,5,7)              0.0052         estimate D2E/DX2                !
 ! D6    D(1,2,5,8)            179.9921         estimate D2E/DX2                !
 ! D7    D(6,2,5,7)           -179.9944         estimate D2E/DX2                !
 ! D8    D(6,2,5,8)             -0.0075         estimate D2E/DX2                !
 ! D9    D(2,5,9,10)           -56.7635         estimate D2E/DX2                !
 ! D10   D(2,5,9,11)            56.2679         estimate D2E/DX2                !
 ! D11   D(2,5,9,12)           179.7496         estimate D2E/DX2                !
 ! D12   D(8,5,9,10)           123.2375         estimate D2E/DX2                !
 ! D13   D(8,5,9,11)          -123.7311         estimate D2E/DX2                !
 ! D14   D(8,5,9,12)            -0.2493         estimate D2E/DX2                !
 --------------------------------------------------------------------------------
 Trust Radius=3.00D-01 FncErr=1.00D-07 GrdErr=1.00D-07 EigMax=2.50D+02 EigMin=1.00D-04
 Number of steps in this run=     52 maximum allowed number of steps=    100.
 GradGradGradGradGradGradGradGradGradGradGradGradGradGradGradGradGradGrad

                          Input orientation:                          
 ---------------------------------------------------------------------
 Center     Atomic      Atomic             Coordinates (Angstroms)
 Number     Number       Type             X           Y           Z
 ---------------------------------------------------------------------
      1          6           0       -0.580987    0.082535   -0.393093
      2          6           0       -0.022168   -1.123157   -0.498237
      3          1           0       -0.299737    0.765440    0.400230
      4          1           0       -1.333197    0.408448   -1.102607
      5          7           0        0.921484   -1.637548    0.322620
      6          1           0       -0.318259   -1.794477   -1.302182
      7          1           0        1.281400   -1.097335    1.119036
      8          1           0        1.293996   -2.565390    0.171293
      9          7           0        2.039057   -0.193668    2.641406
     10          1           0        2.425863    0.686862    2.297019
     11          1           0        1.257541    0.070235    3.244017
     12          1           0        2.748660   -0.572861    3.269973
 ---------------------------------------------------------------------
                    Distance matrix (angstroms):
                    1          2          3          4          5
     1  C    0.000000
     2  C    1.333052   0.000000
     3  H    1.083891   2.109760   0.000000
     4  H    1.084182   2.104727   1.858495   0.000000
     5  N    2.393397   1.352362   2.696619   3.361690   0.000000
     6  H    2.102057   1.088424   3.074365   2.433682   2.049773
     7  H    2.673407   2.077385   2.546881   3.746891   1.027447
     8  H    3.293265   2.064120   3.699571   4.167574   1.011215
     9  N    4.018594   3.869104   3.378272   5.074671   2.951361
    10  H    4.079590   4.133096   3.321578   5.075973   3.400631
    11  H    4.075402   4.131139   3.315954   5.071435   3.400591
    12  H    4.993410   4.709536   4.395361   6.061682   3.627537
                    6          7          8          9         10
     6  H    0.000000
     7  H    2.984495   0.000000
     8  H    2.316203   1.747444   0.000000
     9  N    4.865328   1.925687   3.504517   0.000000
    10  H    5.161540   2.425036   4.046848   1.021545   0.000000
    11  H    5.160254   2.424734   4.048393   1.021544   1.625426
    12  H    5.639409   2.656023   3.960813   1.020989   1.624112
                   11         12
    11  H    0.000000
    12  H    1.624094   0.000000
 Stoichiometry    C2H8N2
 Framework group  C1[X(C2H8N2)]
 Deg. of freedom    30
 Full point group                 C1      NOp   1
 Largest Abelian subgroup         C1      NOp   1
 Largest concise Abelian subgroup C1      NOp   1
                         Standard orientation:                         
 ---------------------------------------------------------------------
 Center     Atomic      Atomic             Coordinates (Angstroms)
 Number     Number       Type             X           Y           Z
 ---------------------------------------------------------------------
      1          6           0       -1.544828   -1.020059   -0.000013
      2          6           0       -1.432401    0.308244    0.000032
      3          1           0       -0.668947   -1.658537   -0.000109
      4          1           0       -2.520111   -1.493633    0.000051
      5          7           0       -0.275933    1.009289   -0.000045
      6          1           0       -2.324254    0.932154    0.000132
      7          1           0        0.633073    0.530378   -0.000228
      8          1           0       -0.279674    2.020497   -0.000122
      9          7           0        2.397523   -0.240975   -0.000050
     10          1           0        2.449096   -0.854629    0.815011
     11          1           0        2.446025   -0.861083   -0.810399
     12          1           0        3.277033    0.277550   -0.003787
 ---------------------------------------------------------------------
 Rotational constants (GHZ):          12.0717103           2.9436871           2.3964745
 Standard basis: Aug-CC-pVDZ (5D, 7F)
 There are   172 symmetry adapted cartesian basis functions of A   symmetry.
 There are   164 symmetry adapted basis functions of A   symmetry.
   164 basis functions,   260 primitive gaussians,   172 cartesian basis functions
    17 alpha electrons       17 beta electrons
       nuclear repulsion energy       119.2371530430 Hartrees.
 NAtoms=   12 NActive=   12 NUniq=   12 SFac= 1.00D+00 NAtFMM=   60 NAOKFM=F Big=F
 Integral buffers will be    131072 words long.
 Raffenetti 1 integral format.
 Two-electron integral symmetry is turned on.
 One-electron integrals computed using PRISM.
 NBasis=   164 RedAO= T EigKep=  3.94D-05  NBF=   164
 NBsUse=   164 1.00D-06 EigRej= -1.00D+00 NBFU=   164
 ExpMin= 2.97D-02 ExpMax= 9.05D+03 ExpMxC= 3.09D+02 IAcc=3 IRadAn=         5 AccDes= 0.00D+00
 Harris functional with IExCor=  205 and IRadAn=       5 diagonalized for initial guess.
 HarFok:  IExCor=  205 AccDes= 0.00D+00 IRadAn=         5 IDoV= 1 UseB2=F ITyADJ=14
 ICtDFT=  3500011 ScaDFX=  1.000000  1.000000  1.000000  1.000000
 FoFCou: FMM=F IPFlag=           0 FMFlag=      100000 FMFlg1=           0
         NFxFlg=           0 DoJE=T BraDBF=F KetDBF=T FulRan=T
         wScrn=  0.000000 ICntrl=       500 IOpCl=  0 I1Cent=   200000004 NGrid=           0
         NMat0=    1 NMatS0=      1 NMatT0=    0 NMatD0=    1 NMtDS0=    0 NMtDT0=    0
 Petite list used in FoFCou.
 Keep R1 ints in memory in canonical form, NReq=96854696.
 Requested convergence on RMS density matrix=1.00D-08 within 128 cycles.
 Requested convergence on MAX density matrix=1.00D-06.
 Requested convergence on             energy=1.00D-06.
 No special actions if energy rises.
 SCF Done:  E(RHF) =  -189.293425951     A.U. after   13 cycles
            NFock= 13  Conv=0.46D-08     -V/T= 2.0014
 ExpMin= 2.97D-02 ExpMax= 9.05D+03 ExpMxC= 3.09D+02 IAcc=3 IRadAn=         5 AccDes= 0.00D+00
 HarFok:  IExCor=  205 AccDes= 0.00D+00 IRadAn=         5 IDoV=-2 UseB2=F ITyADJ=14
 ICtDFT= 12500011 ScaDFX=  1.000000  1.000000  1.000000  1.000000
 Range of M.O.s used for correlation:     5   164
 NBasis=   164 NAE=    17 NBE=    17 NFC=     4 NFV=     0
 NROrb=    160 NOA=    13 NOB=    13 NVA=   147 NVB=   147

 **** Warning!!: The largest alpha MO coefficient is  0.45430734D+02

 Fully direct method using O(ONN) memory.
 JobTyp=1 Pass  1:  I=   5 to  17 NPSUse= 24 ParTrn=T ParDer=T DoDerP=T.
 Spin components of T(2) and E(2):
     alpha-alpha T2 =       0.2795330839D-01 E2=     -0.8075759543D-01
     alpha-beta  T2 =       0.1685056066D+00 E2=     -0.5075680817D+00
     beta-beta   T2 =       0.2795330839D-01 E2=     -0.8075759543D-01
 ANorm=    0.1106531619D+01
 E2 =    -0.6690832726D+00 EUMP2 =    -0.18996250922363D+03
          IDoAtm=111111111111
          Differentiating once with respect to electric field.
                with respect to dipole field.
          Differentiating once with respect to nuclear coordinates.
 Keep R1 ints in memory in canonical form, NReq=96861947.
          There are     1 degrees of freedom in the 1st order CPHF.  IDoFFX=0 NUNeed=     1.
 LinEq1:  Iter=  0 NonCon=     1 RMS=3.67D-03 Max=8.19D-02 NDo=     1
 AX will form     1 AO Fock derivatives at one time.
 LinEq1:  Iter=  1 NonCon=     1 RMS=6.45D-04 Max=5.24D-03 NDo=     1
 LinEq1:  Iter=  2 NonCon=     1 RMS=2.89D-04 Max=5.16D-03 NDo=     1
 LinEq1:  Iter=  3 NonCon=     1 RMS=4.83D-05 Max=3.09D-04 NDo=     1
 LinEq1:  Iter=  4 NonCon=     1 RMS=1.69D-05 Max=1.77D-04 NDo=     1
 LinEq1:  Iter=  5 NonCon=     1 RMS=5.09D-06 Max=1.05D-04 NDo=     1
 LinEq1:  Iter=  6 NonCon=     1 RMS=1.41D-06 Max=1.41D-05 NDo=     1
 LinEq1:  Iter=  7 NonCon=     1 RMS=5.20D-07 Max=9.39D-06 NDo=     1
 LinEq1:  Iter=  8 NonCon=     1 RMS=1.39D-07 Max=2.07D-06 NDo=     1
 LinEq1:  Iter=  9 NonCon=     1 RMS=3.65D-08 Max=5.14D-07 NDo=     1
 LinEq1:  Iter= 10 NonCon=     1 RMS=7.38D-09 Max=7.10D-08 NDo=     1
 LinEq1:  Iter= 11 NonCon=     1 RMS=1.54D-09 Max=1.53D-08 NDo=     1
 LinEq1:  Iter= 12 NonCon=     1 RMS=5.44D-10 Max=6.11D-09 NDo=     1
 LinEq1:  Iter= 13 NonCon=     1 RMS=1.05D-10 Max=1.15D-09 NDo=     1
 LinEq1:  Iter= 14 NonCon=     0 RMS=1.94D-11 Max=2.14D-10 NDo=     1
 Linear equations converged to 1.000D-10 1.000D-09 after    14 iterations.
 End of Minotr F.D. properties file   721 does not exist.
 End of Minotr F.D. properties file   722 does not exist.
 End of Minotr F.D. properties file   788 does not exist.

 **********************************************************************

            Population analysis using the SCF Density.

 **********************************************************************

 Orbital symmetries:
       Occupied  (A) (A) (A) (A) (A) (A) (A) (A) (A) (A) (A) (A)
                 (A) (A) (A) (A) (A)
       Virtual   (A) (A) (A) (A) (A) (A) (A) (A) (A) (A) (A) (A)
                 (A) (A) (A) (A) (A) (A) (A) (A) (A) (A) (A) (A)
                 (A) (A) (A) (A) (A) (A) (A) (A) (A) (A) (A) (A)
                 (A) (A) (A) (A) (A) (A) (A) (A) (A) (A) (A) (A)
                 (A) (A) (A) (A) (A) (A) (A) (A) (A) (A) (A) (A)
                 (A) (A) (A) (A) (A) (A) (A) (A) (A) (A) (A) (A)
                 (A) (A) (A) (A) (A) (A) (A) (A) (A) (A) (A) (A)
                 (A) (A) (A) (A) (A) (A) (A) (A) (A) (A) (A) (A)
                 (A) (A) (A) (A) (A) (A) (A) (A) (A) (A) (A) (A)
                 (A) (A) (A) (A) (A) (A) (A) (A) (A) (A) (A) (A)
                 (A) (A) (A) (A) (A) (A) (A) (A) (A) (A) (A) (A)
                 (A) (A) (A) (A) (A) (A) (A) (A) (A) (A) (A) (A)
                 (A) (A) (A)
 The electronic state is 1-A.
 Alpha  occ. eigenvalues --  -15.57648 -15.54074 -11.25821 -11.17909  -1.19479
 Alpha  occ. eigenvalues --   -1.16632  -0.97244  -0.77370  -0.68873  -0.64625
 Alpha  occ. eigenvalues --   -0.64591  -0.62409  -0.55051  -0.50259  -0.47566
 Alpha  occ. eigenvalues --   -0.45071  -0.28192
 Alpha virt. eigenvalues --    0.02824   0.04478   0.05049   0.05852   0.06424
 Alpha virt. eigenvalues --    0.06786   0.09211   0.09391   0.13107   0.14018
 Alpha virt. eigenvalues --    0.14332   0.16248   0.16499   0.17315   0.18311
 Alpha virt. eigenvalues --    0.19182   0.19402   0.20507   0.22234   0.22394
 Alpha virt. eigenvalues --    0.23625   0.25839   0.26017   0.27685   0.28096
 Alpha virt. eigenvalues --    0.30273   0.31318   0.33165   0.33962   0.35450
 Alpha virt. eigenvalues --    0.39134   0.40006   0.40779   0.41352   0.41751
 Alpha virt. eigenvalues --    0.44050   0.45379   0.47842   0.48643   0.49440
 Alpha virt. eigenvalues --    0.50853   0.51497   0.51725   0.53067   0.54529
 Alpha virt. eigenvalues --    0.54828   0.56822   0.57712   0.58167   0.61078
 Alpha virt. eigenvalues --    0.61565   0.62415   0.63496   0.66197   0.67211
 Alpha virt. eigenvalues --    0.67476   0.67918   0.69068   0.70100   0.70795
 Alpha virt. eigenvalues --    0.72097   0.72863   0.75774   0.77875   0.77890
 Alpha virt. eigenvalues --    0.80224   0.83498   0.87855   0.88608   0.89502
 Alpha virt. eigenvalues --    0.92728   0.94417   0.94804   0.95339   0.97201
 Alpha virt. eigenvalues --    1.02119   1.04461   1.04820   1.07694   1.07732
 Alpha virt. eigenvalues --    1.19402   1.20055   1.21359   1.22777   1.26518
 Alpha virt. eigenvalues --    1.32197   1.35209   1.44300   1.50357   1.56127
 Alpha virt. eigenvalues --    1.56398   1.59450   1.62251   1.62977   1.67291
 Alpha virt. eigenvalues --    1.71918   1.78802   1.80340   1.80407   1.82465
 Alpha virt. eigenvalues --    1.92132   1.92861   1.93497   1.95036   2.00596
 Alpha virt. eigenvalues --    2.04868   2.06924   2.09572   2.10258   2.13983
 Alpha virt. eigenvalues --    2.14618   2.16234   2.20109   2.21596   2.23249
 Alpha virt. eigenvalues --    2.24070   2.36393   2.36705   2.37967   2.38704
 Alpha virt. eigenvalues --    2.40604   2.42510   2.42561   2.44380   2.47482
 Alpha virt. eigenvalues --    2.47924   2.58014   2.60119   2.68832   2.71303
 Alpha virt. eigenvalues --    2.77623   2.80675   2.84607   2.84941   2.89023
 Alpha virt. eigenvalues --    2.89708   2.95026   3.00782   3.09309   3.10539
 Alpha virt. eigenvalues --    3.27847   3.33755   3.46938   3.52052   3.58187
 Alpha virt. eigenvalues --    3.75911   3.87815
          Condensed to atoms (all electrons):
               1          2          3          4          5          6
     1  C    4.804847   0.449396   0.163537   0.242877  -0.134934  -0.075410
     2  C    0.449396   4.553011   0.088054  -0.021963   0.224585   0.123682
     3  H    0.163537   0.088054   1.455150  -0.340056  -0.102614   0.085796
     4  H    0.242877  -0.021963  -0.340056   1.502252   0.036818  -0.108218
     5  N   -0.134934   0.224585  -0.102614   0.036818   6.538342  -0.110295
     6  H   -0.075410   0.123682   0.085796  -0.108218  -0.110295   1.443253
     7  H    0.015779  -0.159401   0.032621  -0.004380   0.407002   0.050627
     8  H    0.003312  -0.105041  -0.013883   0.002686   0.447299  -0.042543
     9  N   -0.036262   0.075056   0.010877  -0.002689  -0.100213   0.002182
    10  H   -0.002910   0.001895  -0.001693   0.000615  -0.002419  -0.000678
    11  H   -0.002948   0.001998  -0.001728   0.000629  -0.002468  -0.000684
    12  H    0.001126   0.000791   0.001661  -0.000463  -0.000575   0.000871
               7          8          9         10         11         12
     1  C    0.015779   0.003312  -0.036262  -0.002910  -0.002948   0.001126
     2  C   -0.159401  -0.105041   0.075056   0.001895   0.001998   0.000791
     3  H    0.032621  -0.013883   0.010877  -0.001693  -0.001728   0.001661
     4  H   -0.004380   0.002686  -0.002689   0.000615   0.000629  -0.000463
     5  N    0.407002   0.447299  -0.100213  -0.002419  -0.002468  -0.000575
     6  H    0.050627  -0.042543   0.002182  -0.000678  -0.000684   0.000871
     7  H    1.021143  -0.281350  -0.129286  -0.008542  -0.008550   0.001317
     8  H   -0.281350   1.009713   0.013686  -0.000155  -0.000163  -0.000505
     9  N   -0.129286   0.013686   6.192741   0.419559   0.419439   0.391126
    10  H   -0.008542  -0.000155   0.419559   0.697306  -0.069059  -0.084915
    11  H   -0.008550  -0.000163   0.419439  -0.069059   0.697973  -0.085191
    12  H    0.001317  -0.000505   0.391126  -0.084915  -0.085191   0.734836
 Mulliken charges:
               1
     1  C    0.571589
     2  C    0.767936
     3  H   -0.377721
     4  H   -0.308110
     5  N   -0.200530
     6  H   -0.368581
     7  H    0.063019
     8  H   -0.033056
     9  N   -0.256218
    10  H    0.050996
    11  H    0.050754
    12  H    0.039921
 Sum of Mulliken charges =  -0.00000
 Mulliken charges with hydrogens summed into heavy atoms:
               1
     1  C   -0.114242
     2  C    0.399355
     5  N   -0.170566
     9  N   -0.114546
 Electronic spatial extent (au):  <R**2>=            519.4194
 Charge=             -0.0000 electrons
 Dipole moment (field-independent basis, Debye):
    X=              3.2330    Y=              0.6201    Z=              0.0009  Tot=              3.2920
 Quadrupole moment (field-independent basis, Debye-Ang):
   XX=            -19.2644   YY=            -23.8972   ZZ=            -29.9367
   XY=             -3.8095   XZ=              0.0010   YZ=              0.0006
 Traceless Quadrupole moment (field-independent basis, Debye-Ang):
   XX=              5.1017   YY=              0.4689   ZZ=             -5.5706
   XY=             -3.8095   XZ=              0.0010   YZ=              0.0006
 Octapole moment (field-independent basis, Debye-Ang**2):
  XXX=             33.9320  YYY=             10.2556  ZZZ=              0.0150  XYY=              4.6475
  XXY=              3.2723  XXZ=             -0.0033  XZZ=             11.3707  YZZ=             -0.1549
  YYZ=             -0.0106  XYZ=             -0.0025
 Hexadecapole moment (field-independent basis, Debye-Ang**3):
 XXXX=           -412.4223 YYYY=           -130.3029 ZZZZ=            -40.8363 XXXY=             -4.3167
 XXXZ=             -0.0483 YYYX=            -11.9765 YYYZ=              0.0149 ZZZX=              0.0392
 ZZZY=             -0.0072 XXYY=           -100.9566 XXZZ=            -91.4962 YYZZ=            -35.0376
 XXYZ=             -0.0184 YYXZ=             -0.0219 ZZXY=             -9.2210
 N-N= 1.192371530430D+02 E-N=-6.810336939424D+02  KE= 1.890288606663D+02
 Calling FoFJK, ICntrl=  10002127 FMM=F ISym2X=0 I1Cent= 0 IOpClX= 0 NMat=1 NMatS=1 NMatT=0.
 ***** Axes restored to original set *****
 -------------------------------------------------------------------
 Center     Atomic                   Forces (Hartrees/Bohr)
 Number     Number              X              Y              Z
 -------------------------------------------------------------------
      1        6          -0.013944680    0.025342951   -0.000491503
      2        6          -0.000791255   -0.019991965   -0.014082249
      3        1           0.001527462    0.004948038    0.005122038
      4        1          -0.002492125    0.000622887   -0.002651331
      5        7           0.019528751   -0.009338043    0.017838147
      6        1          -0.002993346   -0.002074262   -0.005036230
      7        1           0.000272514   -0.006448690   -0.003890199
      8        1          -0.002129491    0.003551489   -0.000282464
      9        7           0.001617237    0.004713478    0.005066160
     10        1          -0.000055698    0.000073621   -0.000639307
     11        1          -0.000574688   -0.000199159   -0.000215639
     12        1           0.000035318   -0.001200345   -0.000737423
 -------------------------------------------------------------------
 Cartesian Forces:  Max     0.025342951 RMS     0.008257978

 GradGradGradGradGradGradGradGradGradGradGradGradGradGradGradGradGradGrad
 Berny optimization.
 FormGI is forming the generalized inverse of G from B-inverse, IUseBI=4.
 Internal  Forces:  Max     0.034366509 RMS     0.007045976
 Search for a local minimum.
 Step number   1 out of a maximum of   52
 All quantities printed in internal units (Hartrees-Bohrs-Radians)
 Mixed Optimization -- RFO/linear search
 Second derivative matrix not updated -- first step.
 ITU=  0
     Eigenvalues ---    0.00230   0.00230   0.00230   0.01377   0.02322
     Eigenvalues ---    0.02666   0.02974   0.02974   0.04882   0.05511
     Eigenvalues ---    0.07585   0.16000   0.16000   0.16000   0.16000
     Eigenvalues ---    0.16000   0.16000   0.16000   0.16000   0.22000
     Eigenvalues ---    0.34995   0.35494   0.35528   0.43171   0.44093
     Eigenvalues ---    0.44093   0.44181   0.45770   0.54522   0.58791
 RFO step:  Lambda=-5.94133243D-03 EMin= 2.30000000D-03
 Linear search not attempted -- first point.
 Maximum step size (   0.300) exceeded in Quadratic search.
    -- Step size scaled by   0.639
 Iteration  1 RMS(Cart)=  0.12098401 RMS(Int)=  0.01641253
 Iteration  2 RMS(Cart)=  0.08073608 RMS(Int)=  0.00166593
 Iteration  3 RMS(Cart)=  0.00268636 RMS(Int)=  0.00063517
 Iteration  4 RMS(Cart)=  0.00000072 RMS(Int)=  0.00063517
 Variable       Old X    -DE/DX   Delta X   Delta X   Delta X     New X
                                 (Linear)    (Quad)   (Total)
    R1        2.51910   0.03437   0.00000   0.03695   0.03695   2.55606
    R2        2.04826   0.00726   0.00000   0.01284   0.01284   2.06110
    R3        2.04881   0.00365   0.00000   0.00646   0.00646   2.05527
    R4        2.55559   0.02681   0.00000   0.03107   0.03107   2.58666
    R5        2.05682   0.00581   0.00000   0.01043   0.01043   2.06725
    R6        1.94159  -0.00148   0.00000  -0.00215  -0.00212   1.93947
    R7        1.91092  -0.00400   0.00000  -0.00551  -0.00551   1.90541
    R8        3.63902   0.00474   0.00000   0.05523   0.05521   3.69423
    R9        1.93044   0.00026   0.00000   0.00037   0.00037   1.93081
   R10        1.93044   0.00026   0.00000   0.00037   0.00037   1.93081
   R11        1.92939   0.00002   0.00000   0.00002   0.00002   1.92941
    A1        2.11625   0.00112   0.00000   0.00432   0.00432   2.12058
    A2        2.10728  -0.00112   0.00000  -0.00431  -0.00431   2.10297
    A3        2.05965  -0.00000   0.00000  -0.00002  -0.00002   2.05964
    A4        2.20020   0.00151   0.00000   0.00426   0.00426   2.20445
    A5        2.09679  -0.00301   0.00000  -0.01082  -0.01082   2.08597
    A6        1.98619   0.00151   0.00000   0.00657   0.00657   1.99276
    A7        2.11173   0.00203   0.00000   0.00781   0.00781   2.11954
    A8        2.11206  -0.00207   0.00000  -0.00796  -0.00796   2.10409
    A9        2.05939   0.00004   0.00000   0.00016   0.00016   2.05955
   A10        1.86184  -0.00021   0.00000  -0.00044  -0.00073   1.86111
   A11        1.86145  -0.00020   0.00000  -0.00041  -0.00069   1.86077
   A12        2.19675  -0.00172   0.00000  -0.00739  -0.00652   2.19023
   A13        1.83990   0.00077   0.00000   0.00498   0.00239   1.84230
   A14        1.83849   0.00088   0.00000   0.00271   0.00346   1.84196
   A15        1.83847   0.00089   0.00000   0.00273   0.00351   1.84198
   A16        3.21436  -0.00384   0.00000  -0.28950  -0.28991   2.92446
   A17        3.14187   0.00000   0.00000   0.00009   0.00009   3.14196
    D1        0.00001  -0.00000   0.00000  -0.00002  -0.00002  -0.00001
    D2       -3.14159   0.00000   0.00000   0.00000   0.00000  -3.14158
    D3       -3.14159  -0.00000   0.00000  -0.00002  -0.00002   3.14158
    D4        0.00000   0.00000   0.00000   0.00000   0.00000   0.00000
    D5        0.00009   0.00000   0.00000   0.00004   0.00004   0.00013
    D6        3.14146   0.00000   0.00000  -0.00000  -0.00000   3.14145
    D7       -3.14150   0.00000   0.00000   0.00002   0.00002  -3.14148
    D8       -0.00013  -0.00000   0.00000  -0.00003  -0.00003  -0.00016
    D9       -0.99071   0.00002   0.00000   0.02400   0.02259  -0.96812
   D10        0.98206  -0.00002   0.00000  -0.02372  -0.02230   0.95976
   D11        3.13722  -0.00000   0.00000  -0.00018  -0.00018   3.13704
   D12        2.15090   0.00002   0.00000   0.02398   0.02257   2.17347
   D13       -2.15951  -0.00002   0.00000  -0.02374  -0.02232  -2.18183
   D14       -0.00435  -0.00000   0.00000  -0.00020  -0.00020  -0.00456
         Item               Value     Threshold  Converged?
 Maximum Force            0.034367     0.000450     NO 
 RMS     Force            0.007046     0.000300     NO 
 Maximum Displacement     0.423072     0.001800     NO 
 RMS     Displacement     0.198762     0.001200     NO 
 Predicted change in Energy=-2.857777D-03
 GradGradGradGradGradGradGradGradGradGradGradGradGradGradGradGradGradGrad

                          Input orientation:                          
 ---------------------------------------------------------------------
 Center     Atomic      Atomic             Coordinates (Angstroms)
 Number     Number       Type             X           Y           Z
 ---------------------------------------------------------------------
      1          6           0       -0.475008    0.108921   -0.245730
      2          6           0        0.014320   -1.133672   -0.460365
      3          1           0       -0.126237    0.723040    0.585421
      4          1           0       -1.233900    0.524605   -0.904643
      5          7           0        0.965762   -1.770762    0.289630
      6          1           0       -0.358755   -1.721531   -1.304136
      7          1           0        1.391898   -1.321215    1.107955
      8          1           0        1.268325   -2.702277    0.050044
      9          7           0        1.948859   -0.142219    2.564463
     10          1           0        2.271798    0.725070    2.131483
     11          1           0        1.101861    0.107067    3.078668
     12          1           0        2.644728   -0.367944    3.276684
 ---------------------------------------------------------------------
                    Distance matrix (angstroms):
                    1          2          3          4          5
     1  C    0.000000
     2  C    1.352608   0.000000
     3  H    1.090685   2.135604   0.000000
     4  H    1.087601   2.122574   1.867240   0.000000
     5  N    2.428093   1.368801   2.738430   3.396102   0.000000
     6  H    2.117614   1.093943   3.098453   2.443480   2.072887
     7  H    2.713501   2.095834   2.599375   3.788458   1.026324
     8  H    3.321073   2.072092   3.736874   4.193485   1.008299
     9  N    3.719595   3.724917   2.995213   4.754924   2.965383
    10  H    3.684525   3.907532   2.853223   4.642000   3.365610
    11  H    3.679421   3.904732   2.846740   4.636473   3.365041
    12  H    4.729435   4.633672   4.013900   5.772685   3.702610
                    6          7          8          9         10
     6  H    0.000000
     7  H    3.007195   0.000000
     8  H    2.333035   1.744070   0.000000
     9  N    4.773402   1.954905   3.652304   0.000000
    10  H    4.970829   2.451350   4.133528   1.021740   0.000000
    11  H    4.968515   2.451086   4.134331   1.021742   1.627219
    12  H    5.642430   2.679868   4.213645   1.021002   1.626420
                   11         12
    11  H    0.000000
    12  H    1.626434   0.000000
 Stoichiometry    C2H8N2
 Framework group  C1[X(C2H8N2)]
 Deg. of freedom    30
 Full point group                 C1      NOp   1
 Largest Abelian subgroup         C1      NOp   1
 Largest concise Abelian subgroup C1      NOp   1
                         Standard orientation:                         
 ---------------------------------------------------------------------
 Center     Atomic      Atomic             Coordinates (Angstroms)
 Number     Number       Type             X           Y           Z
 ---------------------------------------------------------------------
      1          6           0       -1.311110   -1.119505   -0.000022
      2          6           0       -1.410003    0.229482    0.000042
      3          1           0       -0.341972   -1.619872   -0.000171
      4          1           0       -2.205446   -1.738407    0.000079
      5          7           0       -0.369137    1.118423   -0.000054
      6          1           0       -2.398818    0.697410    0.000201
      7          1           0        0.606618    0.800237   -0.000305
      8          1           0       -0.543236    2.111577   -0.000116
      9          7           0        2.290991   -0.192003   -0.000047
     10          1           0        2.268286   -0.806560    0.815892
     11          1           0        2.264606   -0.812576   -0.811311
     12          1           0        3.223664    0.223390   -0.003679
 ---------------------------------------------------------------------
 Rotational constants (GHZ):          10.5952026           3.2942329           2.5467142
 Standard basis: Aug-CC-pVDZ (5D, 7F)
 There are   172 symmetry adapted cartesian basis functions of A   symmetry.
 There are   164 symmetry adapted basis functions of A   symmetry.
   164 basis functions,   260 primitive gaussians,   172 cartesian basis functions
    17 alpha electrons       17 beta electrons
       nuclear repulsion energy       119.6553631861 Hartrees.
 NAtoms=   12 NActive=   12 NUniq=   12 SFac= 1.00D+00 NAtFMM=   60 NAOKFM=F Big=F
 Integral buffers will be    131072 words long.
 Raffenetti 1 integral format.
 Two-electron integral symmetry is turned on.
 One-electron integrals computed using PRISM.
 NBasis=   164 RedAO= T EigKep=  3.78D-05  NBF=   164
 NBsUse=   164 1.00D-06 EigRej= -1.00D+00 NBFU=   164
 Initial guess from the checkpoint file:  "/scr/Gau-31321.chk"
 B after Tr=    -0.000000   -0.000000   -0.000000
         Rot=    0.999634   -0.000005    0.000001   -0.027068 Ang=  -3.10 deg.
 ExpMin= 2.97D-02 ExpMax= 9.05D+03 ExpMxC= 3.09D+02 IAcc=3 IRadAn=         5 AccDes= 0.00D+00
 Harris functional with IExCor=  205 and IRadAn=       5 diagonalized for initial guess.
 HarFok:  IExCor=  205 AccDes= 0.00D+00 IRadAn=         5 IDoV= 1 UseB2=F ITyADJ=14
 ICtDFT=  3500011 ScaDFX=  1.000000  1.000000  1.000000  1.000000
 FoFCou: FMM=F IPFlag=           0 FMFlag=      100000 FMFlg1=           0
         NFxFlg=           0 DoJE=T BraDBF=F KetDBF=T FulRan=T
         wScrn=  0.000000 ICntrl=       500 IOpCl=  0 I1Cent=   200000004 NGrid=           0
         NMat0=    1 NMatS0=      1 NMatT0=    0 NMatD0=    1 NMtDS0=    0 NMtDT0=    0
 Petite list used in FoFCou.
 Keep R1 ints in memory in canonical form, NReq=96856724.
 Requested convergence on RMS density matrix=1.00D-08 within 128 cycles.
 Requested convergence on MAX density matrix=1.00D-06.
 Requested convergence on             energy=1.00D-06.
 No special actions if energy rises.
 SCF Done:  E(RHF) =  -189.293808675     A.U. after   12 cycles
            NFock= 12  Conv=0.52D-08     -V/T= 2.0021
 ExpMin= 2.97D-02 ExpMax= 9.05D+03 ExpMxC= 3.09D+02 IAcc=3 IRadAn=         5 AccDes= 0.00D+00
 HarFok:  IExCor=  205 AccDes= 0.00D+00 IRadAn=         5 IDoV=-2 UseB2=F ITyADJ=14
 ICtDFT= 12500011 ScaDFX=  1.000000  1.000000  1.000000  1.000000
 Range of M.O.s used for correlation:     5   164
 NBasis=   164 NAE=    17 NBE=    17 NFC=     4 NFV=     0
 NROrb=    160 NOA=    13 NOB=    13 NVA=   147 NVB=   147

 **** Warning!!: The largest alpha MO coefficient is  0.44006506D+02

 Fully direct method using O(ONN) memory.
 JobTyp=1 Pass  1:  I=   5 to  17 NPSUse= 24 ParTrn=T ParDer=T DoDerP=T.
 Spin components of T(2) and E(2):
     alpha-alpha T2 =       0.2820160977D-01 E2=     -0.8091977000D-01
     alpha-beta  T2 =       0.1702439731D+00 E2=     -0.5091704337D+00
     beta-beta   T2 =       0.2820160977D-01 E2=     -0.8091977000D-01
 ANorm=    0.1107541057D+01
 E2 =    -0.6710099737D+00 EUMP2 =    -0.18996481864913D+03
          IDoAtm=111111111111
          Differentiating once with respect to electric field.
                with respect to dipole field.
          Differentiating once with respect to nuclear coordinates.
 Keep R1 ints in memory in canonical form, NReq=96864027.
          There are     1 degrees of freedom in the 1st order CPHF.  IDoFFX=0 NUNeed=     1.
 LinEq1:  Iter=  0 NonCon=     1 RMS=3.74D-03 Max=8.24D-02 NDo=     1
 AX will form     1 AO Fock derivatives at one time.
 LinEq1:  Iter=  1 NonCon=     1 RMS=6.74D-04 Max=4.72D-03 NDo=     1
 LinEq1:  Iter=  2 NonCon=     1 RMS=3.03D-04 Max=5.24D-03 NDo=     1
 LinEq1:  Iter=  3 NonCon=     1 RMS=5.12D-05 Max=3.70D-04 NDo=     1
 LinEq1:  Iter=  4 NonCon=     1 RMS=1.79D-05 Max=2.12D-04 NDo=     1
 LinEq1:  Iter=  5 NonCon=     1 RMS=5.20D-06 Max=1.05D-04 NDo=     1
 LinEq1:  Iter=  6 NonCon=     1 RMS=1.49D-06 Max=1.54D-05 NDo=     1
 LinEq1:  Iter=  7 NonCon=     1 RMS=6.08D-07 Max=1.21D-05 NDo=     1
 LinEq1:  Iter=  8 NonCon=     1 RMS=1.61D-07 Max=2.11D-06 NDo=     1
 LinEq1:  Iter=  9 NonCon=     1 RMS=4.23D-08 Max=5.53D-07 NDo=     1
 LinEq1:  Iter= 10 NonCon=     1 RMS=7.95D-09 Max=6.83D-08 NDo=     1
 LinEq1:  Iter= 11 NonCon=     1 RMS=1.16D-09 Max=1.08D-08 NDo=     1
 LinEq1:  Iter= 12 NonCon=     1 RMS=3.24D-10 Max=3.21D-09 NDo=     1
 LinEq1:  Iter= 13 NonCon=     0 RMS=9.77D-11 Max=7.94D-10 NDo=     1
 Linear equations converged to 1.000D-10 1.000D-09 after    13 iterations.
 End of Minotr F.D. properties file   721 does not exist.
 End of Minotr F.D. properties file   722 does not exist.
 End of Minotr F.D. properties file   788 does not exist.
 Calling FoFJK, ICntrl=  10002127 FMM=F ISym2X=0 I1Cent= 0 IOpClX= 0 NMat=1 NMatS=1 NMatT=0.
 ***** Axes restored to original set *****
 -------------------------------------------------------------------
 Center     Atomic                   Forces (Hartrees/Bohr)
 Number     Number              X              Y              Z
 -------------------------------------------------------------------
      1        6          -0.003312523    0.008706754    0.001645159
      2        6          -0.001367781   -0.005428770   -0.005237040
      3        1           0.000534317    0.001041376    0.001337139
      4        1          -0.000850239   -0.000347727   -0.001272043
      5        7           0.009105260   -0.005436396    0.007605405
      6        1          -0.000918847   -0.000186791   -0.001250982
      7        1          -0.002735454   -0.001243457   -0.004170759
      8        1          -0.001561756    0.000955292   -0.001288164
      9        7           0.001583402    0.003426272    0.004182007
     10        1          -0.000125331   -0.000343254   -0.000736008
     11        1          -0.000422635   -0.000505527   -0.000490378
     12        1           0.000071587   -0.000637773   -0.000324336
 -------------------------------------------------------------------
 Cartesian Forces:  Max     0.009105260 RMS     0.003298400

 GradGradGradGradGradGradGradGradGradGradGradGradGradGradGradGradGradGrad
 Berny optimization.
 Using GEDIIS/GDIIS optimizer.
 FormGI is forming the generalized inverse of G from B-inverse, IUseBI=4.
 Internal  Forces:  Max     0.010219856 RMS     0.002259518
 Search for a local minimum.
 Step number   2 out of a maximum of   52
 All quantities printed in internal units (Hartrees-Bohrs-Radians)
 Mixed Optimization -- RFO/linear search
 Update second derivatives using D2CorX and points    1    2
 DE= -2.31D-03 DEPred=-2.86D-03 R= 8.08D-01
 TightC=F SS=  1.41D+00  RLast= 3.04D-01 DXNew= 5.0454D-01 9.1095D-01
 Trust test= 8.08D-01 RLast= 3.04D-01 DXMaxT set to 5.05D-01
 ITU=  1  0
 Use linear search instead of GDIIS.
     Eigenvalues ---    0.00230   0.00230   0.00501   0.01350   0.02319
     Eigenvalues ---    0.02663   0.02972   0.02974   0.04365   0.05143
     Eigenvalues ---    0.07855   0.15341   0.16000   0.16000   0.16000
     Eigenvalues ---    0.16000   0.16000   0.16000   0.16354   0.21952
     Eigenvalues ---    0.34855   0.35281   0.35535   0.42760   0.44093
     Eigenvalues ---    0.44094   0.44180   0.45643   0.48212   0.56862
 RFO step:  Lambda=-1.23770911D-03 EMin= 2.29999945D-03
 Quartic linear search produced a step of  0.26896.
 Iteration  1 RMS(Cart)=  0.16619690 RMS(Int)=  0.01302462
 Iteration  2 RMS(Cart)=  0.05782024 RMS(Int)=  0.00101155
 Iteration  3 RMS(Cart)=  0.00181980 RMS(Int)=  0.00043837
 Iteration  4 RMS(Cart)=  0.00000026 RMS(Int)=  0.00043837
 Variable       Old X    -DE/DX   Delta X   Delta X   Delta X     New X
                                 (Linear)    (Quad)   (Total)
    R1        2.55606   0.01022   0.00994   0.03289   0.04283   2.59889
    R2        2.06110   0.00178   0.00345   0.01001   0.01347   2.07456
    R3        2.05527   0.00123   0.00174   0.00628   0.00802   2.06329
    R4        2.58666   0.00849   0.00836   0.02888   0.03724   2.62390
    R5        2.06725   0.00138   0.00281   0.00797   0.01078   2.07803
    R6        1.93947  -0.00160  -0.00057  -0.00539  -0.00596   1.93351
    R7        1.90541  -0.00105  -0.00148  -0.00449  -0.00597   1.89944
    R8        3.69423   0.00344   0.01485   0.10182   0.11667   3.81090
    R9        1.93081  -0.00002   0.00010   0.00004   0.00014   1.93095
   R10        1.93081  -0.00002   0.00010   0.00004   0.00014   1.93096
   R11        1.92941  -0.00004   0.00001  -0.00010  -0.00009   1.92932
    A1        2.12058   0.00074   0.00116   0.00715   0.00832   2.12890
    A2        2.10297  -0.00137  -0.00116  -0.01224  -0.01340   2.08957
    A3        2.05964   0.00063  -0.00001   0.00509   0.00508   2.06472
    A4        2.20445   0.00071   0.00114   0.00533   0.00647   2.21093
    A5        2.08597  -0.00112  -0.00291  -0.01111  -0.01403   2.07194
    A6        1.99276   0.00041   0.00177   0.00579   0.00755   2.00032
    A7        2.11954  -0.00069   0.00210  -0.00359  -0.00149   2.11804
    A8        2.10409  -0.00154  -0.00214  -0.01456  -0.01670   2.08740
    A9        2.05955   0.00223   0.00004   0.01815   0.01819   2.07774
   A10        1.86111  -0.00077  -0.00020  -0.00637  -0.00689   1.85422
   A11        1.86077  -0.00077  -0.00018  -0.00639  -0.00686   1.85391
   A12        2.19023  -0.00046  -0.00175  -0.00534  -0.00647   2.18376
   A13        1.84230   0.00057   0.00064   0.00473   0.00363   1.84593
   A14        1.84196   0.00082   0.00093   0.00769   0.00916   1.85111
   A15        1.84198   0.00082   0.00094   0.00763   0.00916   1.85114
   A16        2.92446   0.00038  -0.07797   0.34029   0.26199   3.18645
   A17        3.14196  -0.00000   0.00002  -0.00061  -0.00057   3.14139
    D1       -0.00001   0.00000  -0.00001   0.00001   0.00001   0.00000
    D2       -3.14158   0.00000   0.00000   0.00007   0.00007  -3.14151
    D3        3.14158  -0.00000  -0.00001  -0.00003  -0.00004   3.14154
    D4        0.00000   0.00000   0.00000   0.00003   0.00003   0.00003
    D5        0.00013   0.00000   0.00001   0.00012   0.00012   0.00025
    D6        3.14145   0.00000  -0.00000   0.00011   0.00011   3.14157
    D7       -3.14148   0.00000   0.00001   0.00006   0.00006  -3.14142
    D8       -0.00016   0.00000  -0.00001   0.00005   0.00005  -0.00011
    D9       -0.96812  -0.00007   0.00608  -0.02473  -0.01961  -0.98773
   D10        0.95976   0.00008  -0.00600   0.02493   0.01990   0.97967
   D11        3.13704  -0.00000  -0.00005   0.00044   0.00037   3.13741
   D12        2.17347  -0.00007   0.00607  -0.02429  -0.01917   2.15430
   D13       -2.18183   0.00008  -0.00600   0.02537   0.02034  -2.16149
   D14       -0.00456   0.00000  -0.00005   0.00088   0.00081  -0.00374
         Item               Value     Threshold  Converged?
 Maximum Force            0.010220     0.000450     NO 
 RMS     Force            0.002260     0.000300     NO 
 Maximum Displacement     0.456032     0.001800     NO 
 RMS     Displacement     0.219655     0.001200     NO 
 Predicted change in Energy=-7.988553D-04
 GradGradGradGradGradGradGradGradGradGradGradGradGradGradGradGradGradGrad

                          Input orientation:                          
 ---------------------------------------------------------------------
 Center     Atomic      Atomic             Coordinates (Angstroms)
 Number     Number       Type             X           Y           Z
 ---------------------------------------------------------------------
      1          6           0       -0.614229    0.104204   -0.419987
      2          6           0       -0.034397   -1.138583   -0.523157
      3          1           0       -0.341362    0.808742    0.376481
      4          1           0       -1.369847    0.410995   -1.145965
      5          7           0        0.934692   -1.673785    0.314922
      6          1           0       -0.348042   -1.801522   -1.342525
      7          1           0        1.300950   -1.145418    1.110884
      8          1           0        1.286337   -2.599012    0.139982
      9          7           0        2.075990   -0.174494    2.699428
     10          1           0        2.454421    0.704179    2.340496
     11          1           0        1.283411    0.085181    3.289767
     12          1           0        2.785730   -0.551404    3.329150
 ---------------------------------------------------------------------
                    Distance matrix (angstroms):
                    1          2          3          4          5
     1  C    0.000000
     2  C    1.375271   0.000000
     3  H    1.097811   2.166945   0.000000
     4  H    1.091844   2.138342   1.879847   0.000000
     5  N    2.469918   1.388507   2.791961   3.433860   0.000000
     6  H    2.133946   1.099648   3.125460   2.444984   2.099727
     7  H    2.751914   2.110282   2.656178   3.827394   1.023168
     8  H    3.351581   2.077726   3.783929   4.215342   1.005138
     9  N    4.128643   3.970926   3.493770   5.196502   3.039129
    10  H    4.170952   4.217878   3.418288   5.183280   3.473793
    11  H    4.166974   4.215756   3.413307   5.178962   3.473510
    12  H    5.103486   4.810215   4.510760   6.182368   3.711018
                    6          7          8          9         10
     6  H    0.000000
     7  H    3.028013   0.000000
     8  H    2.346277   1.748084   0.000000
     9  N    4.986034   2.016644   3.612838   0.000000
    10  H    5.262792   2.502688   4.137360   1.021816   0.000000
    11  H    5.261123   2.502441   4.138362   1.021818   1.629582
    12  H    5.762627   2.734617   4.075742   1.020952   1.632081
                   11         12
    11  H    0.000000
    12  H    1.632100   0.000000
 Stoichiometry    C2H8N2
 Framework group  C1[X(C2H8N2)]
 Deg. of freedom    30
 Full point group                 C1      NOp   1
 Largest Abelian subgroup         C1      NOp   1
 Largest concise Abelian subgroup C1      NOp   1
                         Standard orientation:                         
 ---------------------------------------------------------------------
 Center     Atomic      Atomic             Coordinates (Angstroms)
 Number     Number       Type             X           Y           Z
 ---------------------------------------------------------------------
      1          6           0       -1.583603   -1.053864    0.000038
      2          6           0       -1.463910    0.316189   -0.000105
      3          1           0       -0.706502   -1.714078    0.000346
      4          1           0       -2.575308   -1.510639   -0.000110
      5          7           0       -0.282347    1.045476    0.000106
      6          1           0       -2.378696    0.926427   -0.000335
      7          1           0        0.629617    0.581585    0.000175
      8          1           0       -0.318911    2.049948   -0.000054
      9          7           0        2.466269   -0.251220   -0.000099
     10          1           0        2.502218   -0.864140    0.816690
     11          1           0        2.499152   -0.869619   -0.812880
     12          1           0        3.346050    0.266772   -0.003478
 ---------------------------------------------------------------------
 Rotational constants (GHZ):          11.4038821           2.7986904           2.2742585
 Standard basis: Aug-CC-pVDZ (5D, 7F)
 There are   172 symmetry adapted cartesian basis functions of A   symmetry.
 There are   164 symmetry adapted basis functions of A   symmetry.
   164 basis functions,   260 primitive gaussians,   172 cartesian basis functions
    17 alpha electrons       17 beta electrons
       nuclear repulsion energy       116.7612972944 Hartrees.
 NAtoms=   12 NActive=   12 NUniq=   12 SFac= 1.00D+00 NAtFMM=   60 NAOKFM=F Big=F
 Integral buffers will be    131072 words long.
 Raffenetti 1 integral format.
 Two-electron integral symmetry is turned on.
 One-electron integrals computed using PRISM.
 NBasis=   164 RedAO= T EigKep=  4.71D-05  NBF=   164
 NBsUse=   164 1.00D-06 EigRej= -1.00D+00 NBFU=   164
 Initial guess from the checkpoint file:  "/scr/Gau-31321.chk"
 B after Tr=     0.000000    0.000000    0.000000
         Rot=    0.999643   -0.000028    0.000001    0.026728 Ang=  -3.06 deg.
 ExpMin= 2.97D-02 ExpMax= 9.05D+03 ExpMxC= 3.09D+02 IAcc=3 IRadAn=         5 AccDes= 0.00D+00
 Harris functional with IExCor=  205 and IRadAn=       5 diagonalized for initial guess.
 HarFok:  IExCor=  205 AccDes= 0.00D+00 IRadAn=         5 IDoV= 1 UseB2=F ITyADJ=14
 ICtDFT=  3500011 ScaDFX=  1.000000  1.000000  1.000000  1.000000
 FoFCou: FMM=F IPFlag=           0 FMFlag=      100000 FMFlg1=           0
         NFxFlg=           0 DoJE=T BraDBF=F KetDBF=T FulRan=T
         wScrn=  0.000000 ICntrl=       500 IOpCl=  0 I1Cent=   200000004 NGrid=           0
         NMat0=    1 NMatS0=      1 NMatT0=    0 NMatD0=    1 NMtDS0=    0 NMtDT0=    0
 Petite list used in FoFCou.
 Keep R1 ints in memory in canonical form, NReq=96852746.
 Requested convergence on RMS density matrix=1.00D-08 within 128 cycles.
 Requested convergence on MAX density matrix=1.00D-06.
 Requested convergence on             energy=1.00D-06.
 No special actions if energy rises.
 SCF Done:  E(RHF) =  -189.292729190     A.U. after   12 cycles
            NFock= 12  Conv=0.34D-08     -V/T= 2.0029
 ExpMin= 2.97D-02 ExpMax= 9.05D+03 ExpMxC= 3.09D+02 IAcc=3 IRadAn=         5 AccDes= 0.00D+00
 HarFok:  IExCor=  205 AccDes= 0.00D+00 IRadAn=         5 IDoV=-2 UseB2=F ITyADJ=14
 ICtDFT= 12500011 ScaDFX=  1.000000  1.000000  1.000000  1.000000
 Range of M.O.s used for correlation:     5   164
 NBasis=   164 NAE=    17 NBE=    17 NFC=     4 NFV=     0
 NROrb=    160 NOA=    13 NOB=    13 NVA=   147 NVB=   147

 **** Warning!!: The largest alpha MO coefficient is  0.40897628D+02

 Fully direct method using O(ONN) memory.
 JobTyp=1 Pass  1:  I=   5 to  17 NPSUse= 24 ParTrn=T ParDer=T DoDerP=T.
 Spin components of T(2) and E(2):
     alpha-alpha T2 =       0.2835499327D-01 E2=     -0.8079289488D-01
     alpha-beta  T2 =       0.1720148599D+00 E2=     -0.5102710101D+00
     beta-beta   T2 =       0.2835499327D-01 E2=     -0.8079289488D-01
 ANorm=    0.1108478618D+01
 E2 =    -0.6718567999D+00 EUMP2 =    -0.18996458599009D+03
          IDoAtm=111111111111
          Differentiating once with respect to electric field.
                with respect to dipole field.
          Differentiating once with respect to nuclear coordinates.
 Keep R1 ints in memory in canonical form, NReq=96860075.
          There are     1 degrees of freedom in the 1st order CPHF.  IDoFFX=0 NUNeed=     1.
 LinEq1:  Iter=  0 NonCon=     1 RMS=3.79D-03 Max=8.37D-02 NDo=     1
 AX will form     1 AO Fock derivatives at one time.
 LinEq1:  Iter=  1 NonCon=     1 RMS=7.14D-04 Max=4.74D-03 NDo=     1
 LinEq1:  Iter=  2 NonCon=     1 RMS=3.21D-04 Max=5.33D-03 NDo=     1
 LinEq1:  Iter=  3 NonCon=     1 RMS=5.55D-05 Max=4.18D-04 NDo=     1
 LinEq1:  Iter=  4 NonCon=     1 RMS=2.03D-05 Max=2.68D-04 NDo=     1
 LinEq1:  Iter=  5 NonCon=     1 RMS=5.56D-06 Max=1.12D-04 NDo=     1
 LinEq1:  Iter=  6 NonCon=     1 RMS=1.59D-06 Max=1.43D-05 NDo=     1
 LinEq1:  Iter=  7 NonCon=     1 RMS=7.27D-07 Max=1.58D-05 NDo=     1
 LinEq1:  Iter=  8 NonCon=     1 RMS=1.92D-07 Max=1.92D-06 NDo=     1
 LinEq1:  Iter=  9 NonCon=     1 RMS=4.80D-08 Max=5.26D-07 NDo=     1
 LinEq1:  Iter= 10 NonCon=     1 RMS=8.84D-09 Max=7.08D-08 NDo=     1
 LinEq1:  Iter= 11 NonCon=     1 RMS=1.45D-09 Max=1.82D-08 NDo=     1
 LinEq1:  Iter= 12 NonCon=     1 RMS=5.56D-10 Max=5.84D-09 NDo=     1
 LinEq1:  Iter= 13 NonCon=     1 RMS=1.17D-10 Max=8.27D-10 NDo=     1
 LinEq1:  Iter= 14 NonCon=     0 RMS=2.34D-11 Max=2.19D-10 NDo=     1
 Linear equations converged to 1.000D-10 1.000D-09 after    14 iterations.
 End of Minotr F.D. properties file   721 does not exist.
 End of Minotr F.D. properties file   722 does not exist.
 End of Minotr F.D. properties file   788 does not exist.
 Calling FoFJK, ICntrl=  10002127 FMM=F ISym2X=0 I1Cent= 0 IOpClX= 0 NMat=1 NMatS=1 NMatT=0.
 ***** Axes restored to original set *****
 -------------------------------------------------------------------
 Center     Atomic                   Forces (Hartrees/Bohr)
 Number     Number              X              Y              Z
 -------------------------------------------------------------------
      1        6           0.006481759   -0.010321904    0.001185778
      2        6          -0.001949736    0.008326305    0.003056415
      3        1          -0.000338342   -0.002383149   -0.001975251
      4        1           0.001247396   -0.001155963    0.000774595
      5        7          -0.007959030    0.007887021   -0.004605717
      6        1           0.001298211    0.001232390    0.002403790
      7        1           0.000445228   -0.003819885   -0.001941851
      8        1           0.000729767   -0.001504519   -0.000086584
      9        7          -0.000122211    0.003008361    0.001803241
     10        1           0.000074787   -0.000694180    0.000219763
     11        1           0.000562840   -0.000440760   -0.000172050
     12        1          -0.000470670   -0.000133717   -0.000662129
 -------------------------------------------------------------------
 Cartesian Forces:  Max     0.010321904 RMS     0.003483296

 GradGradGradGradGradGradGradGradGradGradGradGradGradGradGradGradGradGrad
 Berny optimization.
 Using GEDIIS/GDIIS optimizer.
 FormGI is forming the generalized inverse of G from B-inverse, IUseBI=4.
 Internal  Forces:  Max     0.015642927 RMS     0.003029781
 Search for a local minimum.
 Step number   3 out of a maximum of   52
 All quantities printed in internal units (Hartrees-Bohrs-Radians)
 Mixed Optimization -- RFO/linear search
 Update second derivatives using D2CorX and points    1    3    2
 DE=  2.33D-04 DEPred=-7.99D-04 R=-2.91D-01
 Trust test=-2.91D-01 RLast= 2.98D-01 DXMaxT set to 2.52D-01
 ITU= -1  1  0
 Use linear search instead of GDIIS.
     Eigenvalues ---    0.00230   0.00230   0.01079   0.01375   0.02322
     Eigenvalues ---    0.02660   0.02974   0.02974   0.03366   0.05563
     Eigenvalues ---    0.07731   0.15064   0.16000   0.16000   0.16000
     Eigenvalues ---    0.16000   0.16000   0.16096   0.16366   0.22153
     Eigenvalues ---    0.35122   0.35501   0.35968   0.42599   0.44087
     Eigenvalues ---    0.44093   0.44177   0.45835   0.54698   0.68734
 RFO step:  Lambda=-5.03798560D-04 EMin= 2.29999537D-03
 Quartic linear search produced a step of -0.59001.
 Iteration  1 RMS(Cart)=  0.15335202 RMS(Int)=  0.01710371
 Iteration  2 RMS(Cart)=  0.08620262 RMS(Int)=  0.00168386
 Iteration  3 RMS(Cart)=  0.00276448 RMS(Int)=  0.00045853
 Iteration  4 RMS(Cart)=  0.00000076 RMS(Int)=  0.00045853
 Variable       Old X    -DE/DX   Delta X   Delta X   Delta X     New X
                                 (Linear)    (Quad)   (Total)
    R1        2.59889  -0.01564  -0.02527   0.00453  -0.02074   2.57815
    R2        2.07456  -0.00305  -0.00795   0.00047  -0.00747   2.06709
    R3        2.06329  -0.00170  -0.00473   0.00123  -0.00350   2.05978
    R4        2.62390  -0.00965  -0.02197   0.00692  -0.01505   2.60885
    R5        2.07803  -0.00290  -0.00636  -0.00032  -0.00668   2.07135
    R6        1.93351  -0.00149   0.00352  -0.00567  -0.00213   1.93138
    R7        1.89944   0.00166   0.00352  -0.00042   0.00310   1.90254
    R8        3.81090   0.00179  -0.06884   0.08545   0.01660   3.82750
    R9        1.93095  -0.00065  -0.00008  -0.00072  -0.00081   1.93014
   R10        1.93096  -0.00065  -0.00009  -0.00073  -0.00081   1.93014
   R11        1.92932  -0.00069   0.00006  -0.00075  -0.00069   1.92862
    A1        2.12890  -0.00036  -0.00491   0.00401  -0.00090   2.12799
    A2        2.08957  -0.00061   0.00791  -0.01138  -0.00347   2.08610
    A3        2.06472   0.00097  -0.00300   0.00737   0.00437   2.06909
    A4        2.21093  -0.00180  -0.00382  -0.00014  -0.00396   2.20697
    A5        2.07194   0.00167   0.00828  -0.00221   0.00606   2.07801
    A6        2.00032   0.00013  -0.00446   0.00235  -0.00210   1.99821
    A7        2.11804   0.00009   0.00088  -0.00660  -0.00572   2.11232
    A8        2.08740   0.00020   0.00985  -0.00990  -0.00005   2.08735
    A9        2.07774  -0.00028  -0.01073   0.01650   0.00577   2.08351
   A10        1.85422   0.00028   0.00406  -0.00491  -0.00101   1.85321
   A11        1.85391   0.00028   0.00405  -0.00494  -0.00106   1.85285
   A12        2.18376  -0.00085   0.00382  -0.00483  -0.00039   2.18337
   A13        1.84593   0.00045  -0.00214   0.00555   0.00155   1.84747
   A14        1.85111   0.00002  -0.00540   0.00553   0.00070   1.85181
   A15        1.85114   0.00002  -0.00541   0.00547   0.00062   1.85176
   A16        3.18645  -0.00298  -0.15458  -0.14153  -0.29638   2.89007
   A17        3.14139   0.00001   0.00034   0.00057   0.00090   3.14229
    D1        0.00000   0.00000  -0.00001   0.00003   0.00002   0.00002
    D2       -3.14151  -0.00000  -0.00004   0.00004  -0.00000  -3.14151
    D3        3.14154   0.00000   0.00002   0.00001   0.00003   3.14157
    D4        0.00003  -0.00000  -0.00002   0.00002   0.00000   0.00004
    D5        0.00025   0.00000  -0.00007   0.00013   0.00006   0.00032
    D6        3.14157  -0.00000  -0.00007   0.00002  -0.00005   3.14151
    D7       -3.14142   0.00000  -0.00003   0.00012   0.00009  -3.14133
    D8       -0.00011  -0.00000  -0.00003   0.00001  -0.00003  -0.00013
    D9       -0.98773  -0.00012   0.01157   0.01145   0.02199  -0.96574
   D10        0.97967   0.00013  -0.01174  -0.01063  -0.02135   0.95832
   D11        3.13741  -0.00000  -0.00022   0.00035   0.00014   3.13755
   D12        2.15430  -0.00013   0.01131   0.01112   0.02140   2.17569
   D13       -2.16149   0.00013  -0.01200  -0.01096  -0.02194  -2.18343
   D14       -0.00374  -0.00000  -0.00048   0.00002  -0.00046  -0.00420
         Item               Value     Threshold  Converged?
 Maximum Force            0.015643     0.000450     NO 
 RMS     Force            0.003030     0.000300     NO 
 Maximum Displacement     0.481958     0.001800     NO 
 RMS     Displacement     0.238499     0.001200     NO 
 Predicted change in Energy=-4.297365D-04
 GradGradGradGradGradGradGradGradGradGradGradGradGradGradGradGradGradGrad

                          Input orientation:                          
 ---------------------------------------------------------------------
 Center     Atomic      Atomic             Coordinates (Angstroms)
 Number     Number       Type             X           Y           Z
 ---------------------------------------------------------------------
      1          6           0       -0.465808    0.114380   -0.230992
      2          6           0        0.013214   -1.141134   -0.466643
      3          1           0       -0.109070    0.722008    0.605698
      4          1           0       -1.226302    0.531774   -0.890924
      5          7           0        0.970814   -1.805872    0.272973
      6          1           0       -0.377543   -1.708797   -1.319009
      7          1           0        1.402435   -1.369125    1.089993
      8          1           0        1.249287   -2.735525    0.005011
      9          7           0        1.951977   -0.117438    2.584528
     10          1           0        2.265179    0.743907    2.133726
     11          1           0        1.093779    0.124512    3.082715
     12          1           0        2.645691   -0.329605    3.302399
 ---------------------------------------------------------------------
                    Distance matrix (angstroms):
                    1          2          3          4          5
     1  C    0.000000
     2  C    1.364298   0.000000
     3  H    1.093857   2.153176   0.000000
     4  H    1.089991   2.124861   1.877305   0.000000
     5  N    2.450556   1.380545   2.768940   3.412705   0.000000
     6  H    2.124982   1.096112   3.112136   2.433887   2.088515
     7  H    2.726924   2.098816   2.625266   3.801013   1.022040
     8  H    3.334547   2.071815   3.763043   4.196008   1.006781
     9  N    3.718410   3.757180   2.977978   4.754124   3.026017
    10  H    3.666945   3.922582   2.823545   4.624278   3.411621
    11  H    3.662385   3.920130   2.817705   4.619355   3.411180
    12  H    4.728995   4.668425   3.995847   5.772197   3.763244
                    6          7          8          9         10
     6  H    0.000000
     7  H    3.014464   0.000000
     8  H    2.335333   1.751482   0.000000
     9  N    4.816295   2.025427   3.741933   0.000000
    10  H    4.992106   2.509703   4.203559   1.021388   0.000000
    11  H    4.990089   2.509414   4.204313   1.021388   1.629849
    12  H    5.692059   2.742450   4.314066   1.020584   1.631874
                   11         12
    11  H    0.000000
    12  H    1.631843   0.000000
 Stoichiometry    C2H8N2
 Framework group  C1[X(C2H8N2)]
 Deg. of freedom    30
 Full point group                 C1      NOp   1
 Largest Abelian subgroup         C1      NOp   1
 Largest concise Abelian subgroup C1      NOp   1
                         Standard orientation:                         
 ---------------------------------------------------------------------
 Center     Atomic      Atomic             Coordinates (Angstroms)
 Number     Number       Type             X           Y           Z
 ---------------------------------------------------------------------
      1          6           0       -1.274838   -1.148656   -0.000043
      2          6           0       -1.423610    0.207507    0.000060
      3          1           0       -0.288896   -1.622409   -0.000228
      4          1           0       -2.159058   -1.786021    0.000101
      5          7           0       -0.409193    1.143916   -0.000071
      6          1           0       -2.434070    0.632279    0.000322
      7          1           0        0.571953    0.857704   -0.000542
      8          1           0       -0.637620    2.124441   -0.000043
      9          7           0        2.313990   -0.175573   -0.000023
     10          1           0        2.281644   -0.787641    0.817020
     11          1           0        2.278476   -0.793098   -0.812817
     12          1           0        3.244677    0.243238   -0.003264
 ---------------------------------------------------------------------
 Rotational constants (GHZ):          10.2524604           3.2617165           2.5073516
 Standard basis: Aug-CC-pVDZ (5D, 7F)
 There are   172 symmetry adapted cartesian basis functions of A   symmetry.
 There are   164 symmetry adapted basis functions of A   symmetry.
   164 basis functions,   260 primitive gaussians,   172 cartesian basis functions
    17 alpha electrons       17 beta electrons
       nuclear repulsion energy       118.8614380550 Hartrees.
 NAtoms=   12 NActive=   12 NUniq=   12 SFac= 1.00D+00 NAtFMM=   60 NAOKFM=F Big=F
 Integral buffers will be    131072 words long.
 Raffenetti 1 integral format.
 Two-electron integral symmetry is turned on.
 One-electron integrals computed using PRISM.
 NBasis=   164 RedAO= T EigKep=  3.96D-05  NBF=   164
 NBsUse=   164 1.00D-06 EigRej= -1.00D+00 NBFU=   164
 Lowest energy guess from the checkpoint file:  "/scr/Gau-31321.chk"
 B after Tr=     0.000000    0.000000    0.000000
         Rot=    0.999963   -0.000016    0.000005   -0.008569 Ang=  -0.98 deg.
 B after Tr=     0.000000    0.000000   -0.000000
         Rot=    0.999384    0.000010    0.000004   -0.035081 Ang=   4.02 deg.
 Keep R1 ints in memory in canonical form, NReq=96856022.
 Requested convergence on RMS density matrix=1.00D-08 within 128 cycles.
 Requested convergence on MAX density matrix=1.00D-06.
 Requested convergence on             energy=1.00D-06.
 No special actions if energy rises.
 SCF Done:  E(RHF) =  -189.293949695     A.U. after   12 cycles
            NFock= 12  Conv=0.26D-08     -V/T= 2.0026
 ExpMin= 2.97D-02 ExpMax= 9.05D+03 ExpMxC= 3.09D+02 IAcc=3 IRadAn=         5 AccDes= 0.00D+00
 HarFok:  IExCor=  205 AccDes= 0.00D+00 IRadAn=         5 IDoV=-2 UseB2=F ITyADJ=14
 ICtDFT= 12500011 ScaDFX=  1.000000  1.000000  1.000000  1.000000
 Range of M.O.s used for correlation:     5   164
 NBasis=   164 NAE=    17 NBE=    17 NFC=     4 NFV=     0
 NROrb=    160 NOA=    13 NOB=    13 NVA=   147 NVB=   147

 **** Warning!!: The largest alpha MO coefficient is  0.42681381D+02

 Fully direct method using O(ONN) memory.
 JobTyp=1 Pass  1:  I=   5 to  17 NPSUse= 24 ParTrn=T ParDer=T DoDerP=T.
 Spin components of T(2) and E(2):
     alpha-alpha T2 =       0.2828299089D-01 E2=     -0.8084684055D-01
     alpha-beta  T2 =       0.1711520494D+00 E2=     -0.5097338077D+00
     beta-beta   T2 =       0.2828299089D-01 E2=     -0.8084684055D-01
 ANorm=    0.1108024382D+01
 E2 =    -0.6714274888D+00 EUMP2 =    -0.18996537718430D+03
          IDoAtm=111111111111
          Differentiating once with respect to electric field.
                with respect to dipole field.
          Differentiating once with respect to nuclear coordinates.
 Keep R1 ints in memory in canonical form, NReq=96863754.
          There are     1 degrees of freedom in the 1st order CPHF.  IDoFFX=0 NUNeed=     1.
 LinEq1:  Iter=  0 NonCon=     1 RMS=3.76D-03 Max=8.27D-02 NDo=     1
 AX will form     1 AO Fock derivatives at one time.
 LinEq1:  Iter=  1 NonCon=     1 RMS=6.92D-04 Max=5.34D-03 NDo=     1
 LinEq1:  Iter=  2 NonCon=     1 RMS=3.11D-04 Max=5.27D-03 NDo=     1
 LinEq1:  Iter=  3 NonCon=     1 RMS=5.33D-05 Max=3.80D-04 NDo=     1
 LinEq1:  Iter=  4 NonCon=     1 RMS=1.89D-05 Max=2.37D-04 NDo=     1
 LinEq1:  Iter=  5 NonCon=     1 RMS=5.27D-06 Max=1.04D-04 NDo=     1
 LinEq1:  Iter=  6 NonCon=     1 RMS=1.51D-06 Max=1.53D-05 NDo=     1
 LinEq1:  Iter=  7 NonCon=     1 RMS=6.61D-07 Max=1.39D-05 NDo=     1
 LinEq1:  Iter=  8 NonCon=     1 RMS=1.75D-07 Max=2.07D-06 NDo=     1
 LinEq1:  Iter=  9 NonCon=     1 RMS=4.55D-08 Max=5.57D-07 NDo=     1
 LinEq1:  Iter= 10 NonCon=     1 RMS=8.47D-09 Max=6.96D-08 NDo=     1
 LinEq1:  Iter= 11 NonCon=     1 RMS=1.49D-09 Max=1.90D-08 NDo=     1
 LinEq1:  Iter= 12 NonCon=     1 RMS=5.74D-10 Max=5.77D-09 NDo=     1
 LinEq1:  Iter= 13 NonCon=     1 RMS=1.20D-10 Max=8.63D-10 NDo=     1
 LinEq1:  Iter= 14 NonCon=     0 RMS=2.35D-11 Max=2.28D-10 NDo=     1
 Linear equations converged to 1.000D-10 1.000D-09 after    14 iterations.
 End of Minotr F.D. properties file   721 does not exist.
 End of Minotr F.D. properties file   722 does not exist.
 End of Minotr F.D. properties file   788 does not exist.
 Calling FoFJK, ICntrl=  10002127 FMM=F ISym2X=0 I1Cent= 0 IOpClX= 0 NMat=1 NMatS=1 NMatT=0.
 ***** Axes restored to original set *****
 -------------------------------------------------------------------
 Center     Atomic                   Forces (Hartrees/Bohr)
 Number     Number              X              Y              Z
 -------------------------------------------------------------------
      1        6           0.001011590   -0.002238921   -0.000229541
      2        6           0.000077663    0.002355226    0.001640511
      3        1          -0.000215507   -0.000567587   -0.000636109
      4        1           0.000245699   -0.000121814    0.000222002
      5        7          -0.001142233    0.000537773   -0.001050695
      6        1           0.000345595    0.000019722    0.000438200
      7        1          -0.001065850   -0.000701943   -0.001778329
      8        1           0.000172195   -0.000103575    0.000149631
      9        7           0.000560886    0.001608930    0.001745145
     10        1           0.000129356   -0.000394529   -0.000176381
     11        1           0.000060991   -0.000430065   -0.000121306
     12        1          -0.000180384    0.000036784   -0.000203128
 -------------------------------------------------------------------
 Cartesian Forces:  Max     0.002355226 RMS     0.000905621

 GradGradGradGradGradGradGradGradGradGradGradGradGradGradGradGradGradGrad
 Berny optimization.
 Using GEDIIS/GDIIS optimizer.
 FormGI is forming the generalized inverse of G from B-inverse, IUseBI=4.
 Internal  Forces:  Max     0.003171788 RMS     0.000684540
 Search for a local minimum.
 Step number   4 out of a maximum of   52
 All quantities printed in internal units (Hartrees-Bohrs-Radians)
 Mixed Optimization -- En-DIIS/RFO-DIIS
 Update second derivatives using D2CorX and points    1    3    2    4
 DE= -5.59D-04 DEPred=-4.30D-04 R= 1.30D+00
 TightC=F SS=  1.41D+00  RLast= 1.48D-01 DXNew= 4.2426D-01 4.4411D-01
 Trust test= 1.30D+00 RLast= 1.48D-01 DXMaxT set to 4.24D-01
 ITU=  1 -1  1  0
 Use linear search instead of GDIIS.
     Eigenvalues ---    0.00230   0.00230   0.01127   0.01332   0.02318
     Eigenvalues ---    0.02602   0.02660   0.02971   0.02974   0.05156
     Eigenvalues ---    0.07963   0.15354   0.16000   0.16000   0.16000
     Eigenvalues ---    0.16000   0.16075   0.16172   0.16381   0.22249
     Eigenvalues ---    0.35121   0.35501   0.36035   0.42531   0.44076
     Eigenvalues ---    0.44093   0.44171   0.45830   0.55256   0.74304
 RFO step:  Lambda=-1.04870668D-04 EMin= 2.29998501D-03
 Quartic linear search produced a step of  0.07667.
 Iteration  1 RMS(Cart)=  0.02156251 RMS(Int)=  0.00007238
 Iteration  2 RMS(Cart)=  0.00016436 RMS(Int)=  0.00000176
 Iteration  3 RMS(Cart)=  0.00000002 RMS(Int)=  0.00000176
 Variable       Old X    -DE/DX   Delta X   Delta X   Delta X     New X
                                 (Linear)    (Quad)   (Total)
    R1        2.57815  -0.00317   0.00169  -0.00360  -0.00191   2.57624
    R2        2.06709  -0.00087   0.00046  -0.00182  -0.00136   2.06573
    R3        2.05978  -0.00035   0.00035  -0.00068  -0.00033   2.05945
    R4        2.60885  -0.00205   0.00170  -0.00194  -0.00024   2.60861
    R5        2.07135  -0.00047   0.00031  -0.00090  -0.00059   2.07076
    R6        1.93138  -0.00058  -0.00062  -0.00185  -0.00247   1.92890
    R7        1.90254   0.00010  -0.00022  -0.00008  -0.00030   1.90224
    R8        3.82750   0.00158   0.01022   0.04206   0.05228   3.87978
    R9        1.93014  -0.00022  -0.00005  -0.00056  -0.00061   1.92953
   R10        1.93014  -0.00021  -0.00005  -0.00055  -0.00060   1.92954
   R11        1.92862  -0.00027  -0.00006  -0.00073  -0.00079   1.92783
    A1        2.12799  -0.00017   0.00057  -0.00074  -0.00017   2.12783
    A2        2.08610   0.00010  -0.00129  -0.00011  -0.00141   2.08469
    A3        2.06909   0.00007   0.00073   0.00085   0.00158   2.07067
    A4        2.20697   0.00023   0.00019   0.00105   0.00124   2.20821
    A5        2.07801   0.00019  -0.00061   0.00087   0.00026   2.07827
    A6        1.99821  -0.00042   0.00042  -0.00192  -0.00150   1.99671
    A7        2.11232  -0.00038  -0.00055  -0.00177  -0.00232   2.11000
    A8        2.08735   0.00040  -0.00128   0.00181   0.00053   2.08788
    A9        2.08351  -0.00003   0.00184  -0.00005   0.00179   2.08530
   A10        1.85321  -0.00031  -0.00061  -0.00198  -0.00259   1.85062
   A11        1.85285  -0.00031  -0.00061  -0.00196  -0.00258   1.85027
   A12        2.18337   0.00009  -0.00053  -0.00075  -0.00128   2.18209
   A13        1.84747   0.00037   0.00040   0.00404   0.00444   1.85191
   A14        1.85181   0.00012   0.00076   0.00083   0.00158   1.85339
   A15        1.85176   0.00012   0.00075   0.00086   0.00160   1.85336
   A16        2.89007   0.00049  -0.00264   0.02252   0.01988   2.90995
   A17        3.14229  -0.00001   0.00003  -0.00181  -0.00178   3.14051
    D1        0.00002  -0.00000   0.00000  -0.00002  -0.00002   0.00000
    D2       -3.14151  -0.00000   0.00001  -0.00002  -0.00002  -3.14153
    D3        3.14157   0.00000  -0.00000   0.00001   0.00001   3.14158
    D4        0.00004   0.00000   0.00000   0.00000   0.00001   0.00004
    D5        0.00032  -0.00000   0.00001  -0.00004  -0.00003   0.00029
    D6        3.14151   0.00000   0.00000   0.00006   0.00007   3.14158
    D7       -3.14133  -0.00000   0.00001  -0.00004  -0.00003  -3.14136
    D8       -0.00013   0.00000   0.00000   0.00006   0.00007  -0.00007
    D9       -0.96574  -0.00013   0.00018  -0.00317  -0.00299  -0.96873
   D10        0.95832   0.00013  -0.00011   0.00314   0.00303   0.96135
   D11        3.13755  -0.00000   0.00004  -0.00050  -0.00046   3.13709
   D12        2.17569  -0.00013   0.00017  -0.00185  -0.00168   2.17401
   D13       -2.18343   0.00013  -0.00012   0.00445   0.00433  -2.17910
   D14       -0.00420   0.00000   0.00003   0.00082   0.00085  -0.00336
         Item               Value     Threshold  Converged?
 Maximum Force            0.003172     0.000450     NO 
 RMS     Force            0.000685     0.000300     NO 
 Maximum Displacement     0.050964     0.001800     NO 
 RMS     Displacement     0.021659     0.001200     NO 
 Predicted change in Energy=-5.418188D-05
 GradGradGradGradGradGradGradGradGradGradGradGradGradGradGradGradGradGrad

                          Input orientation:                          
 ---------------------------------------------------------------------
 Center     Atomic      Atomic             Coordinates (Angstroms)
 Number     Number       Type             X           Y           Z
 ---------------------------------------------------------------------
      1          6           0       -0.476576    0.111023   -0.247012
      2          6           0        0.006105   -1.143179   -0.476252
      3          1           0       -0.122858    0.722896    0.586919
      4          1           0       -1.237303    0.521844   -0.910498
      5          7           0        0.964489   -1.803059    0.266455
      6          1           0       -0.381581   -1.715857   -1.326264
      7          1           0        1.392609   -1.361046    1.080845
      8          1           0        1.245598   -2.732887    0.002470
      9          7           0        1.966176   -0.111830    2.605858
     10          1           0        2.284070    0.749987    2.159999
     11          1           0        1.111221    0.128569    3.109684
     12          1           0        2.661704   -0.337377    3.317272
 ---------------------------------------------------------------------
                    Distance matrix (angstroms):
                    1          2          3          4          5
     1  C    0.000000
     2  C    1.363288   0.000000
     3  H    1.093135   2.151557   0.000000
     4  H    1.089814   2.122954   1.877410   0.000000
     5  N    2.450312   1.380419   2.768659   3.411493   0.000000
     6  H    2.123982   1.095802   3.110422   2.431548   2.087166
     7  H    2.724709   2.096285   2.623627   3.798310   1.020732
     8  H    3.334059   2.071881   3.762538   4.194232   1.006623
     9  N    3.762389   3.795387   3.022738   4.798811   3.055560
    10  H    3.717948   3.965226   2.875520   4.677614   3.441634
    11  H    3.713329   3.962015   2.870630   4.672483   3.440446
    12  H    4.770113   4.700249   4.041385   5.815029   3.786323
                    6          7          8          9         10
     6  H    0.000000
     7  H    3.011281   0.000000
     8  H    2.334009   1.751129   0.000000
     9  N    4.852469   2.053092   3.763882   0.000000
    10  H    5.033896   2.532930   4.226554   1.021065   0.000000
    11  H    5.030705   2.532651   4.226200   1.021068   1.632065
    12  H    5.720508   2.767689   4.328017   1.020166   1.632253
                   11         12
    11  H    0.000000
    12  H    1.632237   0.000000
 Stoichiometry    C2H8N2
 Framework group  C1[X(C2H8N2)]
 Deg. of freedom    30
 Full point group                 C1      NOp   1
[...]
 07882,-0.00002577,-0.00001777,-0.00006854,-0.00015262,0.18044072,1.346
 44684,-0.00031587,0.00041904,-0.00000722,0.00055123,-0.00056913,0.0001
 8707,0.00005714,-0.00015575,-0.00017243,-0.00003232,-0.00001843,0.0000
 0941,-0.00015287,-0.00020388,0.00066326,-0.00008360,0.00004325,-0.0000
 3988,0.00043570,0.00159229,-0.00034745,-0.00010397,0.00005781,-0.00002
 858,-1.47061530,-0.48508917,-0.31760265,0.00010665,-0.00002789,0.00009
 783,-0.00028727,0.00019704,-0.00018679,0.00005880,0.00000135,0.0000272
 2,-0.00003029,-0.00005223,-0.00001198,0.00031039,-0.00002730,0.0001884
 2,0.00001705,-0.00002777,0.00001127,-0.00006735,0.00013658,-0.00012669
 ,0.00008146,0.00004639,0.00011821,0.03397318,-0.99036078,0.38172775,-0
 .04414192,-0.00008057,0.00026813,0.00015103,0.00010223,-0.00013658,0.0
 0013255,0.00012444,-0.00023967,0.00007894,-0.00001085,-0.00000732,-0.0
 0004055,-0.00022072,-0.00020459,0.00004057,-0.00000932,0.00000719,-0.0
 0003917,0.00045533,0.00093649,0.00017212,0.00002638,0.00002535,-0.0000
 2468,-0.99365307,-1.64002951,0.82494189,0.98255238,1.63264540,0.000037
 62,-0.00014636,-0.00006810,-0.00009562,0.00014477,-0.00003502,-0.00006
 776,0.00015721,-0.00008493,0.00000418,0.00000358,0.00001252,-0.0000658
 7,0.00008673,-0.00049675,0.00002693,-0.00001976,0.00002199,-0.00036057
 ,-0.00110800,0.00020450,0.00002174,-0.00008774,-0.00007743,0.37300014,
 0.80361239,0.19886214,-0.36449007,-0.81821842,-0.19168861,-0.00019543,
 -0.00023709,0.00000613,-0.00010264,0.00004040,-0.00014374,-0.00000840,
 0.00024192,0.00002437,0.00002863,0.00002205,0.00004521,-0.00072086,-0.
 00002629,0.00002204,0.00003687,0.00002365,-0.00001990,0.00155612,-0.00
 058149,-0.00110542,-0.00003880,-0.00009818,0.00009361,-2.02404119,0.80
 461218,1.07128242,0.00565476,0.00885033,-0.00502594,2.01330322,0.00006
 556,0.00010170,-0.00007697,0.00009918,-0.00003283,0.00013300,-0.000072
 30,-0.00010419,0.00000157,0.00000625,0.00002584,-0.00001024,-0.0000665
 7,-0.00003543,-0.00043008,-0.00002017,-0.00000118,0.00000843,0.0000909
 6,0.00017559,0.00043638,-0.00003266,0.00000970,0.00004082,0.81910279,0
 .31381441,-0.33044618,-0.00275079,-0.00175722,0.00263697,-0.81521922,-
 0.31627654,0.00008850,0.00002109,0.00009053,-0.00025481,0.00017764,-0.
 00011175,0.00004032,-0.00003880,0.00003748,-0.00001690,-0.00004212,-0.
 00005888,0.00008535,-0.00007143,-0.00014731,0.00002373,-0.00003532,-0.
 00000451,0.00003605,-0.00018179,0.00009801,0.00002650,0.00000514,0.000
 05789,1.08850847,-0.32958985,0.12287037,-0.00650390,-0.00416414,-0.001
 38649,-1.06230046,0.32589711,-0.11937376,-0.00002791,-0.00002911,0.000
 00664,0.00001439,-0.00001706,-0.00000459,0.00008972,0.00001684,0.00005
 956,0.00001234,0.00002408,0.00001854,-0.00012634,-0.00002270,0.0000734
 6,0.00000788,0.00000744,-0.00000470,0.00017219,0.00011007,-0.00008816,
 0.00001639,0.00000791,0.00004233,-0.00350694,0.00575472,0.01724970,0.0
 0432454,0.00186342,-0.00298477,0.00452772,-0.00120303,-0.01973283,-0.0
 0550400,0.00005582,-0.00003685,0.00004404,-0.00023221,0.00018786,-0.00
 010612,-0.00000508,-0.00002319,-0.00002302,-0.00001405,-0.00003863,-0.
 00002028,0.00009727,-0.00000079,0.00026028,0.00004035,-0.00001700,-0.0
 0000613,0.00005784,-0.00009016,-0.00037561,-0.00002979,-0.00000502,0.0
 0004636,-0.00614230,-0.01929002,-0.01057174,0.01031301,0.00849234,0.01
 293861,0.00237174,0.00408015,0.00802247,-0.00651259,0.00674131,0.00006
 135,-0.00008591,0.00004641,-0.00012605,0.00014889,-0.00005815,0.000091
 28,-0.00004993,0.00019366,0.00001666,0.00001894,-0.00000860,0.00007728
 ,0.00014217,0.00010693,0.00002566,-0.00000707,0.00001005,-0.00013791,-
 0.00015553,-0.00015543,0.00004700,0.00000965,0.00007561,0.00830948,0.0
 1140861,-0.00439402,-0.01085127,-0.00303013,-0.00526382,-0.00287831,0.
 00180918,-0.00207158,0.00536482,-0.01020886,0.01151895,0.00000705,-0.0
 0011402,0.00002562,-0.00014014,0.00003860,-0.00038372,-0.00011662,0.00
 001034,0.00002500,0.00000647,0.00003357,0.00009098,-0.00002669,0.00017
 494,-0.00003354,0.00007459,-0.00003637,-0.00000629,-0.00012937,0.00000
 023,0.00021661,0.00014450,0.00009425,0.00005159,-0.00003230,0.00002307
 ,-0.00009536,-0.00011442,0.00000263,0.00003372,-0.00018975,-0.00005536
 ,0.00003712,0.00005381,-0.00007083,-0.00005847,0.00011723,0.00001951,0
 .00033972,-0.00007694,0.00006924,-0.00006647,-0.00006448,0.00005633,-0
 .00018946,0.00002090,0.00007058,0.00003946,0.00001997,-0.00003272,-0.0
 0001224,-0.00004705,-0.00003550,-0.00001090,0.00000372,0.00002095,-0.0
 0009766,0.00004299,0.00001430,0.00003685,0.00002170,-0.00003034,-0.000
 00929,-0.00004302,-0.00002328,0.00006419,0.00002974,0.00003743,0.00003
 618,-0.00002144,0.00001215,0.00001763,-0.00001607,-0.00003597,-0.00007
 358,-0.00001198,-0.00002095,-0.00001198,-0.00002402,0.00012751,-0.0000
 2689,0.00020261,-0.00017300,0.00012763,0.00004351,0.00000084,0.0000143
 9,-0.00001016,0.00000025,0.00002225,0.00000870,0.00009429,-0.00006416,
 0.00000436,-0.00011056,-0.00007110,-0.00010056,-0.00003381,0.00001643,
 -0.00000949,0.00001347,0.00000033,0.00000939,0.00005138,0.00047734,-0.
 00005587,-0.00007951,0.00014430,0.00004570,0.00000664,-0.00019781,0.00
 004090,-0.00000048,-0.00000915,0.00002883,0.00000333,-0.00001602,-0.00
 019185,0.00001213,0.00039472,0.00000505,-0.00000016,-0.00004117,-0.000
 05506,-0.00000837,0.00004573,-0.00000401,-0.00000107,0.00002685,-0.000
 00361,-0.00000393,-0.00000139,0.00002442,-0.00000977,-0.00000534,0.000
 02890,0.00002863,0.00000397,0.00002256,-0.00002509,-0.00000382,0.00004
 143,-0.00001282,-0.00000173,-0.00001703,-0.00000185,0.00000662,-0.0000
 0608,-0.00002080,0.00002022,-0.00001597,0.00002225,-0.00003008,-0.0000
 2109,-0.00001253,0.00001619,0.00002197,0.00004130,-0.00003144,0.000023
 82,0.00001416,-0.00000493,-0.00000397,0.00000586,-0.00000571,-0.000002
 35,-0.00000817,0.00001331,-0.00000284,-0.00001876,0.00001870,0.0000008
 6,-0.00011736,0.00007418,-0.00004528,-0.00001515,-0.00000428,0.0000217
 1,0.00004296,-0.00003160,0.00001793,0.00001595,-0.00000396,-0.00040206
 ,0.00003535,0.00028571,0.00002214,0.00000483,-0.00001566,0.00086753,-0
 .00006078,-0.00000293,0.00007716,-0.00006658,-0.00004512,0.00004094,0.
 00003463,0.00001316,-0.00007951,0.00000092,-0.00000098,0.00001229,0.00
 005545,-0.00041701,-0.00002273,0.00000236,0.,-0.00001150,0.00002228,0.
 00066555,0.00005960,0.00006839,-0.00012966,-0.00001493,0.00006912,0.00
 005726,-0.00003949,-0.00002570,0.00001937,-0.00001420,-0.00001951,0.00
 001508,0.00022686,-0.00008233,-0.00035510,-0.00000886,-0.00000757,0.00
 000201,-0.00040178,-0.00002930,0.00052853,0.00000677,-0.00002861,0.000
 01180,-0.00004329,0.00005212,-0.00002588,-0.00001351,0.00001071,0.0000
 0844,0.00000197,0.00000658,-0.00001174,0.00012114,-0.00004755,-0.00006
 810,-0.00000627,-0.00000511,0.00001722,-0.00009699,0.00000834,0.000060
 38,-0.00000531,-0.00000153,0.00000969,-0.00002503,0.00001353,-0.000013
 49,0.00000982,-0.00000352,-0.00000211,0.00000948,-0.00000277,-0.000001
 70,0.00000126,-0.00003532,-0.00010395,0.00005606,-0.00000045,0.0000047
 5,-0.00000493,0.00001863,0.00009000,-0.00007712,0.00000043,0.00006639,
 0.00001124,0.00002085,0.00000201,0.00000880,-0.00002770,0.00000533,-0.
 00000416,0.00000602,0.00000473,-0.00000298,-0.00000317,0.00000597,-0.0
 0005036,0.00005054,0.00000339,0.00000974,-0.00000615,-0.00000346,0.000
 03751,-0.00006244,-0.00003662,0.00000527,0.00000147,0.00001274,0.00006
 980,0.00001349,-0.00009030,-0.00025791,0.00009255,0.00013468,-0.000140
 19,-0.00003593,-0.00004432,-0.00003927,-0.00004423,0.00001927,0.000273
 49,-0.00041524,-0.00010645,0.00004809,0.00000257,-0.00005538,-0.001227
 67,0.00030452,-0.00052360,0.00000560,-0.00001568,-0.00008195,1.0593898
 5,-0.00020360,-0.00017012,0.00008942,0.00057409,-0.00033521,-0.0001257
 8,-0.00000837,0.00012477,-0.00004202,0.00005861,0.00006578,0.00003561,
 -0.00028279,0.00084787,0.00024729,-0.00005405,0.00002635,0.00000150,0.
 00049693,-0.00116394,0.00114133,0.00001687,0.00004597,0.00009474,-0.34
 485256,0.11048913,-0.00003623,0.00007076,-0.00021577,-0.00013807,-0.00
 007879,0.00014955,-0.00005867,-0.00000138,-0.00020869,-0.00006195,-0.0
 0005712,-0.00001826,0.00033221,-0.00022526,0.00021740,-0.00000989,0.00
 000492,-0.00003023,-0.00013961,0.00078100,-0.00085984,-0.00009051,-0.0
 0001873,-0.00005467,1.43852255,-1.17085583,1.86704249,-0.00008599,0.00
 010048,0.00014106,-0.00001238,-0.00001979,-0.00003652,0.00006063,-0.00
 008060,-0.00010188,-0.00002253,-0.00004341,-0.00005138,-0.00001023,-0.
 00014146,0.00013777,-0.00000112,-0.00001108,-0.00002557,0.00027115,0.0
 0049332,0.00006241,-0.00002006,0.00000761,-0.00004470,-0.04254670,-0.4
 3918994,0.16498892,0.04557523,0.00010491,0.00010252,0.00000764,-0.0001
 9686,0.00013572,0.00000972,-0.00004747,-0.00016100,0.00008064,-0.00001
 061,-0.00003060,-0.00002638,0.00022812,-0.00014298,0.00012479,0.000018
 57,-0.00001729,-0.00000054,-0.00007240,0.00022960,-0.00003732,0.000005
 08,0.00000970,-0.00001955,-0.44597523,-0.62411941,0.31771534,0.4514481
 4,0.62214515,0.00002540,-0.00013192,0.00001311,-0.00012928,0.00011565,
 -0.00006355,-0.00002381,0.00012551,-0.00001771,0.00000171,-0.00000444,
 -0.00001028,-0.00003247,0.00006841,-0.00011526,0.00002440,-0.00000892,
 0.00000082,-0.00005731,-0.00041083,-0.00006359,-0.00000098,-0.00003453
 ,0.00003744,0.15801129,0.29599640,0.08061132,-0.17526706,-0.30616418,-
 0.09517630,-0.00009453,-0.00011251,0.00004586,0.00005440,-0.00004003,-
 0.00001256,-0.00000485,0.00014730,0.00000701,0.00001760,0.00001835,0.0
 0002006,-0.00032978,0.00008987,-0.00002835,0.00000343,0.00001298,-0.00
 001008,0.00044602,-0.00021014,-0.00033073,0.00000943,-0.00002400,0.000
 06425,-0.45290664,0.13751247,0.25763729,-0.00312094,0.00473198,0.00734
 388,0.45895229,0.00000810,-0.00011530,0.00008344,-0.00013954,0.0001281
 9,-0.00004586,0.00005645,0.00009561,-0.00000217,0.00001826,0.00001753,
 -0.00000384,0.00004517,-0.00005657,0.00013433,0.00003203,0.00000107,0.
 00000627,0.00010659,-0.00007110,-0.00033946,-0.00001112,-0.00002496,0.
 00000327,0.15527059,0.08348494,-0.06904693,-0.01109322,0.00646675,0.00
 688282,-0.14294223,-0.09036747,0.00007137,0.00008629,-0.00000666,-0.00
 011840,0.00011293,-0.00004973,-0.00000149,-0.00010825,-0.00001584,-0.0
 0002401,-0.00004908,-0.00001668,0.00013544,0.00002114,0.00000567,0.000
 01132,-0.00002823,0.00000301,-0.00018614,-0.00006655,0.00008933,-0.000
 00661,0.00001265,0.00001372,0.27443202,-0.06754948,-0.00984097,0.00461
 396,-0.00304634,0.00538471,-0.28332798,0.07039907,-0.00352519,0.000066
 20,-0.00004399,-0.00009048,0.00027941,-0.00008720,-0.00006640,0.000085
 98,0.00007485,0.00015620,0.00004052,0.00006882,0.00002666,0.00010239,0
 .00047401,-0.00008295,-0.00006197,0.00000547,0.00007391,0.00012466,-0.
 00058433,0.00092434,0.00004052,0.00004308,0.00004735,-0.56266844,0.645
 93233,-1.86094605,-0.00008705,-0.01023422,0.01010424,-0.00302645,-0.00
 135107,0.00440053,0.56510423,0.00008687,0.00018366,-0.00012470,-0.0001
 9323,0.00007345,0.00013092,-0.00000124,-0.00008822,-0.00004198,-0.0000
 5513,-0.00005108,-0.00001492,0.00000319,-0.00050642,-0.00046588,0.0000
 0260,-0.00001003,-0.00001265,-0.00053860,0.00070276,-0.00066053,-0.000
 00774,-0.00008029,-0.00005787,0.63565513,0.43070387,0.92171203,-0.0014
 7006,-0.00461814,0.00356601,0.00081595,0.00044132,0.00021586,-0.634297
 75,-0.42675087,-0.00013586,-0.00008151,0.00019057,0.00052697,-0.000294
 07,-0.00003105,0.00018722,0.00010569,0.00022202,0.00007223,0.00012342,
 0.00007766,-0.00055485,0.00025985,-0.00008545,-0.00004854,0.00003980,0
 .00002174,0.00044294,-0.00022854,0.00073324,0.00010071,0.00006960,0.00
 000942,-1.87021783,0.94096681,-1.93679232,0.00558298,-0.00864383,0.009
 39931,0.01859136,-0.00807095,0.00795862,1.84545266,-0.92424629,1.91829
 624,-0.00319332,0.00219080,-0.00204221,-0.00027875,-0.00143723,-0.0005
 2234,0.00594131,-0.00396658,-0.00153463,-0.02092992,0.00035713,0.00168
 052,0.00467321,0.01216933,-0.00974065,0.00157543,-0.00053742,0.0004678
 4,-0.00995617,0.00222903,-0.00288604,-0.00029084,-0.00042594,0.0001112
 9,-0.00029022,0.00027928,-0.00011054,0.00034287,0.00010438,0.00019097,
 0.00006499,0.00020215,-0.00015046,-0.00002086,-0.00020559,-0.00003366,
 -0.00005945,0.00069347,-0.00080703,0.00064087,-0.00028592,0.00043131,-
 0.00009993,-0.00005525,0.00026222,-0.00005587,-0.00050638,-0.00046093,
 -0.00002679,0.00098533,-0.00006878,0.00017044,0.00001642,-0.00018252,-
 0.00040958,0.00000270,0.00036609,-0.00012506,-0.00046840,-0.00028900,-
 0.00026512,0.00011704,0.00004035,-0.00019636,0.00011359,-0.00020027,-0
 .00000919,0.00059752,-0.00009383,0.00041976,-0.00162523,0.00035971,0.0
 0001526,0.00006092,0.00009381,0.00031949,-0.00001969,0.00039562,-0.001
 66598,0.00405720,0.00383468,0.02669737,-0.04285027,0.01468916,-0.00035
 413,-0.00040189,0.00013218,0.00095226,-0.00048186,-0.00118440,-1.06733
 226,0.00218019,-0.00126864,-0.00144624,-0.01188800,-0.00870186,-0.0058
 5903,-0.00009238,0.00037287,-0.00002074,-0.00015367,-0.00056563,0.0005
 7716,0.20898323,4.71269404,-0.00086618,0.00046565,0.00133594,0.0110756
 0,-0.00899075,-0.00065059,0.00058618,-0.00001494,-0.00036605,0.0005272
 8,0.00071778,-0.00108349,0.22233597,-0.06079251,-0.60057736,0.00006578
 ,0.00027858,-0.00020497,-0.00013509,-0.00104026,-0.00091360,0.00005950
 ,-0.00000363,-0.00012272,-0.00011371,-0.00010692,0.00023265,-0.0019288
 3,-0.00021845,-0.00109451,-0.00036942,0.00037067,-0.00018082,-0.000273
 89,-0.00041428,0.00184612,-0.00049300,-0.00013187,0.00001553,0.0001737
 4,-0.00006909,0.00004579,0.00003695,0.00210804,0.00099177,0.00079343,0
 .00139915,-0.00147540,0.00005782,-0.00014168,0.00002957,0.00050668,-0.
 00232192,0.00041248,-0.00016652,0.00001547,0.00019329,0.00010614,0.000
 16976,-0.00020040,-0.00309880,0.00222008,-0.00093723,-0.00003009,0.001
 77330,-0.00019835,0.00008652,-0.00098709,-0.00004652,-0.00184127,0.003
 81559,-0.00049332,0.00007432,-0.00004462,-0.00003638,-0.00005764,0.000
 06099,0.00007890,0.04384405,-0.09311059,-0.21222912,0.00054662,-0.0004
 0729,0.00033225,-0.03742392,-0.00025987,-0.00034233,-0.00054584,0.0036
 8728,0.00229080,0.00001561,0.00028081,0.00001969,-0.00039653,-0.000301
 88,-0.00039322,0.00060588,-0.09362809,0.02435031,-0.20956761,0.0003757
 8,-0.00019330,-0.00008013,0.09155487,-0.03802932,-0.00009529,-0.000213
 34,-0.00023039,0.00153157,-0.00021606,0.00300114,-0.00005660,-0.000242
 97,0.00012374,-0.00003468,-0.00013466,-0.00001473,-0.21254869,-0.22566
 939,-0.39136101,0.00050940,-0.00021347,-0.00020967,0.21380794,0.219218
 63,0.39123816,-0.00080891,-0.00064763,-0.00144458,-0.00961021,0.026428
 61,-0.00483079,0.00025301,0.00031279,-0.00024985,-0.00046116,0.0007419
 7,0.00011422,0.99989783,-0.10517105,-0.02054672,0.00189135,-0.00286520
 ,0.00231949,-0.00405970,-0.00236077,-0.00437497,-0.98715947,-0.0047836
 7,0.00149762,-0.00080925,0.00025607,0.01323591,0.00452137,0.00017231,-
 0.00048827,0.00007573,-0.00008085,0.00094116,-0.00023271,-0.07770240,-
 4.72590072,0.27773604,-0.00058020,-0.00104551,-0.00161161,-0.00163824,
 0.01175351,0.00421692,0.08385492,4.69883496,-0.00003596,0.00045318,-0.
 00004647,-0.00370638,0.00675790,-0.00174211,-0.00032787,0.00013833,0.0
 0009210,-0.00019884,-0.00022410,0.00050430,-0.02377398,0.29321739,0.99
 342804,0.00173278,-0.00174520,0.00094870,-0.00269801,-0.01201492,-0.00
 606603,0.02971846,-0.28529899,-0.98475361,-0.00008741,0.00002568,0.000
 05255,0.00017459,-0.00019323,0.00017054,0.00003518,0.00002684,-0.00001
 895,0.00000507,0.00002089,-0.00000110,0.00006116,-0.00046760,-0.000042
 71,0.00000273,0.00002080,-0.00003854,-0.00127261,0.00062141,0.00127958
 ,-0.00003446,0.00050282,-0.00056207,0.00137988,-0.00006522,0.00002310,
 -0.00011506,0.00011605,-0.00001849,0.00025728,-0.00000264,0.00002933,0
 .00000901,-0.00000555,0.00003598,0.00000296,0.00016506,-0.00152512,-0.
 00030710,-0.00009340,-0.00000440,0.00000529,0.00046179,-0.00007501,0.0
 0250202,-0.00020480,0.00095364,-0.00092432,-0.00039648,0.00201343,-0.0
 0022727,0.00011034,-0.00003869,0.00085141,-0.00019664,0.00052929,0.000
 04566,0.00003049,-0.00001351,0.00001507,0.00005670,0.00001526,-0.00025
 435,-0.00186366,0.00010406,-0.00006830,-0.00003315,-0.00002800,0.00100
 957,0.00237585,0.00268806,-0.00064737,0.00129092,-0.00192725,-0.000505
 68,-0.00047946,0.00040906,0.00000626,-0.00002239,-0.00001937,-0.000020
 90,0.00007056,-0.00005729,-0.00000538,-0.00000997,-0.00000697,-0.00000
 345,-0.00000440,0.00001044,-0.00002751,0.00005767,0.00025277,-0.000007
 99,-0.00001034,0.00001061,-0.00002252,0.00004359,-0.00014594,0.0000270
 5,-0.00010618,-0.00007344,0.00002819,-0.00015485,-0.00000451,-0.000052
 93,-0.00001035,-0.00001490,0.00000014,-0.00002857,-0.00002825,-0.00001
 570,-0.00000147,0.00000526,0.00000682,0.00000277,0.00000606,-0.0000021
 4,0.00004472,-0.00011212,0.00014757,-0.00000715,0.00001393,-0.00000852
 ,-0.00001857,-0.00001337,0.00006335,-0.00003608,-0.00004558,-0.0000452
 3,0.00002226,-0.00020343,-0.00056726,0.00008530,0.00027534,-0.00002974
 ,0.00001291,-0.00002802,0.00002553,-0.00005787,0.00001866,-0.00000098,
 0.00000037,-0.00000126,-0.00001211,0.00000771,0.00000575,-0.00005174,-
 0.00017517,-0.00003967,-0.00002533,0.00001141,-0.00000930,-0.00008148,
 0.00001547,0.00053264,0.00001907,-0.00002457,-0.00004988,0.00023291,0.
 00010625,-0.00105505,-0.00000706,0.00018881,0.00052855,-0.00000988,0.0
 0001280,-0.00002180,0.00006794,-0.00000804,0.00000355,0.00000686,-0.00
 000050,-0.00000319,-0.00000474,0.00000426,0.00000155,-0.00014942,-0.00
 016084,-0.00010060,-0.00002181,-0.00000422,0.00000406,0.00020500,0.000
 16442,0.00027953,0.00005646,0.00007650,-0.00006350,-0.00031504,-0.0000
 0465,-0.00006099,0.00002966,-0.00004376,-0.00008116,0.00011725,-0.0000
 2269,0.00004121,0.00000302,0.00009916,-0.00004914,0.00002855,0.0000024
 6,0.00000024,0.00000319,-0.00000418,0.00000608,0.00000209,-0.00006788,
 -0.00011962,-0.00001957,-0.00000400,-0.00000227,-0.00000451,0.00034225
 ,0.00002831,0.00008798,-0.00002073,0.00006291,-0.00007718,-0.00051664,
 -0.00029961,-0.00040473,0.00003538,0.00011271,0.00001827,0.00003474,0.
 00020416,-0.00001247,-0.00000759,-0.00004896,0.00004228,0.00005618,-0.
 00003351,0.00000355,0.00000914,-0.00001283,-0.00001368,0.00000396,0.00
 000984,-0.00003589,-0.00008151,0.00016380,-0.00002445,-0.00002290,0.00
 001280,0.00038339,0.00010558,0.00008381,-0.00000680,-0.00001737,-0.000
 17535,-0.00054451,-0.00044236,-0.00036366,0.00000014,0.00007887,0.0000
 0198,0.00008532,0.00033031,0.00027557,0.00001234,-0.00000903,0.0000130
 5,-0.00002681,-0.00001406,-0.00000819,-0.00000163,0.00000363,0.0000069
 1,0.00000518,0.00000012,0.00000241,0.00000545,0.00004149,0.00010205,0.
 00001087,0.00000362,-0.00000310,-0.00007885,-0.00017754,-0.00015186,0.
 00000820,0.00002891,-0.00001120,0.00002272,0.00018469,-0.00015324,0.00
 004951,-0.00000910,0.00001210,0.00001772,0.00012214,0.00012313,-0.0000
 2471,-0.00006406,0.00004936,0.00001121,0.00023576,-0.00007547,0.000139
 28,0.00000799,-0.00000186,-0.00000717,0.00000348,0.00000662,-0.0000037
 3,-0.00022587,-0.00021527,-0.00016799,0.00000050,-0.00001143,-0.000015
 51,-0.00002908,0.00060392,0.00060097,-0.00003202,0.00020039,-0.0002368
 7,0.00033326,-0.00092939,-0.00031940,0.00001561,0.00000434,-0.00010359
 ,-0.00007072,0.00001503,-0.00001232,-0.00017485,0.00035376,-0.00001894
 ,0.00000418,-0.00001763,0.00010348,-0.00002192,0.00009183,0.00000049,0
 .00001429,0.00000421,0.00000357,0.00000907,0.00000817,-0.00004412,-0.0
 0010638,-0.00001644,0.00000915,-0.00000722,-0.00001388,-0.00002723,0.0
 0026800,0.00021428,-0.00007016,0.00015351,-0.00021245,-0.00002203,-0.0
 0061452,-0.00031956,0.00004062,0.00015329,0.00009562,-0.00004277,0.000
 03257,0.00008651,0.00006794,0.00011512,0.00007933\\@
 The archive entry for this job was punched.


 GROWING OLD ISN'T SO BAD -- WHEN YOU CONSIDER THE ALTERNATIVE.

                     -- MAURICE CHEVALIER
 Job cpu time:       1 days  6 hours 48 minutes 59.1 seconds.
 Elapsed time:       0 days  1 hours 18 minutes 11.6 seconds.
 File lengths (MBytes):  RWF=   3028 Int=      0 D2E=      0 Chk=     46 Scr=      1
 Normal termination of Gaussian 16 at Fri Apr  4 15:59:13 2025.
