 Entering Gaussian System, Link 0=g16
 Input=vinylaminet_nh3_mp2_avdz_opt_anharm.gjf
 Output=vinylaminet_nh3_mp2_avdz_opt_anharm.log
 Initial command:
 /sw/contrib/chem-src/g16/c01/g16/l1.exe "/scr/Gau-57556.inp" -scrdir="/scr/"
 Entering Link 1 = /sw/contrib/chem-src/g16/c01/g16/l1.exe PID=     57557.
  
 Copyright (c) 1988-2019, Gaussian, Inc.  All Rights Reserved.
  
 This is part of the Gaussian(R) 16 program.  It is based on
 the Gaussian(R) 09 system (copyright 2009, Gaussian, Inc.),
 the Gaussian(R) 03 system (copyright 2003, Gaussian, Inc.),
 the Gaussian(R) 98 system (copyright 1998, Gaussian, Inc.),
 the Gaussian(R) 94 system (copyright 1995, Gaussian, Inc.),
 the Gaussian 92(TM) system (copyright 1992, Gaussian, Inc.),
 the Gaussian 90(TM) system (copyright 1990, Gaussian, Inc.),
 the Gaussian 88(TM) system (copyright 1988, Gaussian, Inc.),
 the Gaussian 86(TM) system (copyright 1986, Carnegie Mellon
 University), and the Gaussian 82(TM) system (copyright 1983,
 Carnegie Mellon University). Gaussian is a federally registered
 trademark of Gaussian, Inc.
  
 This software contains proprietary and confidential information,
 including trade secrets, belonging to Gaussian, Inc.
  
 This software is provided under written license and may be
 used, copied, transmitted, or stored only in accord with that
 written license.
  
 The following legend is applicable only to US Government
 contracts under FAR:
  
                    RESTRICTED RIGHTS LEGEND
  
 Use, reproduction and disclosure by the US Government is
 subject to restrictions as set forth in subparagraphs (a)
 and (c) of the Commercial Computer Software - Restricted
 Rights clause in FAR 52.227-19.
  
 Gaussian, Inc.
 340 Quinnipiac St., Bldg. 40, Wallingford CT 06492
  
  
 ---------------------------------------------------------------
 Warning -- This program may not be used in any manner that
 competes with the business of Gaussian, Inc. or will provide
 assistance to any competitor of Gaussian, Inc.  The licensee
 of this program is prohibited from giving any competitor of
 Gaussian, Inc. access to this program.  By using this program,
 the user acknowledges that Gaussian, Inc. is engaged in the
 business of creating and licensing software in the field of
 computational chemistry and represents and warrants to the
 licensee that it is not a competitor of Gaussian, Inc. and that
 it will not use this program in any manner prohibited above.
 ---------------------------------------------------------------
  

 Cite this work as:
 Gaussian 16, Revision C.01,
 M. J. Frisch, G. W. Trucks, H. B. Schlegel, G. E. Scuseria, 
 M. A. Robb, J. R. Cheeseman, G. Scalmani, V. Barone, 
 G. A. Petersson, H. Nakatsuji, X. Li, M. Caricato, A. V. Marenich, 
 J. Bloino, B. G. Janesko, R. Gomperts, B. Mennucci, H. P. Hratchian, 
 J. V. Ortiz, A. F. Izmaylov, J. L. Sonnenberg, D. Williams-Young, 
 F. Ding, F. Lipparini, F. Egidi, J. Goings, B. Peng, A. Petrone, 
 T. Henderson, D. Ranasinghe, V. G. Zakrzewski, J. Gao, N. Rega, 
 G. Zheng, W. Liang, M. Hada, M. Ehara, K. Toyota, R. Fukuda, 
 J. Hasegawa, M. Ishida, T. Nakajima, Y. Honda, O. Kitao, H. Nakai, 
 T. Vreven, K. Throssell, J. A. Montgomery, Jr., J. E. Peralta, 
 F. Ogliaro, M. J. Bearpark, J. J. Heyd, E. N. Brothers, K. N. Kudin, 
 V. N. Staroverov, T. A. Keith, R. Kobayashi, J. Normand, 
 K. Raghavachari, A. P. Rendell, J. C. Burant, S. S. Iyengar, 
 J. Tomasi, M. Cossi, J. M. Millam, M. Klene, C. Adamo, R. Cammi, 
 J. W. Ochterski, R. L. Martin, K. Morokuma, O. Farkas, 
 J. B. Foresman, and D. J. Fox, Gaussian, Inc., Wallingford CT, 2019.
 
 ******************************************
 Gaussian 16:  EM64L-G16RevC.01  3-Jul-2019
                 9-Apr-2025 
 ******************************************
 %nprocshared=40
 Will use up to   40 processors via shared memory.
 %mem=50gb
 ----------------------------------------------
 # MP2/aug-cc-pVDZ opt freq=(vibrot,anharmonic)
 ----------------------------------------------
 1/18=20,19=15,38=1,80=1/1,3;
 2/9=110,12=2,17=6,18=5,40=1/2;
 3/5=16,7=10,11=9,25=1,30=1,71=1/1,2,3;
 4//1;
 5/5=2,38=5/2;
 8/6=4,10=1/1;
 9/15=2,16=-3/6;
 10/5=1/2;
 6/7=2,8=2,9=2,10=2/1;
 7/12=2/1,2,3,16;
 1/18=20,19=15,80=1/3(2);
 2/9=110/2;
 99//99;
 2/9=110/2;
 3/5=16,7=10,11=9,25=1,30=1,71=1/1,2,3;
 4/5=5,16=3,69=1/1;
 5/5=2,38=5/2;
 8/6=4,10=1/1;
 9/15=2,16=-3/6;
 10/5=1/2;
 7/12=2/1,2,3,16;
 1/18=20,19=15,80=1/3(-8);
 2/9=110/2;
 6/7=2,8=2,9=2,10=2/1;
 99/9=10/99;
 ----
 blah
 ----
 Symbolic Z-matrix:
 Charge =  0 Multiplicity = 1
 C                    -2.4982   -0.22549   0.00529 
 C                    -1.18045  -0.42837  -0.00312 
 H                    -2.91759   0.77395   0.00395 
 H                    -3.18618  -1.06358   0.01362 
 N                    -0.22649   0.52979  -0.01448 
 H                    -0.78066  -1.44082  -0.00166 
 H                    -0.5678    1.47554   0.0874 
 H                     0.64515   0.27135   0.46534 
 N                     2.23344   0.18001   1.54969 
 H                     2.86955  -0.61742   1.60687 
 H                     2.82773   0.97982   1.32519 
 H                     1.91529   0.33688   2.50772 
 
 Add virtual bond connecting atoms N9         and H8         Dist= 3.64D+00.

 GradGradGradGradGradGradGradGradGradGradGradGradGradGradGradGradGradGrad
 Berny optimization.
 Initialization pass.
                           ----------------------------
                           !    Initial Parameters    !
                           ! (Angstroms and Degrees)  !
 --------------------------                            --------------------------
 ! Name  Definition              Value          Derivative Info.                !
 --------------------------------------------------------------------------------
 ! R1    R(1,2)                  1.3333         estimate D2E/DX2                !
 ! R2    R(1,3)                  1.0839         estimate D2E/DX2                !
 ! R3    R(1,4)                  1.0843         estimate D2E/DX2                !
 ! R4    R(2,5)                  1.3521         estimate D2E/DX2                !
 ! R5    R(2,6)                  1.0885         estimate D2E/DX2                !
 ! R6    R(5,7)                  1.0106         estimate D2E/DX2                !
 ! R7    R(5,8)                  1.028          estimate D2E/DX2                !
 ! R8    R(8,9)                  1.9253         estimate D2E/DX2                !
 ! R9    R(9,10)                 1.0217         estimate D2E/DX2                !
 ! R10   R(9,11)                 1.0214         estimate D2E/DX2                !
 ! R11   R(9,12)                 1.0216         estimate D2E/DX2                !
 ! A1    A(2,1,3)              121.5156         estimate D2E/DX2                !
 ! A2    A(2,1,4)              120.6311         estimate D2E/DX2                !
 ! A3    A(3,1,4)              117.8533         estimate D2E/DX2                !
 ! A4    A(1,2,5)              126.1234         estimate D2E/DX2                !
 ! A5    A(1,2,6)              120.2988         estimate D2E/DX2                !
 ! A6    A(5,2,6)              113.5777         estimate D2E/DX2                !
 ! A7    A(2,5,7)              115.089          estimate D2E/DX2                !
 ! A8    A(2,5,8)              114.5922         estimate D2E/DX2                !
 ! A9    A(7,5,8)              118.3319         estimate D2E/DX2                !
 ! A10   A(8,9,10)             125.6038         estimate D2E/DX2                !
 ! A11   A(8,9,11)             108.6055         estimate D2E/DX2                !
 ! A12   A(8,9,12)             105.3061         estimate D2E/DX2                !
 ! A13   A(10,9,11)            105.1421         estimate D2E/DX2                !
 ! A14   A(10,9,12)            105.1452         estimate D2E/DX2                !
 ! A15   A(11,9,12)            105.491          estimate D2E/DX2                !
 ! A16   L(5,8,9,6,-1)         190.663          estimate D2E/DX2                !
 ! A17   L(5,8,9,6,-2)         188.7753         estimate D2E/DX2                !
 ! D1    D(3,1,2,5)             -0.0274         estimate D2E/DX2                !
 ! D2    D(3,1,2,6)           -179.9952         estimate D2E/DX2                !
 ! D3    D(4,1,2,5)            179.9655         estimate D2E/DX2                !
 ! D4    D(4,1,2,6)             -0.0023         estimate D2E/DX2                !
 ! D5    D(1,2,5,7)              6.5219         estimate D2E/DX2                !
 ! D6    D(1,2,5,8)            148.7611         estimate D2E/DX2                !
 ! D7    D(6,2,5,7)           -173.5084         estimate D2E/DX2                !
 ! D8    D(6,2,5,8)            -31.2692         estimate D2E/DX2                !
 ! D9    D(2,5,9,10)            48.52           estimate D2E/DX2                !
 ! D10   D(2,5,9,11)           175.2906         estimate D2E/DX2                !
 ! D11   D(2,5,9,12)           -74.2133         estimate D2E/DX2                !
 ! D12   D(7,5,9,10)          -174.4198         estimate D2E/DX2                !
 ! D13   D(7,5,9,11)           -47.6492         estimate D2E/DX2                !
 ! D14   D(7,5,9,12)            62.8469         estimate D2E/DX2                !
 --------------------------------------------------------------------------------
 Trust Radius=3.00D-01 FncErr=1.00D-07 GrdErr=1.00D-07 EigMax=2.50D+02 EigMin=1.00D-04
 Number of steps in this run=     52 maximum allowed number of steps=    100.
 GradGradGradGradGradGradGradGradGradGradGradGradGradGradGradGradGradGrad

                          Input orientation:                          
 ---------------------------------------------------------------------
 Center     Atomic      Atomic             Coordinates (Angstroms)
 Number     Number       Type             X           Y           Z
 ---------------------------------------------------------------------
      1          6           0       -2.498200   -0.225487    0.005288
      2          6           0       -1.180447   -0.428366   -0.003119
      3          1           0       -2.917594    0.773948    0.003946
      4          1           0       -3.186179   -1.063584    0.013618
      5          7           0       -0.226486    0.529786   -0.014475
      6          1           0       -0.780658   -1.440821   -0.001662
      7          1           0       -0.567804    1.475539    0.087403
      8          1           0        0.645153    0.271353    0.465341
      9          7           0        2.233437    0.180014    1.549693
     10          1           0        2.869548   -0.617420    1.606867
     11          1           0        2.827734    0.979817    1.325189
     12          1           0        1.915291    0.336877    2.507721
 ---------------------------------------------------------------------
                    Distance matrix (angstroms):
                    1          2          3          4          5
     1  C    0.000000
     2  C    1.333305   0.000000
     3  H    1.083865   2.112649   0.000000
     4  H    1.084339   2.103982   1.857082   0.000000
     5  N    2.394057   1.352119   2.702224   3.361458   0.000000
     6  H    2.104052   1.088530   3.077617   2.434968   2.047086
     7  H    2.574230   2.002094   2.453713   3.648079   1.010607
     8  H    3.215457   2.010442   3.627485   4.082305   1.027991
     9  N    4.993796   3.799468   5.410657   5.768734   2.936015
    10  H    5.615281   4.362368   6.164111   6.277685   3.678350
    11  H    5.617871   4.451169   5.898886   6.485589   3.365337
    12  H    5.104638   4.058757   5.460467   5.848661   3.314498
                    6          7          8          9         10
     6  H    0.000000
     7  H    2.925473   0.000000
     8  H    2.276525   1.750476   0.000000
     9  N    3.757469   3.415205   1.925307   0.000000
    10  H    4.073003   4.301702   2.653476   1.021669   0.000000
    11  H    4.543184   3.647950   2.450494   1.021409   1.622424
    12  H    4.089664   3.649692   2.406005   1.021588   1.622599
                   11         12
    11  H    0.000000
    12  H    1.626132   0.000000
 Stoichiometry    C2H8N2
 Framework group  C1[X(C2H8N2)]
 Deg. of freedom    30
 Full point group                 C1      NOp   1
 Largest Abelian subgroup         C1      NOp   1
 Largest concise Abelian subgroup C1      NOp   1
                         Standard orientation:                         
 ---------------------------------------------------------------------
 Center     Atomic      Atomic             Coordinates (Angstroms)
 Number     Number       Type             X           Y           Z
 ---------------------------------------------------------------------
      1          6           0       -2.332937   -0.139520    0.279753
      2          6           0       -1.120105   -0.315100   -0.245520
      3          1           0       -2.629609    0.807067    0.716468
      4          1           0       -3.056381   -0.947243    0.281709
      5          7           0       -0.136685    0.610780   -0.307647
      6          1           0       -0.843035   -1.274332   -0.679115
      7          1           0       -0.330861    1.475420    0.178170
      8          1           0        0.815790    0.227126   -0.259001
      9          7           0        2.658413   -0.175433    0.127643
     10          1           0        3.196505   -0.944560   -0.275728
     11          1           0        3.218044    0.661298   -0.045478
     12          1           0        2.695701   -0.324483    1.137611
 ---------------------------------------------------------------------
 Rotational constants (GHZ):          25.6418565           2.1883625           2.1099359
 Standard basis: Aug-CC-pVDZ (5D, 7F)
 There are   172 symmetry adapted cartesian basis functions of A   symmetry.
 There are   164 symmetry adapted basis functions of A   symmetry.
   164 basis functions,   260 primitive gaussians,   172 cartesian basis functions
    17 alpha electrons       17 beta electrons
       nuclear repulsion energy       117.7309297830 Hartrees.
 NAtoms=   12 NActive=   12 NUniq=   12 SFac= 1.00D+00 NAtFMM=   60 NAOKFM=F Big=F
 Integral buffers will be    131072 words long.
 Raffenetti 1 integral format.
 Two-electron integral symmetry is turned on.
 One-electron integrals computed using PRISM.
 NBasis=   164 RedAO= T EigKep=  4.91D-05  NBF=   164
 NBsUse=   164 1.00D-06 EigRej= -1.00D+00 NBFU=   164
 ExpMin= 2.97D-02 ExpMax= 9.05D+03 ExpMxC= 3.09D+02 IAcc=3 IRadAn=         5 AccDes= 0.00D+00
 Harris functional with IExCor=  205 and IRadAn=       5 diagonalized for initial guess.
 HarFok:  IExCor=  205 AccDes= 0.00D+00 IRadAn=         5 IDoV= 1 UseB2=F ITyADJ=14
 ICtDFT=  3500011 ScaDFX=  1.000000  1.000000  1.000000  1.000000
 FoFCou: FMM=F IPFlag=           0 FMFlag=      100000 FMFlg1=           0
         NFxFlg=           0 DoJE=T BraDBF=F KetDBF=T FulRan=T
         wScrn=  0.000000 ICntrl=       500 IOpCl=  0 I1Cent=   200000004 NGrid=           0
         NMat0=    1 NMatS0=      1 NMatT0=    0 NMatD0=    1 NMtDS0=    0 NMtDT0=    0
 Petite list used in FoFCou.
 Keep R1 ints in memory in canonical form, NReq=100306850.
 Requested convergence on RMS density matrix=1.00D-08 within 128 cycles.
 Requested convergence on MAX density matrix=1.00D-06.
 Requested convergence on             energy=1.00D-06.
 No special actions if energy rises.
 SCF Done:  E(RHF) =  -189.293172692     A.U. after   13 cycles
            NFock= 13  Conv=0.50D-08     -V/T= 2.0012
 ExpMin= 2.97D-02 ExpMax= 9.05D+03 ExpMxC= 3.09D+02 IAcc=3 IRadAn=         5 AccDes= 0.00D+00
 HarFok:  IExCor=  205 AccDes= 0.00D+00 IRadAn=         5 IDoV=-2 UseB2=F ITyADJ=14
 ICtDFT= 12500011 ScaDFX=  1.000000  1.000000  1.000000  1.000000
 Range of M.O.s used for correlation:     5   164
 NBasis=   164 NAE=    17 NBE=    17 NFC=     4 NFV=     0
 NROrb=    160 NOA=    13 NOB=    13 NVA=   147 NVB=   147

 **** Warning!!: The largest alpha MO coefficient is  0.39736336D+02

 Fully direct method using O(ONN) memory.
 JobTyp=1 Pass  1:  I=   5 to  17 NPSUse= 40 ParTrn=T ParDer=T DoDerP=T.
 Spin components of T(2) and E(2):
     alpha-alpha T2 =       0.2786707706D-01 E2=     -0.8058461531D-01
     alpha-beta  T2 =       0.1682420155D+00 E2=     -0.5070780189D+00
     beta-beta   T2 =       0.2786707706D-01 E2=     -0.8058461531D-01
 ANorm=    0.1106334565D+01
 E2 =    -0.6682472495D+00 EUMP2 =    -0.18996141994141D+03
          IDoAtm=111111111111
          Differentiating once with respect to electric field.
                with respect to dipole field.
          Differentiating once with respect to nuclear coordinates.
 Keep R1 ints in memory in canonical form, NReq=100316160.
          There are     1 degrees of freedom in the 1st order CPHF.  IDoFFX=0 NUNeed=     1.
 LinEq1:  Iter=  0 NonCon=     1 RMS=3.69D-03 Max=5.66D-02 NDo=     1
 AX will form     1 AO Fock derivatives at one time.
 LinEq1:  Iter=  1 NonCon=     1 RMS=6.39D-04 Max=3.98D-03 NDo=     1
 LinEq1:  Iter=  2 NonCon=     1 RMS=2.85D-04 Max=4.47D-03 NDo=     1
 LinEq1:  Iter=  3 NonCon=     1 RMS=4.78D-05 Max=2.91D-04 NDo=     1
 LinEq1:  Iter=  4 NonCon=     1 RMS=1.66D-05 Max=1.48D-04 NDo=     1
 LinEq1:  Iter=  5 NonCon=     1 RMS=5.13D-06 Max=1.03D-04 NDo=     1
 LinEq1:  Iter=  6 NonCon=     1 RMS=1.44D-06 Max=1.03D-05 NDo=     1
 LinEq1:  Iter=  7 NonCon=     1 RMS=5.53D-07 Max=9.47D-06 NDo=     1
 LinEq1:  Iter=  8 NonCon=     1 RMS=1.38D-07 Max=1.31D-06 NDo=     1
 LinEq1:  Iter=  9 NonCon=     1 RMS=3.31D-08 Max=3.04D-07 NDo=     1
 LinEq1:  Iter= 10 NonCon=     1 RMS=7.08D-09 Max=5.80D-08 NDo=     1
 LinEq1:  Iter= 11 NonCon=     1 RMS=1.82D-09 Max=1.64D-08 NDo=     1
 LinEq1:  Iter= 12 NonCon=     1 RMS=6.65D-10 Max=5.38D-09 NDo=     1
 LinEq1:  Iter= 13 NonCon=     1 RMS=1.41D-10 Max=1.08D-09 NDo=     1
 LinEq1:  Iter= 14 NonCon=     0 RMS=3.08D-11 Max=3.39D-10 NDo=     1
 Linear equations converged to 1.000D-10 1.000D-09 after    14 iterations.
 End of Minotr F.D. properties file   721 does not exist.
 End of Minotr F.D. properties file   722 does not exist.
 End of Minotr F.D. properties file   788 does not exist.

 **********************************************************************

            Population analysis using the SCF Density.

 **********************************************************************

 Orbital symmetries:
       Occupied  (A) (A) (A) (A) (A) (A) (A) (A) (A) (A) (A) (A)
                 (A) (A) (A) (A) (A)
       Virtual   (A) (A) (A) (A) (A) (A) (A) (A) (A) (A) (A) (A)
                 (A) (A) (A) (A) (A) (A) (A) (A) (A) (A) (A) (A)
                 (A) (A) (A) (A) (A) (A) (A) (A) (A) (A) (A) (A)
                 (A) (A) (A) (A) (A) (A) (A) (A) (A) (A) (A) (A)
                 (A) (A) (A) (A) (A) (A) (A) (A) (A) (A) (A) (A)
                 (A) (A) (A) (A) (A) (A) (A) (A) (A) (A) (A) (A)
                 (A) (A) (A) (A) (A) (A) (A) (A) (A) (A) (A) (A)
                 (A) (A) (A) (A) (A) (A) (A) (A) (A) (A) (A) (A)
                 (A) (A) (A) (A) (A) (A) (A) (A) (A) (A) (A) (A)
                 (A) (A) (A) (A) (A) (A) (A) (A) (A) (A) (A) (A)
                 (A) (A) (A) (A) (A) (A) (A) (A) (A) (A) (A) (A)
                 (A) (A) (A) (A) (A) (A) (A) (A) (A) (A) (A) (A)
                 (A) (A) (A)
 The electronic state is 1-A.
 Alpha  occ. eigenvalues --  -15.58032 -15.53846 -11.25412 -11.18230  -1.19940
 Alpha  occ. eigenvalues --   -1.16999  -0.97090  -0.77143  -0.68674  -0.65004
 Alpha  occ. eigenvalues --   -0.64854  -0.61759  -0.55685  -0.49750  -0.47286
 Alpha  occ. eigenvalues --   -0.45804  -0.28814
 Alpha virt. eigenvalues --    0.02523   0.04582   0.05213   0.05573   0.06388
 Alpha virt. eigenvalues --    0.06700   0.08682   0.09483   0.12814   0.13299
 Alpha virt. eigenvalues --    0.15223   0.15757   0.16474   0.17443   0.18964
 Alpha virt. eigenvalues --    0.19410   0.20259   0.20401   0.20986   0.22873
 Alpha virt. eigenvalues --    0.23672   0.24472   0.25080   0.27246   0.27921
 Alpha virt. eigenvalues --    0.28557   0.32449   0.33151   0.34323   0.36948
 Alpha virt. eigenvalues --    0.37570   0.38188   0.40375   0.41423   0.43379
 Alpha virt. eigenvalues --    0.44708   0.45626   0.46124   0.47476   0.49244
 Alpha virt. eigenvalues --    0.50467   0.51546   0.52349   0.53833   0.54436
 Alpha virt. eigenvalues --    0.55570   0.55912   0.56734   0.57943   0.59599
 Alpha virt. eigenvalues --    0.62694   0.63208   0.63943   0.64913   0.65597
 Alpha virt. eigenvalues --    0.67467   0.67874   0.68817   0.68919   0.70270
 Alpha virt. eigenvalues --    0.71022   0.71857   0.74795   0.75844   0.78049
 Alpha virt. eigenvalues --    0.79892   0.81885   0.85375   0.89485   0.90089
 Alpha virt. eigenvalues --    0.90996   0.91620   0.94069   0.96012   0.98357
 Alpha virt. eigenvalues --    0.99335   1.03941   1.06309   1.10332   1.13211
 Alpha virt. eigenvalues --    1.18650   1.20451   1.21600   1.23405   1.27310
 Alpha virt. eigenvalues --    1.29026   1.31705   1.40522   1.46053   1.51838
 Alpha virt. eigenvalues --    1.57255   1.59449   1.60895   1.63728   1.68244
 Alpha virt. eigenvalues --    1.72208   1.77655   1.79452   1.81850   1.83448
 Alpha virt. eigenvalues --    1.86669   1.91096   1.92778   1.96328   2.01771
 Alpha virt. eigenvalues --    2.03119   2.05475   2.06082   2.09869   2.11653
 Alpha virt. eigenvalues --    2.14736   2.16275   2.18928   2.22299   2.24453
 Alpha virt. eigenvalues --    2.26678   2.34605   2.35660   2.36654   2.38547
 Alpha virt. eigenvalues --    2.39458   2.40974   2.44275   2.44702   2.47956
 Alpha virt. eigenvalues --    2.49920   2.58697   2.60573   2.64082   2.69116
 Alpha virt. eigenvalues --    2.71436   2.77367   2.77893   2.86892   2.88926
 Alpha virt. eigenvalues --    2.90148   2.95889   2.99076   3.08748   3.11218
 Alpha virt. eigenvalues --    3.21909   3.43890   3.48079   3.52947   3.55437
 Alpha virt. eigenvalues --    3.69054   3.78973
          Condensed to atoms (all electrons):
               1          2          3          4          5          6
     1  C    4.780057   0.441969   0.237474   0.160456  -0.099229  -0.122363
     2  C    0.441969   4.568512   0.027700   0.076102   0.216692   0.226021
     3  H    0.237474   0.027700   1.399386  -0.293369  -0.098550   0.079584
     4  H    0.160456   0.076102  -0.293369   1.434129   0.021421  -0.106907
     5  N   -0.099229   0.216692  -0.098550   0.021421   6.567258  -0.122668
     6  H   -0.122363   0.226021   0.079584  -0.106907  -0.122668   1.464983
     7  H   -0.009741  -0.109797   0.017936   0.000995   0.359123   0.027543
     8  H    0.038973  -0.187402  -0.018895   0.005833   0.499529  -0.073775
     9  N   -0.003348   0.033706   0.000903  -0.000760  -0.075758   0.010981
    10  H    0.000716  -0.004532   0.000063  -0.000025   0.002056  -0.000980
    11  H   -0.000180   0.004306   0.000276  -0.000134  -0.004582   0.001009
    12  H   -0.000336  -0.000704   0.000260  -0.000231  -0.004004   0.000828
               7          8          9         10         11         12
     1  C   -0.009741   0.038973  -0.003348   0.000716  -0.000180  -0.000336
     2  C   -0.109797  -0.187402   0.033706  -0.004532   0.004306  -0.000704
     3  H    0.017936  -0.018895   0.000903   0.000063   0.000276   0.000260
     4  H    0.000995   0.005833  -0.000760  -0.000025  -0.000134  -0.000231
     5  N    0.359123   0.499529  -0.075758   0.002056  -0.004582  -0.004004
     6  H    0.027543  -0.073775   0.010981  -0.000980   0.001009   0.000828
     7  H    0.900537  -0.144705   0.011330  -0.001524   0.002676   0.001777
     8  H   -0.144705   0.846678  -0.115633   0.006254  -0.019293  -0.013328
     9  N    0.011330  -0.115633   6.174661   0.389150   0.414613   0.408875
    10  H   -0.001524   0.006254   0.389150   0.735270  -0.092520  -0.084837
    11  H    0.002676  -0.019293   0.414613  -0.092520   0.720498  -0.065717
    12  H    0.001777  -0.013328   0.408875  -0.084837  -0.065717   0.705428
 Mulliken charges:
               1
     1  C    0.575552
     2  C    0.707428
     3  H   -0.352768
     4  H   -0.297510
     5  N   -0.261288
     6  H   -0.384254
     7  H   -0.056150
     8  H    0.175763
     9  N   -0.248720
    10  H    0.050909
    11  H    0.039049
    12  H    0.051989
 Sum of Mulliken charges =  -0.00000
 Mulliken charges with hydrogens summed into heavy atoms:
               1
     1  C   -0.074726
     2  C    0.323173
     5  N   -0.141674
     9  N   -0.106773
 Electronic spatial extent (au):  <R**2>=            590.3023
 Charge=             -0.0000 electrons
 Dipole moment (field-independent basis, Debye):
    X=              4.2426    Y=             -0.0797    Z=              1.0784  Tot=              4.3782
 Quadrupole moment (field-independent basis, Debye-Ang):
   XX=            -20.7398   YY=            -24.0278   ZZ=            -29.3317
   XY=             -0.8765   XZ=              0.4112   YZ=              2.5165
 Traceless Quadrupole moment (field-independent basis, Debye-Ang):
   XX=              3.9600   YY=              0.6720   ZZ=             -4.6320
   XY=             -0.8765   XZ=              0.4112   YZ=              2.5165
 Octapole moment (field-independent basis, Debye-Ang**2):
  XXX=             53.8076  YYY=              2.9970  ZZZ=              2.5151  XYY=              6.9192
  XXY=             -1.4343  XXZ=              3.5292  XZZ=             11.2620  YZZ=             -0.8447
  YYZ=              0.7865  XYZ=             -1.9704
 Hexadecapole moment (field-independent basis, Debye-Ang**3):
 XXXX=           -589.1413 YYYY=            -64.2792 ZZZZ=            -53.2780 XXXY=             -1.7000
 XXXZ=            -13.9287 YYYX=             -4.9572 YYYZ=              5.9818 ZZZX=              8.4574
 ZZZY=              2.9036 XXYY=           -103.9331 XXZZ=           -121.0478 YYZZ=            -21.8841
 XXYZ=              4.3244 YYXZ=             -1.1453 ZZXY=             -4.4824
 N-N= 1.177309297830D+02 E-N=-6.780335507271D+02  KE= 1.890718235561D+02
 Calling FoFJK, ICntrl=  10002127 FMM=F ISym2X=0 I1Cent= 0 IOpClX= 0 NMat=1 NMatS=1 NMatT=0.
 ***** Axes restored to original set *****
 -------------------------------------------------------------------
 Center     Atomic                   Forces (Hartrees/Bohr)
 Number     Number              X              Y              Z
 -------------------------------------------------------------------
      1        6          -0.027453268   -0.002999689   -0.001128940
      2        6           0.001284561   -0.019668868    0.004210960
      3        1          -0.002961226    0.006963379    0.000715049
      4        1          -0.002654114   -0.003215719   -0.002089265
      5        7           0.025722794    0.011491421   -0.005363728
      6        1           0.000557747   -0.006013381    0.000152987
      7        1           0.003683901    0.003831080    0.003555734
      8        1          -0.002680713    0.010905072   -0.002841134
      9        7           0.006404692   -0.001491168    0.004607894
     10        1          -0.000732586   -0.000423917   -0.001005413
     11        1          -0.000484018    0.000400433   -0.000684186
     12        1          -0.000687770    0.000221357   -0.000129957
 -------------------------------------------------------------------
 Cartesian Forces:  Max     0.027453268 RMS     0.008081831

 GradGradGradGradGradGradGradGradGradGradGradGradGradGradGradGradGradGrad
 Berny optimization.
 FormGI is forming the generalized inverse of G from B-inverse, IUseBI=4.
 Internal  Forces:  Max     0.039695586 RMS     0.008503238
 Search for a local minimum.
 Step number   1 out of a maximum of   52
 All quantities printed in internal units (Hartrees-Bohrs-Radians)
 Mixed Optimization -- RFO/linear search
 Second derivative matrix not updated -- first step.
 ITU=  0
     Eigenvalues ---    0.00230   0.00230   0.00230   0.02213   0.02329
     Eigenvalues ---    0.02667   0.02971   0.02971   0.04885   0.05066
     Eigenvalues ---    0.07806   0.13894   0.16000   0.16000   0.16000
     Eigenvalues ---    0.16000   0.16000   0.16000   0.16000   0.21999
     Eigenvalues ---    0.34977   0.35475   0.35531   0.43074   0.44073
     Eigenvalues ---    0.44086   0.44114   0.45871   0.54572   0.58732
 RFO step:  Lambda=-8.73587469D-03 EMin= 2.30000000D-03
 Linear search not attempted -- first point.
 Maximum step size (   0.300) exceeded in Quadratic search.
    -- Step size scaled by   0.763
 Iteration  1 RMS(Cart)=  0.11758532 RMS(Int)=  0.01096876
 Iteration  2 RMS(Cart)=  0.04164068 RMS(Int)=  0.00078684
 Iteration  3 RMS(Cart)=  0.00101646 RMS(Int)=  0.00057619
 Iteration  4 RMS(Cart)=  0.00000027 RMS(Int)=  0.00057619
 Variable       Old X    -DE/DX   Delta X   Delta X   Delta X     New X
                                 (Linear)    (Quad)   (Total)
    R1        2.51958   0.03278   0.00000   0.04195   0.04195   2.56153
    R2        2.04821   0.00757   0.00000   0.01585   0.01585   2.06406
    R3        2.04910   0.00415   0.00000   0.00872   0.00872   2.05782
    R4        2.55513   0.03970   0.00000   0.05462   0.05463   2.60976
    R5        2.05702   0.00581   0.00000   0.01230   0.01230   2.06933
    R6        1.90977   0.00270   0.00000   0.00440   0.00440   1.91417
    R7        1.94262  -0.00092   0.00000  -0.00153  -0.00152   1.94110
    R8        3.63830   0.00536   0.00000   0.07085   0.07084   3.70915
    R9        1.93067  -0.00018   0.00000  -0.00031  -0.00031   1.93037
   R10        1.93018   0.00018   0.00000   0.00031   0.00031   1.93049
   R11        1.93052   0.00013   0.00000   0.00021   0.00021   1.93074
    A1        2.12085   0.00005   0.00000   0.00024   0.00016   2.12101
    A2        2.10541  -0.00002   0.00000  -0.00010  -0.00018   2.10523
    A3        2.05693  -0.00003   0.00000  -0.00015  -0.00023   2.05670
    A4        2.20127   0.00609   0.00000   0.02026   0.01997   2.22124
    A5        2.09961  -0.00476   0.00000  -0.01798  -0.01827   2.08134
    A6        1.98231  -0.00134   0.00000  -0.00230  -0.00259   1.97972
    A7        2.00868   0.00085   0.00000   0.00685   0.00690   2.01558
    A8        2.00001   0.00825   0.00000   0.03743   0.03742   2.03743
    A9        2.06528  -0.00794   0.00000  -0.03764  -0.03772   2.02756
   A10        2.19220  -0.00117   0.00000  -0.00527  -0.00460   2.18760
   A11        1.89552  -0.00083   0.00000  -0.00491  -0.00429   1.89123
   A12        1.83794  -0.00035   0.00000  -0.00039  -0.00161   1.83633
   A13        1.83508   0.00107   0.00000   0.00342   0.00511   1.84019
   A14        1.83513   0.00125   0.00000   0.00735   0.00660   1.84173
   A15        1.84117   0.00029   0.00000   0.00107  -0.00055   1.84062
   A16        3.32770  -0.00380   0.00000  -0.25340  -0.25341   3.07429
   A17        3.29475  -0.00081   0.00000  -0.10794  -0.10747   3.18728
    D1       -0.00048  -0.00175   0.00000  -0.03655  -0.03644  -0.03692
    D2       -3.14151   0.00049   0.00000   0.01146   0.01135  -3.13016
    D3        3.14099  -0.00299   0.00000  -0.06111  -0.06100   3.07999
    D4       -0.00004  -0.00075   0.00000  -0.01310  -0.01321  -0.01325
    D5        0.11383   0.00278   0.00000   0.04892   0.04894   0.16277
    D6        2.59637   0.00127   0.00000   0.04321   0.04341   2.63978
    D7       -3.02829   0.00067   0.00000   0.00368   0.00349  -3.02480
    D8       -0.54575  -0.00085   0.00000  -0.00202  -0.00204  -0.54779
    D9        0.84683  -0.00077   0.00000  -0.03547  -0.03459   0.81224
   D10        3.05940  -0.00111   0.00000  -0.03884  -0.04004   3.01936
   D11       -1.29527  -0.00066   0.00000  -0.00266  -0.00215  -1.29741
   D12       -3.04420   0.00091   0.00000   0.01568   0.01644  -3.02776
   D13       -0.83164   0.00057   0.00000   0.01231   0.01099  -0.82065
   D14        1.09689   0.00102   0.00000   0.04849   0.04888   1.14577
         Item               Value     Threshold  Converged?
 Maximum Force            0.039696     0.000450     NO 
 RMS     Force            0.008503     0.000300     NO 
 Maximum Displacement     0.447199     0.001800     NO 
 RMS     Displacement     0.144680     0.001200     NO 
 Predicted change in Energy=-4.581657D-03
 GradGradGradGradGradGradGradGradGradGradGradGradGradGradGradGradGradGrad

                          Input orientation:                          
 ---------------------------------------------------------------------
 Center     Atomic      Atomic             Coordinates (Angstroms)
 Number     Number       Type             X           Y           Z
 ---------------------------------------------------------------------
      1          6           0       -2.519968   -0.280018   -0.013490
      2          6           0       -1.170876   -0.382784    0.068850
      3          1           0       -3.013241    0.688124   -0.124854
      4          1           0       -3.146347   -1.170549    0.006958
      5          7           0       -0.247749    0.641261   -0.011148
      6          1           0       -0.714808   -1.373266    0.169157
      7          1           0       -0.633506    1.577779    0.001813
      8          1           0        0.635381    0.508000    0.496235
      9          7           0        2.252449    0.141699    1.546702
     10          1           0        2.781766   -0.731835    1.531319
     11          1           0        2.935101    0.876698    1.353379
     12          1           0        1.975592    0.276546    2.520889
 ---------------------------------------------------------------------
                    Distance matrix (angstroms):
                    1          2          3          4          5
     1  C    0.000000
     2  C    1.355503   0.000000
     3  H    1.092254   2.139783   0.000000
     4  H    1.088951   2.127649   1.868089   0.000000
     5  N    2.451885   1.381026   2.768225   3.418312   0.000000
     6  H    2.118290   1.095041   3.101381   2.445360   2.075807
     7  H    2.647712   2.033978   2.543750   3.723936   1.012938
     8  H    3.291963   2.058816   3.705488   4.166340   1.027188
     9  N    5.038652   3.765407   5.551592   5.765398   2.987884
    10  H    5.540664   4.228952   6.192035   6.136667   3.666410
    11  H    5.741437   4.482785   6.132169   6.556530   3.471008
    12  H    5.190655   4.043201   5.661961   5.886272   3.389317
                    6          7          8          9         10
     6  H    0.000000
     7  H    2.956904   0.000000
     8  H    2.338623   1.731749   0.000000
     9  N    3.605186   3.574598   1.962796   0.000000
    10  H    3.806961   4.397476   2.686179   1.021506   0.000000
    11  H    4.448208   3.879846   2.481803   1.021572   1.625593
    12  H    3.935832   3.853096   2.439049   1.021701   1.626652
                   11         12
    11  H    0.000000
    12  H    1.626013   0.000000
 Stoichiometry    C2H8N2
 Framework group  C1[X(C2H8N2)]
 Deg. of freedom    30
 Full point group                 C1      NOp   1
 Largest Abelian subgroup         C1      NOp   1
 Largest concise Abelian subgroup C1      NOp   1
                         Standard orientation:                         
 ---------------------------------------------------------------------
 Center     Atomic      Atomic             Coordinates (Angstroms)
 Number     Number       Type             X           Y           Z
 ---------------------------------------------------------------------
      1          6           0       -2.366566   -0.223334    0.217867
      2          6           0       -1.081303   -0.298002   -0.206293
      3          1           0       -2.780569    0.701500    0.625668
      4          1           0       -3.027411   -1.085302    0.139701
      5          7           0       -0.149592    0.720982   -0.234943
      6          1           0       -0.707898   -1.241135   -0.618826
      7          1           0       -0.424214    1.575943    0.233743
      8          1           0        0.836214    0.448587   -0.139544
      9          7           0        2.670650   -0.207678    0.098630
     10          1           0        3.084915   -0.997601   -0.399247
     11          1           0        3.313187    0.572970   -0.047468
     12          1           0        2.745581   -0.440075    1.090724
 ---------------------------------------------------------------------
 Rotational constants (GHZ):          23.8096295           2.1779477           2.0620944
 Standard basis: Aug-CC-pVDZ (5D, 7F)
 There are   172 symmetry adapted cartesian basis functions of A   symmetry.
 There are   164 symmetry adapted basis functions of A   symmetry.
   164 basis functions,   260 primitive gaussians,   172 cartesian basis functions
    17 alpha electrons       17 beta electrons
       nuclear repulsion energy       116.3414394154 Hartrees.
 NAtoms=   12 NActive=   12 NUniq=   12 SFac= 1.00D+00 NAtFMM=   60 NAOKFM=F Big=F
 Integral buffers will be    131072 words long.
 Raffenetti 1 integral format.
 Two-electron integral symmetry is turned on.
 One-electron integrals computed using PRISM.
 NBasis=   164 RedAO= T EigKep=  4.78D-05  NBF=   164
 NBsUse=   164 1.00D-06 EigRej= -1.00D+00 NBFU=   164
 Initial guess from the checkpoint file:  "/scr/Gau-57557.chk"
 B after Tr=    -0.000000    0.000000   -0.000000
         Rot=    0.999075   -0.042890    0.001333   -0.002790 Ang=  -4.93 deg.
 ExpMin= 2.97D-02 ExpMax= 9.05D+03 ExpMxC= 3.09D+02 IAcc=3 IRadAn=         5 AccDes= 0.00D+00
 Harris functional with IExCor=  205 and IRadAn=       5 diagonalized for initial guess.
 HarFok:  IExCor=  205 AccDes= 0.00D+00 IRadAn=         5 IDoV= 1 UseB2=F ITyADJ=14
 ICtDFT=  3500011 ScaDFX=  1.000000  1.000000  1.000000  1.000000
 FoFCou: FMM=F IPFlag=           0 FMFlag=      100000 FMFlg1=           0
         NFxFlg=           0 DoJE=T BraDBF=F KetDBF=T FulRan=T
         wScrn=  0.000000 ICntrl=       500 IOpCl=  0 I1Cent=   200000004 NGrid=           0
         NMat0=    1 NMatS0=      1 NMatT0=    0 NMatD0=    1 NMtDS0=    0 NMtDT0=    0
 Petite list used in FoFCou.
 Keep R1 ints in memory in canonical form, NReq=100305788.
 Requested convergence on RMS density matrix=1.00D-08 within 128 cycles.
 Requested convergence on MAX density matrix=1.00D-06.
 Requested convergence on             energy=1.00D-06.
 No special actions if energy rises.
 SCF Done:  E(RHF) =  -189.294928415     A.U. after   12 cycles
            NFock= 12  Conv=0.42D-08     -V/T= 2.0023
 ExpMin= 2.97D-02 ExpMax= 9.05D+03 ExpMxC= 3.09D+02 IAcc=3 IRadAn=         5 AccDes= 0.00D+00
 HarFok:  IExCor=  205 AccDes= 0.00D+00 IRadAn=         5 IDoV=-2 UseB2=F ITyADJ=14
 ICtDFT= 12500011 ScaDFX=  1.000000  1.000000  1.000000  1.000000
 Range of M.O.s used for correlation:     5   164
 NBasis=   164 NAE=    17 NBE=    17 NFC=     4 NFV=     0
 NROrb=    160 NOA=    13 NOB=    13 NVA=   147 NVB=   147

 **** Warning!!: The largest alpha MO coefficient is  0.32807824D+02

 Fully direct method using O(ONN) memory.
 JobTyp=1 Pass  1:  I=   5 to  17 NPSUse= 40 ParTrn=T ParDer=T DoDerP=T.
 Spin components of T(2) and E(2):
     alpha-alpha T2 =       0.2814982684D-01 E2=     -0.8064075062D-01
     alpha-beta  T2 =       0.1705584766D+00 E2=     -0.5090064484D+00
     beta-beta   T2 =       0.2814982684D-01 E2=     -0.8064075062D-01
 ANorm=    0.1107636281D+01
 E2 =    -0.6702879496D+00 EUMP2 =    -0.18996521636450D+03
          IDoAtm=111111111111
          Differentiating once with respect to electric field.
                with respect to dipole field.
          Differentiating once with respect to nuclear coordinates.
 Keep R1 ints in memory in canonical form, NReq=100315747.
          There are     1 degrees of freedom in the 1st order CPHF.  IDoFFX=0 NUNeed=     1.
 LinEq1:  Iter=  0 NonCon=     1 RMS=3.76D-03 Max=6.76D-02 NDo=     1
 AX will form     1 AO Fock derivatives at one time.
 LinEq1:  Iter=  1 NonCon=     1 RMS=6.77D-04 Max=4.36D-03 NDo=     1
 LinEq1:  Iter=  2 NonCon=     1 RMS=3.03D-04 Max=4.71D-03 NDo=     1
 LinEq1:  Iter=  3 NonCon=     1 RMS=5.18D-05 Max=3.67D-04 NDo=     1
 LinEq1:  Iter=  4 NonCon=     1 RMS=1.87D-05 Max=1.55D-04 NDo=     1
 LinEq1:  Iter=  5 NonCon=     1 RMS=5.43D-06 Max=1.09D-04 NDo=     1
 LinEq1:  Iter=  6 NonCon=     1 RMS=1.58D-06 Max=9.68D-06 NDo=     1
 LinEq1:  Iter=  7 NonCon=     1 RMS=6.63D-07 Max=1.16D-05 NDo=     1
 LinEq1:  Iter=  8 NonCon=     1 RMS=1.62D-07 Max=1.48D-06 NDo=     1
 LinEq1:  Iter=  9 NonCon=     1 RMS=3.96D-08 Max=4.23D-07 NDo=     1
 LinEq1:  Iter= 10 NonCon=     1 RMS=9.52D-09 Max=8.77D-08 NDo=     1
 LinEq1:  Iter= 11 NonCon=     1 RMS=3.34D-09 Max=2.97D-08 NDo=     1
 LinEq1:  Iter= 12 NonCon=     1 RMS=8.78D-10 Max=6.51D-09 NDo=     1
 LinEq1:  Iter= 13 NonCon=     1 RMS=1.68D-10 Max=1.45D-09 NDo=     1
 LinEq1:  Iter= 14 NonCon=     0 RMS=3.64D-11 Max=3.71D-10 NDo=     1
 Linear equations converged to 1.000D-10 1.000D-09 after    14 iterations.
 End of Minotr F.D. properties file   721 does not exist.
 End of Minotr F.D. properties file   722 does not exist.
 End of Minotr F.D. properties file   788 does not exist.
 Calling FoFJK, ICntrl=  10002127 FMM=F ISym2X=0 I1Cent= 0 IOpClX= 0 NMat=1 NMatS=1 NMatT=0.
 ***** Axes restored to original set *****
 -------------------------------------------------------------------
 Center     Atomic                   Forces (Hartrees/Bohr)
 Number     Number              X              Y              Z
 -------------------------------------------------------------------
      1        6          -0.003621072    0.000975764   -0.001165603
      2        6          -0.000893022   -0.006260154    0.002455129
      3        1          -0.000516352    0.001433977    0.000231314
      4        1           0.000615368   -0.001172706   -0.000462606
      5        7           0.004891440    0.003474326   -0.002922033
      6        1           0.000309163   -0.000866704    0.000785002
      7        1           0.000898692    0.001621544    0.001696561
      8        1          -0.004707992    0.000929286   -0.002712263
      9        7           0.004574045    0.000150824    0.003696540
     10        1          -0.001089644   -0.000035943   -0.000997371
     11        1          -0.000171920   -0.000076689   -0.000394171
     12        1          -0.000288705   -0.000173525   -0.000210498
 -------------------------------------------------------------------
 Cartesian Forces:  Max     0.006260154 RMS     0.002270718

 GradGradGradGradGradGradGradGradGradGradGradGradGradGradGradGradGradGrad
 Berny optimization.
 Using GEDIIS/GDIIS optimizer.
 FormGI is forming the generalized inverse of G from B-inverse, IUseBI=4.
 Internal  Forces:  Max     0.007217821 RMS     0.001575857
 Search for a local minimum.
 Step number   2 out of a maximum of   52
 All quantities printed in internal units (Hartrees-Bohrs-Radians)
 Mixed Optimization -- RFO/linear search
 Update second derivatives using D2CorX and points    1    2
 DE= -3.80D-03 DEPred=-4.58D-03 R= 8.29D-01
 TightC=F SS=  1.41D+00  RLast= 3.24D-01 DXNew= 5.0454D-01 9.7203D-01
 Trust test= 8.29D-01 RLast= 3.24D-01 DXMaxT set to 5.05D-01
 ITU=  1  0
 Use linear search instead of GDIIS.
     Eigenvalues ---    0.00230   0.00230   0.00327   0.02153   0.02300
     Eigenvalues ---    0.02705   0.02966   0.02985   0.04574   0.05477
     Eigenvalues ---    0.07634   0.13644   0.15780   0.15993   0.16000
     Eigenvalues ---    0.16000   0.16000   0.16000   0.16653   0.22516
     Eigenvalues ---    0.34954   0.35422   0.35488   0.42937   0.44061
     Eigenvalues ---    0.44086   0.44114   0.45771   0.52536   0.59597
 RFO step:  Lambda=-6.82293030D-04 EMin= 2.29786904D-03
 Quartic linear search produced a step of  0.21423.
 Iteration  1 RMS(Cart)=  0.11691553 RMS(Int)=  0.00360588
 Iteration  2 RMS(Cart)=  0.00738446 RMS(Int)=  0.00051776
 Iteration  3 RMS(Cart)=  0.00003650 RMS(Int)=  0.00051760
 Iteration  4 RMS(Cart)=  0.00000004 RMS(Int)=  0.00051760
 Variable       Old X    -DE/DX   Delta X   Delta X   Delta X     New X
                                 (Linear)    (Quad)   (Total)
    R1        2.56153   0.00368   0.00899   0.00318   0.01217   2.57370
    R2        2.06406   0.00148   0.00340   0.00336   0.00676   2.07082
    R3        2.05782   0.00060   0.00187   0.00111   0.00297   2.06079
    R4        2.60976   0.00722   0.01170   0.01029   0.02199   2.63176
    R5        2.06933   0.00098   0.00264   0.00208   0.00472   2.07404
    R6        1.91417   0.00118   0.00094   0.00265   0.00360   1.91777
    R7        1.94110  -0.00186  -0.00033  -0.00505  -0.00540   1.93570
    R8        3.70915   0.00364   0.01518   0.08013   0.09531   3.80446
    R9        1.93037  -0.00052  -0.00007  -0.00140  -0.00146   1.92890
   R10        1.93049  -0.00010   0.00007  -0.00030  -0.00023   1.93026
   R11        1.93074  -0.00015   0.00005  -0.00042  -0.00038   1.93036
    A1        2.12101   0.00051   0.00003   0.00382   0.00383   2.12483
    A2        2.10523  -0.00143  -0.00004  -0.01081  -0.01088   2.09435
    A3        2.05670   0.00091  -0.00005   0.00691   0.00683   2.06352
    A4        2.22124  -0.00068   0.00428  -0.00608  -0.00193   2.21931
    A5        2.08134   0.00024  -0.00391   0.00295  -0.00109   2.08025
    A6        1.97972   0.00042  -0.00055   0.00265   0.00197   1.98169
    A7        2.01558   0.00123   0.00148   0.00331   0.00595   2.02154
    A8        2.03743  -0.00018   0.00802  -0.01079  -0.00246   2.03497
    A9        2.02756  -0.00144  -0.00808  -0.01300  -0.02142   2.00614
   A10        2.18760  -0.00181  -0.00099  -0.01445  -0.01564   2.17197
   A11        1.89123   0.00013  -0.00092   0.00175   0.00073   1.89197
   A12        1.83633   0.00008  -0.00034   0.00163   0.00150   1.83783
   A13        1.84019   0.00081   0.00110   0.00429   0.00499   1.84518
   A14        1.84173   0.00068   0.00141   0.00344   0.00491   1.84664
   A15        1.84062   0.00043  -0.00012   0.00669   0.00703   1.84765
   A16        3.07429   0.00018  -0.05429   0.18330   0.12901   3.20330
   A17        3.18728  -0.00030  -0.02302  -0.08069  -0.10501   3.08227
    D1       -0.03692  -0.00056  -0.00781  -0.01771  -0.02548  -0.06240
    D2       -3.13016  -0.00010   0.00243  -0.00481  -0.00242  -3.13258
    D3        3.07999  -0.00074  -0.01307  -0.02153  -0.03456   3.04543
    D4       -0.01325  -0.00028  -0.00283  -0.00863  -0.01150  -0.02474
    D5        0.16277   0.00145   0.01049   0.05375   0.06329   0.22606
    D6        2.63978   0.00033   0.00930   0.01974   0.03006   2.66984
    D7       -3.02480   0.00101   0.00075   0.04151   0.04126  -2.98354
    D8       -0.54779  -0.00010  -0.00044   0.00749   0.00803  -0.53976
    D9        0.81224   0.00006  -0.00741   0.02369   0.01687   0.82911
   D10        3.01936  -0.00039  -0.00858  -0.02053  -0.02803   2.99133
   D11       -1.29741   0.00020  -0.00046  -0.02685  -0.02675  -1.32417
   D12       -3.02776   0.00018   0.00352   0.05470   0.05734  -2.97043
   D13       -0.82065  -0.00027   0.00235   0.01049   0.01244  -0.80821
   D14        1.14577   0.00032   0.01047   0.00417   0.01372   1.15949
         Item               Value     Threshold  Converged?
 Maximum Force            0.007218     0.000450     NO 
 RMS     Force            0.001576     0.000300     NO 
 Maximum Displacement     0.279618     0.001800     NO 
 RMS     Displacement     0.119027     0.001200     NO 
 Predicted change in Energy=-4.913035D-04
 GradGradGradGradGradGradGradGradGradGradGradGradGradGradGradGradGradGrad

                          Input orientation:                          
 ---------------------------------------------------------------------
 Center     Atomic      Atomic             Coordinates (Angstroms)
 Number     Number       Type             X           Y           Z
 ---------------------------------------------------------------------
      1          6           0       -2.579979   -0.260293   -0.082908
      2          6           0       -1.237619   -0.414595    0.087814
      3          1           0       -3.034719    0.728158   -0.213358
      4          1           0       -3.228603   -1.135993   -0.123888
      5          7           0       -0.265505    0.582135    0.055564
      6          1           0       -0.825739   -1.425007    0.206172
      7          1           0       -0.609297    1.536304    0.091216
      8          1           0        0.586507    0.409427    0.597320
      9          7           0        2.337808    0.171496    1.561394
     10          1           0        2.908011   -0.674226    1.522481
     11          1           0        2.959369    0.936879    1.294537
     12          1           0        2.123560    0.317372    2.549465
 ---------------------------------------------------------------------
                    Distance matrix (angstroms):
                    1          2          3          4          5
     1  C    0.000000
     2  C    1.361942   0.000000
     3  H    1.095829   2.150851   0.000000
     4  H    1.090525   2.128204   1.876341   0.000000
     5  N    2.466911   1.392665   2.786071   3.429886   0.000000
     6  H    2.125437   1.097536   3.113152   2.442586   2.089297
     7  H    2.672390   2.049587   2.574595   3.748094   1.014841
     8  H    3.307245   2.065440   3.724523   4.178939   1.024330
     9  N    5.203345   3.911345   5.685390   5.961093   3.035356
    10  H    5.732944   4.394533   6.347902   6.370383   3.715035
    11  H    5.832234   4.571364   6.184368   6.678303   3.472853
    12  H    5.420919   4.230014   5.865985   6.156682   3.463708
                    6          7          8          9         10
     6  H    0.000000
     7  H    2.971434   0.000000
     8  H    2.347889   1.719284   0.000000
     9  N    3.793874   3.565045   2.013232   0.000000
    10  H    4.029544   4.393906   2.723895   1.020731   0.000000
    11  H    4.592394   3.813485   2.528792   1.021451   1.627960
    12  H    4.150333   3.872633   2.486338   1.021501   1.628903
                   11         12
    11  H    0.000000
    12  H    1.630095   0.000000
 Stoichiometry    C2H8N2
 Framework group  C1[X(C2H8N2)]
 Deg. of freedom    30
 Full point group                 C1      NOp   1
 Largest Abelian subgroup         C1      NOp   1
 Largest concise Abelian subgroup C1      NOp   1
                         Standard orientation:                         
 ---------------------------------------------------------------------
 Center     Atomic      Atomic             Coordinates (Angstroms)
 Number     Number       Type             X           Y           Z
 ---------------------------------------------------------------------
      1          6           0       -2.439662   -0.149575    0.197663
      2          6           0       -1.137749   -0.335659   -0.156289
      3          1           0       -2.817085    0.829682    0.513017
      4          1           0       -3.144029   -0.980208    0.141452
      5          7           0       -0.142868    0.634940   -0.243840
      6          1           0       -0.806626   -1.332728   -0.473775
      7          1           0       -0.364120    1.533624    0.172475
      8          1           0        0.820700    0.318142   -0.100919
      9          7           0        2.762526   -0.177245    0.091460
     10          1           0        3.205306   -0.969362   -0.375860
     11          1           0        3.328703    0.638060   -0.149541
     12          1           0        2.904013   -0.329670    1.091566
 ---------------------------------------------------------------------
 Rotational constants (GHZ):          27.0066017           2.0467160           1.9543750
 Standard basis: Aug-CC-pVDZ (5D, 7F)
 There are   172 symmetry adapted cartesian basis functions of A   symmetry.
 There are   164 symmetry adapted basis functions of A   symmetry.
   164 basis functions,   260 primitive gaussians,   172 cartesian basis functions
    17 alpha electrons       17 beta electrons
       nuclear repulsion energy       115.1576609909 Hartrees.
 NAtoms=   12 NActive=   12 NUniq=   12 SFac= 1.00D+00 NAtFMM=   60 NAOKFM=F Big=F
 Integral buffers will be    131072 words long.
 Raffenetti 1 integral format.
 Two-electron integral symmetry is turned on.
 One-electron integrals computed using PRISM.
 NBasis=   164 RedAO= T EigKep=  4.81D-05  NBF=   164
 NBsUse=   164 1.00D-06 EigRej= -1.00D+00 NBFU=   164
 Initial guess from the checkpoint file:  "/scr/Gau-57557.chk"
 B after Tr=     0.000000   -0.000000    0.000000
         Rot=    0.999299    0.037396   -0.001216    0.001532 Ang=   4.29 deg.
 ExpMin= 2.97D-02 ExpMax= 9.05D+03 ExpMxC= 3.09D+02 IAcc=3 IRadAn=         5 AccDes= 0.00D+00
 Harris functional with IExCor=  205 and IRadAn=       5 diagonalized for initial guess.
 HarFok:  IExCor=  205 AccDes= 0.00D+00 IRadAn=         5 IDoV= 1 UseB2=F ITyADJ=14
 ICtDFT=  3500011 ScaDFX=  1.000000  1.000000  1.000000  1.000000
 FoFCou: FMM=F IPFlag=           0 FMFlag=      100000 FMFlg1=           0
         NFxFlg=           0 DoJE=T BraDBF=F KetDBF=T FulRan=T
         wScrn=  0.000000 ICntrl=       500 IOpCl=  0 I1Cent=   200000004 NGrid=           0
         NMat0=    1 NMatS0=      1 NMatT0=    0 NMatD0=    1 NMtDS0=    0 NMtDT0=    0
 Petite list used in FoFCou.
 Keep R1 ints in memory in canonical form, NReq=100303717.
 Requested convergence on RMS density matrix=1.00D-08 within 128 cycles.
 Requested convergence on MAX density matrix=1.00D-06.
 Requested convergence on             energy=1.00D-06.
 No special actions if energy rises.
 SCF Done:  E(RHF) =  -189.295105315     A.U. after   12 cycles
            NFock= 12  Conv=0.25D-08     -V/T= 2.0026
 ExpMin= 2.97D-02 ExpMax= 9.05D+03 ExpMxC= 3.09D+02 IAcc=3 IRadAn=         5 AccDes= 0.00D+00
 HarFok:  IExCor=  205 AccDes= 0.00D+00 IRadAn=         5 IDoV=-2 UseB2=F ITyADJ=14
 ICtDFT= 12500011 ScaDFX=  1.000000  1.000000  1.000000  1.000000
 Range of M.O.s used for correlation:     5   164
 NBasis=   164 NAE=    17 NBE=    17 NFC=     4 NFV=     0
 NROrb=    160 NOA=    13 NOB=    13 NVA=   147 NVB=   147

 **** Warning!!: The largest alpha MO coefficient is  0.30794127D+02

 Fully direct method using O(ONN) memory.
 JobTyp=1 Pass  1:  I=   5 to  17 NPSUse= 40 ParTrn=T ParDer=T DoDerP=T.
 Spin components of T(2) and E(2):
     alpha-alpha T2 =       0.2819829128D-01 E2=     -0.8054533070D-01
     alpha-beta  T2 =       0.1712861212D+00 E2=     -0.5094597350D+00
     beta-beta   T2 =       0.2819829128D-01 E2=     -0.8054533070D-01
 ANorm=    0.1108008440D+01
 E2 =    -0.6705503964D+00 EUMP2 =    -0.18996565571124D+03
          IDoAtm=111111111111
          Differentiating once with respect to electric field.
                with respect to dipole field.
          Differentiating once with respect to nuclear coordinates.
 Keep R1 ints in memory in canonical form, NReq=100313237.
          There are     1 degrees of freedom in the 1st order CPHF.  IDoFFX=0 NUNeed=     1.
 LinEq1:  Iter=  0 NonCon=     1 RMS=3.77D-03 Max=6.98D-02 NDo=     1
 AX will form     1 AO Fock derivatives at one time.
 LinEq1:  Iter=  1 NonCon=     1 RMS=6.90D-04 Max=4.58D-03 NDo=     1
 LinEq1:  Iter=  2 NonCon=     1 RMS=3.08D-04 Max=4.89D-03 NDo=     1
 LinEq1:  Iter=  3 NonCon=     1 RMS=5.35D-05 Max=3.56D-04 NDo=     1
 LinEq1:  Iter=  4 NonCon=     1 RMS=1.96D-05 Max=1.52D-04 NDo=     1
 LinEq1:  Iter=  5 NonCon=     1 RMS=5.45D-06 Max=1.08D-04 NDo=     1
 LinEq1:  Iter=  6 NonCon=     1 RMS=1.57D-06 Max=9.33D-06 NDo=     1
 LinEq1:  Iter=  7 NonCon=     1 RMS=6.88D-07 Max=1.30D-05 NDo=     1
 LinEq1:  Iter=  8 NonCon=     1 RMS=1.69D-07 Max=1.59D-06 NDo=     1
 LinEq1:  Iter=  9 NonCon=     1 RMS=4.15D-08 Max=4.50D-07 NDo=     1
 LinEq1:  Iter= 10 NonCon=     1 RMS=9.71D-09 Max=7.56D-08 NDo=     1
 LinEq1:  Iter= 11 NonCon=     1 RMS=3.39D-09 Max=2.45D-08 NDo=     1
 LinEq1:  Iter= 12 NonCon=     1 RMS=9.23D-10 Max=6.96D-09 NDo=     1
 LinEq1:  Iter= 13 NonCon=     1 RMS=1.76D-10 Max=1.51D-09 NDo=     1
 LinEq1:  Iter= 14 NonCon=     0 RMS=3.82D-11 Max=3.74D-10 NDo=     1
 Linear equations converged to 1.000D-10 1.000D-09 after    14 iterations.
 End of Minotr F.D. properties file   721 does not exist.
 End of Minotr F.D. properties file   722 does not exist.
 End of Minotr F.D. properties file   788 does not exist.
 Calling FoFJK, ICntrl=  10002127 FMM=F ISym2X=0 I1Cent= 0 IOpClX= 0 NMat=1 NMatS=1 NMatT=0.
 ***** Axes restored to original set *****
 -------------------------------------------------------------------
 Center     Atomic                   Forces (Hartrees/Bohr)
 Number     Number              X              Y              Z
 -------------------------------------------------------------------
      1        6           0.002923319    0.001218820   -0.000359195
      2        6          -0.002617724   -0.000116831   -0.000550073
      3        1           0.000720630   -0.001070546    0.000185016
      4        1           0.000539670    0.000153927    0.000480652
      5        7          -0.001387269   -0.001982547   -0.000721158
      6        1          -0.000120655    0.001171944    0.000280849
      7        1          -0.000025086   -0.000346913    0.001154896
      8        1          -0.001799581    0.001139126   -0.002404580
      9        7           0.002517028    0.000464160    0.002919350
     10        1          -0.000748117   -0.000240995   -0.000642058
     11        1          -0.000447285   -0.000314073   -0.000111205
     12        1           0.000445070   -0.000076073   -0.000232495
 -------------------------------------------------------------------
 Cartesian Forces:  Max     0.002923319 RMS     0.001245681

 GradGradGradGradGradGradGradGradGradGradGradGradGradGradGradGradGradGrad
 Berny optimization.
 Using GEDIIS/GDIIS optimizer.
 FormGI is forming the generalized inverse of G from B-inverse, IUseBI=4.
 Internal  Forces:  Max     0.004127646 RMS     0.000971555
 Search for a local minimum.
 Step number   3 out of a maximum of   52
 All quantities printed in internal units (Hartrees-Bohrs-Radians)
 Mixed Optimization -- En-DIIS/RFO-DIIS
 Update second derivatives using D2CorX and points    1    2    3
 DE= -4.39D-04 DEPred=-4.91D-04 R= 8.94D-01
 TightC=F SS=  1.41D+00  RLast= 2.29D-01 DXNew= 8.4853D-01 6.8815D-01
 Trust test= 8.94D-01 RLast= 2.29D-01 DXMaxT set to 6.88D-01
 ITU=  1  1  0
 Use linear search instead of GDIIS.
     Eigenvalues ---    0.00230   0.00276   0.00436   0.01648   0.02245
     Eigenvalues ---    0.02720   0.02929   0.03020   0.03426   0.05569
     Eigenvalues ---    0.07640   0.13658   0.15402   0.15988   0.16000
     Eigenvalues ---    0.16000   0.16000   0.16141   0.16688   0.22512
     Eigenvalues ---    0.35105   0.35488   0.36121   0.42835   0.44033
     Eigenvalues ---    0.44087   0.44119   0.45886   0.54125   0.69450
 RFO step:  Lambda=-8.85011110D-04 EMin= 2.29898186D-03
 Quartic linear search produced a step of -0.04595.
 Iteration  1 RMS(Cart)=  0.13176592 RMS(Int)=  0.01248924
 Iteration  2 RMS(Cart)=  0.05095261 RMS(Int)=  0.00193532
 Iteration  3 RMS(Cart)=  0.00122105 RMS(Int)=  0.00182253
 Iteration  4 RMS(Cart)=  0.00000442 RMS(Int)=  0.00182253
 Iteration  5 RMS(Cart)=  0.00000003 RMS(Int)=  0.00182253
 Variable       Old X    -DE/DX   Delta X   Delta X   Delta X     New X
                                 (Linear)    (Quad)   (Total)
    R1        2.57370  -0.00413  -0.00056   0.00427   0.00371   2.57741
    R2        2.07082  -0.00129  -0.00031   0.00276   0.00245   2.07327
    R3        2.06079  -0.00046  -0.00014   0.00147   0.00133   2.06213
    R4        2.63176  -0.00198  -0.00101   0.01694   0.01589   2.64764
    R5        2.07404  -0.00110  -0.00022   0.00131   0.00113   2.07517
    R6        1.91777  -0.00028  -0.00017   0.00283   0.00267   1.92044
    R7        1.93570  -0.00044   0.00025  -0.00621  -0.00584   1.92986
    R8        3.80446   0.00249  -0.00438   0.13884   0.13441   3.93886
    R9        1.92890  -0.00019   0.00007  -0.00185  -0.00178   1.92712
   R10        1.93026  -0.00048   0.00001  -0.00129  -0.00128   1.92898
   R11        1.93036  -0.00033   0.00002  -0.00110  -0.00108   1.92927
    A1        2.12483  -0.00001  -0.00018   0.00370   0.00353   2.12836
    A2        2.09435  -0.00040   0.00050  -0.01285  -0.01236   2.08200
    A3        2.06352   0.00042  -0.00031   0.00925   0.00894   2.07246
    A4        2.21931  -0.00085   0.00009  -0.00590  -0.00578   2.21353
    A5        2.08025   0.00078   0.00005   0.00339   0.00347   2.08372
    A6        1.98169   0.00009  -0.00009   0.00188   0.00169   1.98338
    A7        2.02154  -0.00007  -0.00027   0.00201   0.00664   2.02818
    A8        2.03497   0.00036   0.00011  -0.00331  -0.00164   2.03333
    A9        2.00614  -0.00045   0.00098  -0.02552  -0.02633   1.97980
   A10        2.17197  -0.00144   0.00072  -0.02440  -0.02451   2.14746
   A11        1.89197  -0.00018  -0.00003  -0.00196  -0.00091   1.89106
   A12        1.83783   0.00097  -0.00007   0.00956   0.00913   1.84696
   A13        1.84518   0.00051  -0.00023   0.00464   0.00477   1.84995
   A14        1.84664   0.00036  -0.00023   0.00901   0.00658   1.85322
   A15        1.84765  -0.00006  -0.00032   0.00807   0.00984   1.85749
   A16        3.20330  -0.00116  -0.00593  -0.25142  -0.25684   2.94645
   A17        3.08227   0.00061   0.00483   0.11669   0.11768   3.19995
    D1       -0.06240   0.00012   0.00117  -0.01899  -0.01786  -0.08027
    D2       -3.13258  -0.00013   0.00011  -0.00751  -0.00735  -3.13993
    D3        3.04543   0.00049   0.00159  -0.01517  -0.01362   3.03181
    D4       -0.02474   0.00024   0.00053  -0.00368  -0.00311  -0.02785
    D5        0.22606   0.00034  -0.00291   0.07289   0.06687   0.29293
    D6        2.66984  -0.00006  -0.00138   0.02639   0.02802   2.69786
    D7       -2.98354   0.00061  -0.00190   0.06203   0.05696  -2.92658
    D8       -0.53976   0.00021  -0.00037   0.01553   0.01810  -0.52166
    D9        0.82911   0.00039  -0.00078   0.01187   0.01452   0.84363
   D10        2.99133   0.00001   0.00129   0.04628   0.05083   3.04216
   D11       -1.32417   0.00042   0.00123   0.08572   0.08773  -1.23644
   D12       -2.97043  -0.00021  -0.00263  -0.08967  -0.09386  -3.06429
   D13       -0.80821  -0.00059  -0.00057  -0.05526  -0.05755  -0.86576
   D14        1.15949  -0.00018  -0.00063  -0.01582  -0.02066   1.13883
         Item               Value     Threshold  Converged?
 Maximum Force            0.004128     0.000450     NO 
 RMS     Force            0.000972     0.000300     NO 
 Maximum Displacement     0.427573     0.001800     NO 
 RMS     Displacement     0.175705     0.001200     NO 
 Predicted change in Energy=-4.996349D-04
 GradGradGradGradGradGradGradGradGradGradGradGradGradGradGradGradGradGrad

                          Input orientation:                          
 ---------------------------------------------------------------------
 Center     Atomic      Atomic             Coordinates (Angstroms)
 Number     Number       Type             X           Y           Z
 ---------------------------------------------------------------------
      1          6           0       -2.530004   -0.308198   -0.015179
      2          6           0       -1.171662   -0.354903    0.098666
      3          1           0       -3.066417    0.633993   -0.183171
      4          1           0       -3.102127   -1.236086    0.034653
      5          7           0       -0.278154    0.712011   -0.063637
      6          1           0       -0.677742   -1.321496    0.264926
      7          1           0       -0.680811    1.644321   -0.025742
      8          1           0        0.616056    0.635689    0.423697
      9          7           0        2.281289    0.118932    1.565844
     10          1           0        2.745143   -0.786461    1.494616
     11          1           0        3.007138    0.819775    1.411113
     12          1           0        1.991085    0.214078    2.540023
 ---------------------------------------------------------------------
                    Distance matrix (angstroms):
                    1          2          3          4          5
     1  C    0.000000
     2  C    1.363904   0.000000
     3  H    1.097126   2.155793   0.000000
     4  H    1.091231   2.123035   1.883061   0.000000
     5  N    2.472651   1.401072   2.791914   3.432138   0.000000
     6  H    2.129813   1.098135   3.119374   2.436794   2.098279
     7  H    2.689230   2.062355   2.595508   3.763398   1.016253
     8  H    3.313793   2.069505   3.732143   4.180883   1.021240
     9  N    5.082383   3.781535   5.649983   5.758628   3.091554
    10  H    5.507757   4.180464   6.213444   6.043527   3.716705
    11  H    5.828085   4.534838   6.282064   6.591232   3.602728
    12  H    5.219394   4.035707   5.759378   5.858385   3.489474
                    6          7          8          9         10
     6  H    0.000000
     7  H    2.980028   0.000000
     8  H    2.351530   1.703290   0.000000
     9  N    3.538797   3.692424   2.084356   0.000000
    10  H    3.676212   4.467364   2.775318   1.019789   0.000000
    11  H    4.413290   4.042944   2.593483   1.020774   1.629604
    12  H    3.828405   3.970865   2.558769   1.020928   1.631734
                   11         12
    11  H    0.000000
    12  H    1.635136   0.000000
 Stoichiometry    C2H8N2
 Framework group  C1[X(C2H8N2)]
 Deg. of freedom    30
 Full point group                 C1      NOp   1
 Largest Abelian subgroup         C1      NOp   1
 Largest concise Abelian subgroup C1      NOp   1
                         Standard orientation:                         
 ---------------------------------------------------------------------
 Center     Atomic      Atomic             Coordinates (Angstroms)
 Number     Number       Type             X           Y           Z
 ---------------------------------------------------------------------
      1          6           0       -2.375652   -0.284736    0.193211
      2          6           0       -1.065679   -0.291190   -0.186476
      3          1           0       -2.858583    0.613802    0.597058
      4          1           0       -2.972146   -1.189933    0.068322
      5          7           0       -0.193469    0.804975   -0.212512
      6          1           0       -0.625228   -1.213976   -0.586938
      7          1           0       -0.482939    1.621528    0.318730
      8          1           0        0.802656    0.596850   -0.126777
      9          7           0        2.705315   -0.226685    0.088212
     10          1           0        3.043349   -1.001786   -0.481807
     11          1           0        3.392695    0.520578   -0.017075
     12          1           0        2.765261   -0.539533    1.058175
 ---------------------------------------------------------------------
 Rotational constants (GHZ):          21.5581575           2.1510454           2.0131938
 Standard basis: Aug-CC-pVDZ (5D, 7F)
 There are   172 symmetry adapted cartesian basis functions of A   symmetry.
 There are   164 symmetry adapted basis functions of A   symmetry.
   164 basis functions,   260 primitive gaussians,   172 cartesian basis functions
    17 alpha electrons       17 beta electrons
       nuclear repulsion energy       115.2172001135 Hartrees.
 NAtoms=   12 NActive=   12 NUniq=   12 SFac= 1.00D+00 NAtFMM=   60 NAOKFM=F Big=F
 Integral buffers will be    131072 words long.
 Raffenetti 1 integral format.
 Two-electron integral symmetry is turned on.
 One-electron integrals computed using PRISM.
 NBasis=   164 RedAO= T EigKep=  4.77D-05  NBF=   164
 NBsUse=   164 1.00D-06 EigRej= -1.00D+00 NBFU=   164
 Initial guess from the checkpoint file:  "/scr/Gau-57557.chk"
 B after Tr=    -0.000000    0.000000   -0.000000
         Rot=    0.998105   -0.061319    0.001138   -0.005041 Ang=  -7.06 deg.
 ExpMin= 2.97D-02 ExpMax= 9.05D+03 ExpMxC= 3.09D+02 IAcc=3 IRadAn=         5 AccDes= 0.00D+00
 Harris functional with IExCor=  205 and IRadAn=       5 diagonalized for initial guess.
 HarFok:  IExCor=  205 AccDes= 0.00D+00 IRadAn=         5 IDoV= 1 UseB2=F ITyADJ=14
 ICtDFT=  3500011 ScaDFX=  1.000000  1.000000  1.000000  1.000000
 FoFCou: FMM=F IPFlag=           0 FMFlag=      100000 FMFlg1=           0
         NFxFlg=           0 DoJE=T BraDBF=F KetDBF=T FulRan=T
         wScrn=  0.000000 ICntrl=       500 IOpCl=  0 I1Cent=   200000004 NGrid=           0
         NMat0=    1 NMatS0=      1 NMatT0=    0 NMatD0=    1 NMtDS0=    0 NMtDT0=    0
 Petite list used in FoFCou.
 Keep R1 ints in memory in canonical form, NReq=100304641.
 Requested convergence on RMS density matrix=1.00D-08 within 128 cycles.
 Requested convergence on MAX density matrix=1.00D-06.
 Requested convergence on             energy=1.00D-06.
 No special actions if energy rises.
 SCF Done:  E(RHF) =  -189.295346056     A.U. after   12 cycles
            NFock= 12  Conv=0.55D-08     -V/T= 2.0028
 ExpMin= 2.97D-02 ExpMax= 9.05D+03 ExpMxC= 3.09D+02 IAcc=3 IRadAn=         5 AccDes= 0.00D+00
 HarFok:  IExCor=  205 AccDes= 0.00D+00 IRadAn=         5 IDoV=-2 UseB2=F ITyADJ=14
 ICtDFT= 12500011 ScaDFX=  1.000000  1.000000  1.000000  1.000000
 Range of M.O.s used for correlation:     5   164
 NBasis=   164 NAE=    17 NBE=    17 NFC=     4 NFV=     0
 NROrb=    160 NOA=    13 NOB=    13 NVA=   147 NVB=   147

 **** Warning!!: The largest alpha MO coefficient is  0.33359878D+02

 Fully direct method using O(ONN) memory.
 JobTyp=1 Pass  1:  I=   5 to  17 NPSUse= 40 ParTrn=T ParDer=T DoDerP=T.
 Spin components of T(2) and E(2):
     alpha-alpha T2 =       0.2820793508D-01 E2=     -0.8044842744D-01
     alpha-beta  T2 =       0.1716071613D+00 E2=     -0.5095722498D+00
     beta-beta   T2 =       0.2820793508D-01 E2=     -0.8044842744D-01
 ANorm=    0.1108162006D+01
 E2 =    -0.6704691047D+00 EUMP2 =    -0.18996581516078D+03
          IDoAtm=111111111111
          Differentiating once with respect to electric field.
                with respect to dipole field.
          Differentiating once with respect to nuclear coordinates.
 Keep R1 ints in memory in canonical form, NReq=100314659.
          There are     1 degrees of freedom in the 1st order CPHF.  IDoFFX=0 NUNeed=     1.
 LinEq1:  Iter=  0 NonCon=     1 RMS=3.78D-03 Max=6.11D-02 NDo=     1
 AX will form     1 AO Fock derivatives at one time.
 LinEq1:  Iter=  1 NonCon=     1 RMS=6.92D-04 Max=4.81D-03 NDo=     1
 LinEq1:  Iter=  2 NonCon=     1 RMS=3.08D-04 Max=4.74D-03 NDo=     1
 LinEq1:  Iter=  3 NonCon=     1 RMS=5.39D-05 Max=3.76D-04 NDo=     1
 LinEq1:  Iter=  4 NonCon=     1 RMS=1.97D-05 Max=1.69D-04 NDo=     1
 LinEq1:  Iter=  5 NonCon=     1 RMS=5.35D-06 Max=9.21D-05 NDo=     1
 LinEq1:  Iter=  6 NonCon=     1 RMS=1.51D-06 Max=1.03D-05 NDo=     1
 LinEq1:  Iter=  7 NonCon=     1 RMS=6.84D-07 Max=1.22D-05 NDo=     1
 LinEq1:  Iter=  8 NonCon=     1 RMS=1.70D-07 Max=1.55D-06 NDo=     1
 LinEq1:  Iter=  9 NonCon=     1 RMS=4.22D-08 Max=4.12D-07 NDo=     1
 LinEq1:  Iter= 10 NonCon=     1 RMS=1.05D-08 Max=9.43D-08 NDo=     1
 LinEq1:  Iter= 11 NonCon=     1 RMS=3.80D-09 Max=2.68D-08 NDo=     1
 LinEq1:  Iter= 12 NonCon=     1 RMS=9.25D-10 Max=6.89D-09 NDo=     1
 LinEq1:  Iter= 13 NonCon=     1 RMS=1.74D-10 Max=1.49D-09 NDo=     1
 LinEq1:  Iter= 14 NonCon=     0 RMS=3.78D-11 Max=3.54D-10 NDo=     1
 Linear equations converged to 1.000D-10 1.000D-09 after    14 iterations.
 End of Minotr F.D. properties file   721 does not exist.
 End of Minotr F.D. properties file   722 does not exist.
 End of Minotr F.D. properties file   788 does not exist.
 Calling FoFJK, ICntrl=  10002127 FMM=F ISym2X=0 I1Cent= 0 IOpClX= 0 NMat=1 NMatS=1 NMatT=0.
 ***** Axes restored to original set *****
 -------------------------------------------------------------------
 Center     Atomic                   Forces (Hartrees/Bohr)
 Number     Number              X              Y              Z
 -------------------------------------------------------------------
      1        6           0.005403378    0.000828207    0.000358029
      2        6          -0.000721964    0.004852205   -0.001749613
      3        1           0.001284301   -0.002208200   -0.000019000
      4        1          -0.000131399    0.001164337    0.000761636
      5        7          -0.003790010   -0.001811414   -0.000371526
      6        1          -0.000213637    0.001940323   -0.000333276
      7        1          -0.001323273   -0.001919012   -0.000150625
      8        1          -0.001793447   -0.003234168    0.000868956
      9        7           0.001049733    0.001006323    0.000720612
     10        1          -0.000308113   -0.000481510   -0.000486741
     11        1          -0.000009234   -0.000264856    0.000716651
     12        1           0.000553665    0.000127765   -0.000315103
 -------------------------------------------------------------------
 Cartesian Forces:  Max     0.005403378 RMS     0.001759199

 GradGradGradGradGradGradGradGradGradGradGradGradGradGradGradGradGradGrad
 Berny optimization.
 Using GEDIIS/GDIIS optimizer.
 FormGI is forming the generalized inverse of G from B-inverse, IUseBI=4.
 Internal  Forces:  Max     0.008718950 RMS     0.001952948
 Search for a local minimum.
 Step number   4 out of a maximum of   52
 All quantities printed in internal units (Hartrees-Bohrs-Radians)
 Mixed Optimization -- RFO/linear search
 Update second derivatives using D2CorX and points    1    2    3    4
 DE= -1.59D-04 DEPred=-5.00D-04 R= 3.19D-01
 Trust test= 3.19D-01 RLast= 3.64D-01 DXMaxT set to 6.88D-01
 ITU=  0  1  1  0
 Use linear search instead of GDIIS.
     Eigenvalues ---    0.00230   0.00266   0.00723   0.01291   0.02457
     Eigenvalues ---    0.02732   0.02964   0.03073   0.03220   0.05955
     Eigenvalues ---    0.07520   0.13160   0.15327   0.15984   0.16000
     Eigenvalues ---    0.16000   0.16041   0.16318   0.17182   0.22270
     Eigenvalues ---    0.35103   0.35478   0.36290   0.43044   0.44041
     Eigenvalues ---    0.44098   0.44116   0.45997   0.55946   0.68639
 RFO step:  Lambda=-3.15422200D-04 EMin= 2.29704665D-03
 Quartic linear search produced a step of -0.39554.
 Iteration  1 RMS(Cart)=  0.07751936 RMS(Int)=  0.00255746
 Iteration  2 RMS(Cart)=  0.00472955 RMS(Int)=  0.00094442
 Iteration  3 RMS(Cart)=  0.00000334 RMS(Int)=  0.00094442
 Iteration  4 RMS(Cart)=  0.00000001 RMS(Int)=  0.00094442
 Variable       Old X    -DE/DX   Delta X   Delta X   Delta X     New X
                                 (Linear)    (Quad)   (Total)
    R1        2.57741  -0.00663  -0.00147  -0.00570  -0.00716   2.57024
    R2        2.07327  -0.00252  -0.00097  -0.00341  -0.00438   2.06889
    R3        2.06213  -0.00089  -0.00053  -0.00101  -0.00153   2.06059
    R4        2.64764  -0.00872  -0.00628  -0.00280  -0.00906   2.63858
    R5        2.07517  -0.00184  -0.00045  -0.00289  -0.00337   2.07181
    R6        1.92044  -0.00124  -0.00105  -0.00050  -0.00156   1.91888
    R7        1.92986   0.00050   0.00231  -0.00190   0.00044   1.93031
    R8        3.93886   0.00127  -0.05316   0.07620   0.02303   3.96190
    R9        1.92712   0.00032   0.00070  -0.00038   0.00032   1.92745
   R10        1.92898  -0.00030   0.00051  -0.00105  -0.00054   1.92844
   R11        1.92927  -0.00045   0.00043  -0.00109  -0.00066   1.92861
    A1        2.12836  -0.00045  -0.00140  -0.00011  -0.00151   2.12685
    A2        2.08200   0.00087   0.00489  -0.00224   0.00263   2.08463
    A3        2.07246  -0.00041  -0.00353   0.00262  -0.00093   2.07153
    A4        2.21353  -0.00015   0.00229  -0.00301  -0.00077   2.21276
    A5        2.08372   0.00081  -0.00137   0.00475   0.00335   2.08706
    A6        1.98338  -0.00062  -0.00067  -0.00128  -0.00191   1.98148
    A7        2.02818  -0.00088  -0.00263  -0.00836  -0.01364   2.01454
    A8        2.03333  -0.00253   0.00065  -0.01290  -0.01342   2.01991
    A9        1.97980   0.00249   0.01042  -0.00522   0.00572   1.98552
   A10        2.14746  -0.00114   0.00969  -0.01508  -0.00526   2.14220
   A11        1.89106   0.00104   0.00036   0.00268   0.00240   1.89345
   A12        1.84696   0.00044  -0.00361   0.00626   0.00322   1.85018
   A13        1.84995   0.00027  -0.00189   0.00301   0.00034   1.85029
   A14        1.85322  -0.00001  -0.00260   0.00328   0.00180   1.85502
   A15        1.85749  -0.00064  -0.00389   0.00172  -0.00245   1.85504
   A16        2.94645   0.00131   0.10159  -0.06358   0.03780   2.98425
   A17        3.19995  -0.00148  -0.04655  -0.10782  -0.15236   3.04759
    D1       -0.08027   0.00064   0.00707   0.00463   0.01172  -0.06854
    D2       -3.13993   0.00007   0.00291  -0.00270   0.00018  -3.13975
    D3        3.03181   0.00109   0.00539   0.01531   0.02072   3.05253
    D4       -0.02785   0.00052   0.00123   0.00798   0.00918  -0.01867
    D5        0.29293  -0.00031  -0.02645   0.03225   0.00744   0.30037
    D6        2.69786  -0.00045  -0.01108  -0.00391  -0.01657   2.68128
    D7       -2.92658   0.00029  -0.02253   0.03947   0.01860  -2.90798
    D8       -0.52166   0.00015  -0.00716   0.00332  -0.00542  -0.52707
    D9        0.84363   0.00050  -0.00574   0.00922   0.00149   0.84512
   D10        3.04216   0.00042  -0.02011  -0.02162  -0.04287   2.99929
   D11       -1.23644   0.00042  -0.03470   0.00619  -0.02929  -1.26572
   D12       -3.06429  -0.00033   0.03713   0.01865   0.05638  -3.00791
   D13       -0.86576  -0.00041   0.02276  -0.01219   0.01202  -0.85374
   D14        1.13883  -0.00041   0.00817   0.01562   0.02560   1.16443
         Item               Value     Threshold  Converged?
 Maximum Force            0.008719     0.000450     NO 
 RMS     Force            0.001953     0.000300     NO 
 Maximum Displacement     0.223527     0.001800     NO 
 RMS     Displacement     0.076730     0.001200     NO 
 Predicted change in Energy=-2.463530D-04
 GradGradGradGradGradGradGradGradGradGradGradGradGradGradGradGradGradGrad

                          Input orientation:                          
 ---------------------------------------------------------------------
 Center     Atomic      Atomic             Coordinates (Angstroms)
 Number     Number       Type             X           Y           Z
 ---------------------------------------------------------------------
      1          6           0       -2.543196   -0.306517   -0.069296
      2          6           0       -1.197353   -0.354923    0.121165
      3          1           0       -3.061248    0.630661   -0.297173
      4          1           0       -3.125849   -1.226516   -0.013349
      5          7           0       -0.295425    0.702491   -0.012944
      6          1           0       -0.716728   -1.314337    0.345912
      7          1           0       -0.707844    1.630388   -0.009218
      8          1           0        0.559067    0.629639    0.541982
      9          7           0        2.317104    0.121813    1.565174
     10          1           0        2.778389   -0.781145    1.454702
     11          1           0        3.025834    0.826920    1.360430
     12          1           0        2.101043    0.213180    2.558424
 ---------------------------------------------------------------------
                    Distance matrix (angstroms):
                    1          2          3          4          5
     1  C    0.000000
     2  C    1.360114   0.000000
     3  H    1.094810   2.149531   0.000000
     4  H    1.090419   2.120581   1.879850   0.000000
     5  N    2.464497   1.396275   2.781316   3.425254   0.000000
     6  H    2.126990   1.096352   3.113415   2.437344   2.091380
     7  H    2.669031   2.048921   2.573107   3.742815   1.015428
     8  H    3.297588   2.057052   3.716297   4.163209   1.021474
     9  N    5.145627   3.829341   5.714362   5.825415   3.106920
    10  H    5.555817   4.215034   6.258084   6.100291   3.715306
    11  H    5.860281   4.557175   6.311793   6.629259   3.596165
[...]
 ,-0.00006240,0.00020894,0.00187561,-0.00140061,-0.00142816,-1.07845013
 ,1.38836180,0.35879810,-0.00004644,0.00000021,0.00002465,0.00011093,-0
 .00002069,-0.00003073,-0.00002028,0.00000897,-0.00000945,-0.00000340,0
 .00000203,-0.00001436,-0.00035080,0.00010439,-0.00009584,0.00003483,0.
 00006842,0.00002247,-0.00003774,-0.00003366,-0.00001541,0.00064051,-0.
 00032914,0.00017771,-0.75421647,1.44326798,1.26074646,0.74765239,0.000
 06372,0.00002840,-0.00008434,-0.00013640,-0.00020566,0.00005974,-0.000
 00123,0.00000365,0.00000454,0.00002032,0.00000472,0.00002580,0.0000821
 9,-0.00013459,-0.00032641,0.00003656,0.00002063,-0.00001149,0.00003369
 ,0.00004427,-0.00007388,-0.00079190,0.00085956,0.00047355,1.43518070,-
 0.76224157,-1.25073266,-1.42491996,0.75432892,0.00004957,-0.00001557,-
 0.00008898,-0.00014219,-0.00009395,0.00009892,0.00001486,-0.00000692,0
 .00001530,0.00001875,-0.00000824,0.00002537,-0.00028892,-0.00030501,-0
 .00058054,-0.00001397,-0.00004102,-0.00003636,0.00008040,0.00004957,-0
 .00018753,-0.00116439,0.00135043,0.00095627,1.24405076,-1.24042339,-0.
 38617381,-1.24589646,1.22963900,0.39030456,0.00001864,-0.00003488,-0.0
 0001863,-0.00000059,0.00001836,-0.00003481,0.00000611,-0.00000179,0.00
 000873,-0.00000527,0.00000182,0.00000692,-0.00007186,-0.00019599,-0.00
 011284,-0.00002906,-0.00003179,0.00001855,0.00006511,0.00000103,0.0000
 6261,0.00014874,0.00030221,0.00011819,-0.32084472,-0.85868383,-0.22859
 844,-0.00075901,-0.00108862,0.00033369,0.31456495,0.00000438,-0.000050
 53,0.00000880,0.00005918,0.00016644,-0.00004903,0.00001241,-0.00000468
 ,-0.00000069,-0.00000801,0.00000241,0.00000388,0.00027262,-0.00030219,
 0.00003884,-0.00003936,-0.00005687,-0.00000513,0.00006522,-0.00003489,
 0.00003391,0.00029892,0.00070211,0.00038085,-0.83828407,-0.81940252,-0
 .30823933,-0.01336307,0.00404949,0.00615396,0.85891753,0.81422442,0.00
 007600,0.00003252,0.00000444,-0.00011778,-0.00016030,0.00008766,0.0000
 0333,-0.00000005,0.00000065,0.00001906,-0.00000209,-0.00000153,0.00009
 825,0.00013317,-0.00008009,-0.00000715,0.00000179,0.00001565,0.0000282
 4,0.00002311,-0.00001200,-0.00043044,-0.00013510,-0.00010832,-0.232890
 55,-0.32167463,0.22960363,-0.00691229,0.00570062,0.00056744,0.22983668
 ,0.30080760,-0.23158493,0.00002654,0.00002074,0.00001547,-0.00009670,-
 0.00006249,0.00000922,0.00000320,-0.00000258,0.00000182,0.00000721,-0.
 00000056,-0.00000355,0.00002838,0.00003181,0.00009441,-0.00002960,-0.0
 0001896,-0.00000370,0.00001067,0.00001868,0.00001745,-0.00007956,0.000
 06498,-0.00037272,0.04286720,-0.02881906,0.04450624,0.00699550,-0.0084
 7906,0.00295789,0.00690696,-0.00793575,0.01029666,-0.05663980,-0.00000
 791,-0.00001554,0.00004119,-0.00008217,0.00001196,-0.00005943,0.000010
 15,0.00000015,-0.00000488,0.00000551,-0.00000274,-0.00000402,-0.000004
 01,-0.00011153,0.00005828,0.00000434,-0.00002922,-0.00000429,0.0000375
 9,0.00002443,-0.00001687,-0.00004964,0.00023252,-0.00011743,-0.0411065
 7,-0.05774727,0.17147399,-0.00478550,0.00324219,0.00370116,0.00079596,
 0.00070682,0.01527335,0.04518225,0.05368823,0.00007890,0.00003122,-0.0
 0000957,-0.00009007,-0.00013990,0.00005727,-0.00000106,0.00000180,0.00
 000370,0.00001121,0.00000348,0.00000463,0.00022523,-0.00001077,-0.0000
 8503,-0.00001092,0.00001397,0.00000763,0.00007675,0.00000761,0.0000346
 6,-0.00021858,0.00008317,0.00004306,0.06706513,0.17415859,-0.20177665,
 -0.00799675,0.01532552,-0.00490066,-0.00162064,0.00086634,0.00150740,-
 0.05751920,-0.19034104,0.20511356,-0.00009490,-0.00000562,-0.00010882,
 0.00002604,0.00002140,-0.00000980,0.00018087,-0.00000153,0.00006137,-0
 .00044707,0.00006767,-0.00000595,-0.00000983,-0.00005242,-0.00000212,-
 0.00004446,0.00000095,-0.00005915,-0.00006770,0.00004554,0.00004578,-0
 .00001390,-0.00001600,-0.00001576,0.00001821,0.00002408,-0.00000721,0.
 00000523,0.00000844,0.00004521,-0.00000216,-0.00000712,-0.00000687,0.0
 0000544,-0.00000241,-0.00002058,-0.00002253,-0.00001753,0.00000498,-0.
 00000156,0.00000520,0.00001309,0.00001939,0.00000371,0.00000503,0.0000
 0219,0.00000717,-0.00000615,0.00001693,0.00000574,0.00000364,-0.000011
 17,-0.00000705,0.00000297,-0.00000186,0.00000007,0.00005089,-0.0000009
 0,-0.00000282,-0.00000369,0.00000379,0.00000404,-0.00002515,0.00000828
 ,-0.00000114,-0.00002757,-0.00000993,0.00000021,0.00004631,0.00000772,
 0.00000111,-0.00001198,0.00000111,0.00000096,-0.00001870,-0.00000001,-
 0.00000557,-0.00001702,-0.00011120,0.00002865,-0.00003191,0.00015473,0
 .00000299,-0.00002955,0.00000217,0.00000193,-0.00000784,-0.00000381,0.
 00000092,0.00000785,0.00022235,-0.00009078,-0.00000326,0.00001712,0.00
 007744,0.00006599,-0.00011277,0.00000369,0.00000390,-0.00000125,-0.000
 00083,-0.00000204,0.00000420,-0.00025592,0.00039438,0.00008026,-0.0000
 1218,-0.00004588,-0.00014777,-0.00008842,0.00010183,0.00000479,0.00000
 344,0.00000653,0.00000217,0.00000049,0.00000214,0.00015952,0.00012413,
 0.00035010,0.00000564,-0.00001892,-0.00000074,0.00005948,-0.00000027,0
 .00005175,0.00000450,-0.00000105,0.00000255,-0.00000287,-0.00000224,-0
 .00000432,-0.00000716,0.00004748,0.00000563,-0.00010787,0.00000678,0.0
 0000449,-0.00001050,-0.00001219,-0.00000316,0.00004120,-0.00000077,0.0
 0000064,0.00000108,-0.00000244,0.00000704,0.00000270,0.00000913,0.0000
 0017,0.00000150,-0.00003095,-0.00002411,0.00000168,-0.00000939,0.00001
 046,0.00001515,0.00006372,0.00002929,0.00000715,-0.00000243,-0.0000013
 0,0.00000186,-0.00000109,0.00000651,0.00000343,0.00000614,-0.00002574,
 -0.00007379,-0.00006392,-0.00005989,0.00000825,-0.00001014,0.00000493,
 -0.00003130,0.00001602,-0.00001186,-0.00000143,0.00000041,-0.00000077,
 0.00000103,0.00000212,0.00000084,-0.00003765,0.00015959,0.00000925,-0.
 00000337,-0.00000043,0.00000337,-0.00003463,0.00000475,0.00000144,-0.0
 0001658,-0.00003874,-0.00000668,0.00002669,0.00000242,0.00000403,0.000
 00170,-0.00000085,0.00000069,0.00000082,0.00012298,-0.00019750,0.00002
 319,-0.00000256,0.00000544,-0.00000316,-0.00008349,0.00018067,0.000001
 81,0.00002385,-0.00000399,0.00001185,-0.00003817,0.00001967,-0.0000034
 4,-0.00000342,-0.00000404,0.00000160,0.00000033,-0.00000009,-0.0000362
 0,0.00002923,0.00005940,-0.00000866,0.00000145,-0.00000850,0.00001159,
 -0.00004045,0.00000306,0.00003133,0.00001898,-0.00002630,-0.00001301,-
 0.00004434,0.00011960,-0.00000186,0.00000655,0.00000660,0.00000287,-0.
 00000065,-0.00000165,-0.00035680,0.00001907,-0.00010743,0.00000867,-0.
 00000166,-0.00000991,0.00007742,0.00000059,0.00006096,0.00065470,0.000
 01296,0.00000581,0.00000864,0.00008113,0.00003255,-0.00004801,-0.00001
 525,-0.00000369,0.00000376,-0.00000243,-0.00000103,-0.00000557,0.00013
 398,-0.00032573,-0.00005582,-0.00003966,-0.00001823,-0.00004111,-0.000
 11827,0.00002763,0.00004259,0.00000701,0.00054025,0.00000270,-0.000015
 10,0.00004267,0.00002569,-0.00000507,-0.00012114,-0.00000633,-0.000007
 88,-0.00000289,-0.00000419,-0.00000448,-0.00000633,0.00007993,-0.00006
 338,-0.00043595,-0.00001362,0.00000111,0.00002613,-0.00002846,0.000025
 19,-0.00008171,-0.00021064,0.00013377,0.00081236,-0.00017868,-0.000003
 95,-0.00004544,0.00040898,0.00032403,-0.00007237,0.00000295,0.00000072
 ,-0.00001261,-0.00002168,-0.00000113,0.00001473,0.00073271,0.00024443,
 0.00006816,0.00002324,0.00005055,-0.00000491,-0.00000663,-0.00010631,-
 0.00018435,-0.00097599,-0.00114919,0.00153395,-0.20596595,0.00003743,0
 .00012556,-0.00002921,-0.00007864,-0.00029454,0.00028715,-0.00001388,0
 .00000612,-0.00000287,0.00001376,0.00000224,0.00000078,0.00010660,0.00
 057110,-0.00048775,0.00001695,0.00009634,-0.00001532,-0.00005510,-0.00
 000734,-0.00007530,-0.00071252,-0.00174578,0.00019877,1.26129701,1.266
 82163,-0.00006103,-0.00001001,0.00008289,-0.00016583,-0.00001176,-0.00
 020675,0.00002586,0.00000199,-0.00000980,0.00001604,-0.00000125,0.0000
 0499,-0.00028443,-0.00005896,0.00027822,0.00002389,-0.00009430,0.00004
 105,-0.00005484,0.00003818,0.00007982,0.00039690,0.00047046,-0.0014315
 6,-0.23755651,-0.99557881,1.97191476,0.00006440,0.00002045,0.00001300,
 -0.00012427,-0.00012468,0.00003420,0.00000204,-0.00000256,0.00000053,0
 .00000855,0.00000092,-0.00000460,0.00015651,-0.00000338,0.00013920,-0.
 00000057,-0.00000349,-0.00000260,0.00003515,0.00002058,0.00003562,-0.0
 0013238,0.00013491,-0.00025282,-0.02151648,0.05867756,0.04305103,0.016
 95842,0.00002303,-0.00000010,0.00002023,-0.00003967,-0.00002760,-0.000
 09716,0.00000246,-0.00000255,-0.00000097,-0.00000007,0.00000253,0.0000
 0977,-0.00000340,-0.00010472,-0.00000946,0.00001622,0.00000190,0.00002
 319,0.00002573,0.00001229,0.00003242,-0.00011666,0.00022154,-0.0000029
 1,0.04752393,-0.05932345,-0.05431468,-0.06591284,0.05942487,0.00002993
 ,0.00001267,-0.00000940,-0.00004100,-0.00004888,0.00003724,-0.00000066
 ,0.00000213,0.00000580,0.00000397,0.00000147,0.00000212,0.00009386,0.0
 0002238,-0.00006555,-0.00002793,-0.00000231,-0.00001779,0.00000656,0.0
 0001365,0.00000601,-0.00019646,-0.00000684,-0.00007153,0.02246981,-0.0
 4302467,-0.02118685,-0.04102262,0.06561642,0.01045401,0.00006507,-0.00
 001474,0.00002542,-0.00003006,-0.00003227,-0.00000600,0.00000308,-0.00
 000639,0.00000355,-0.00000160,-0.00000240,-0.00000402,-0.00005864,-0.0
 0003475,-0.00004281,0.00000648,-0.00002472,0.00002717,0.00005035,0.000
 00869,-0.00000117,0.00000165,0.00013691,-0.00004976,-0.32708800,-1.032
 07772,-0.33618376,0.00689722,0.01601004,0.00861330,0.32216556,-0.00002
 659,-0.00009478,0.00001946,0.00007534,0.00027926,-0.00010803,0.0000163
 0,-0.00000534,0.00000356,-0.00001727,-0.00000056,-0.00000359,0.0002234
 3,-0.00037083,0.00021594,-0.00003692,-0.00008196,-0.00000595,0.0000525
 6,-0.00004607,0.00000903,0.00053035,0.00085501,0.00041785,-1.01019708,
 -1.03197018,-0.46895799,-0.00193074,-0.00093886,-0.00691563,1.01075236
 ,1.02992319,-0.00005862,-0.00005473,-0.00001342,0.00013202,0.00016647,
 0.00006816,0.00000472,-0.00000261,-0.00000026,-0.00001125,-0.00000538,
 -0.00000923,-0.00026164,-0.00019746,0.00006406,0.00000297,-0.00002120,
 0.00000067,0.00006688,-0.00000874,-0.00001616,0.00029370,0.00021687,0.
 00002292,-0.33643403,-0.47894475,0.23363087,-0.00008869,-0.00631362,0.
 00283916,0.33450845,0.48809102,-0.23974633,0.00004096,-0.00000435,-0.0
 0000444,-0.00019349,-0.00018653,0.00002997,-0.00000983,0.00000852,0.00
 000972,0.00001141,0.00000230,-0.00000774,-0.00069320,-0.00016603,-0.00
 017097,0.00001382,0.00001019,0.00003140,-0.00005717,0.00007194,0.00011
 039,0.00070340,0.00081790,-0.00107644,0.55458554,-0.28721144,0.5307926
 7,-0.00234859,0.00247123,0.01007124,-0.00201112,0.00055824,0.00184549,
 -0.55004171,-0.00003813,-0.00002047,-0.00001767,-0.00000079,-0.0000271
 9,-0.00004480,-0.00000466,0.00000430,-0.00000467,0.00000542,-0.0000033
 6,-0.00000582,-0.00037128,-0.00003145,0.00028495,0.00005193,0.00001145
 ,0.00004933,0.00001098,0.00002540,0.00001844,0.00029329,0.00041166,-0.
 00067788,-0.29798302,-0.17428170,1.51851711,0.00912326,0.00073416,-0.0
 1567038,0.00528498,0.00245113,-0.00292587,0.28362803,0.17072607,0.0000
 5416,0.00005985,-0.00004568,0.00017006,-0.00007991,0.00008396,-0.00002
 963,0.00000084,0.00000157,-0.00001065,0.00000432,0.00000130,0.00030698
 ,0.00023060,-0.00028916,0.00004227,0.00014320,-0.00000088,-0.00000749,
 -0.00006049,-0.00005348,-0.00032536,-0.00071874,0.00124703,0.55022356,
 1.51767197,-2.18319764,-0.00190225,-0.00496323,0.00800677,-0.00689036,
 -0.01276566,0.00315957,-0.54163130,-1.49952274,2.17108663,-0.00238526,
 -0.00118254,-0.00311500,-0.00063364,0.00077382,-0.00076675,0.00322590,
 -0.00033993,0.00231095,-0.01692096,0.00091060,0.00478211,-0.00207987,-
 0.00919351,-0.01871881,-0.00009578,-0.00203422,0.00190556,0.00407916,0
 .01172145,-0.00454935,0.00072069,0.00049642,-0.00037574,-0.00038798,-0
 .00082283,0.00061247,-0.00067963,0.00048538,0.00006734,-0.00000614,-0.
 00068101,-0.00058673,0.00009222,-0.00024492,-0.00007870,0.00027442,0.0
 0028863,-0.00002238,-0.00063933,-0.00057569,0.00012259,0.00005135,0.00
 004023,0.00017781,0.00020714,0.00007806,-0.00029553,-0.00024498,0.0003
 5143,0.00005310,-0.00006374,-0.00007747,0.00005890,-0.00005754,0.00014
 211,0.00001001,-0.00002198,0.00000536,0.00003450,0.00007458,-0.0000499
 7,0.00010165,0.00005742,-0.00006429,-0.00007601,0.00010934,-0.00032952
 ,-0.00029962,-0.00054189,0.00025819,-0.00006472,-0.00001867,0.00003652
 ,0.00008715,0.00001424,-0.00011616,0.00016600,-0.00408619,-0.00326369,
 -0.00029989,0.00944811,0.04236147,-0.01264437,0.00074273,-0.00015707,0
 .00028302,-0.00028727,-0.00010856,0.00016478,0.30330782,-0.00316990,-0
 .00223675,0.00008833,0.01607217,0.00767316,-0.00715179,0.00021143,0.00
 061503,0.00001992,-0.00012005,0.00011840,0.00055556,-1.71840969,3.3810
 4331,0.00271486,0.00168159,0.00008978,-0.00737425,-0.02106114,-0.00422
 103,0.00002399,-0.00033064,-0.00072590,-0.00009020,0.00051856,0.001702
 24,0.81730238,-0.66557404,-0.65722000,-0.00017047,-0.00006225,-0.00014
 458,0.00363653,-0.00185942,0.00009006,-0.00003769,0.00007512,0.0001795
 5,0.00004292,0.00000510,-0.00008640,0.00149068,0.00047671,-0.00122649,
 -0.00287196,-0.00001823,-0.00013137,0.00015418,0.00218904,0.00055115,0
 .00085140,0.00008108,-0.00010668,-0.00019449,-0.00008713,0.00003187,0.
 00002276,-0.00022402,-0.00216762,-0.00093605,-0.00090088,-0.00043611,-
 0.00020546,0.00032064,0.00013645,-0.00251806,0.00104945,0.00275317,0.0
 0001074,-0.00011043,-0.00030366,0.00007799,0.00002496,0.00001969,0.001
 31497,0.00011115,-0.00093678,0.00101028,-0.00067483,-0.00216565,0.0016
 4396,0.00317153,-0.00013481,-0.00053676,-0.02903260,0.00619793,-0.0001
 2220,0.00061985,-0.00018008,0.00021341,0.00018121,0.00047934,0.2385300
 4,1.72451477,-0.27826667,-0.00161090,-0.00132113,0.00036931,-0.2315785
 4,0.00200768,0.00070205,0.00141671,-0.00487369,0.00740001,-0.00514769,
 0.00063884,-0.00042712,-0.00024947,0.00006032,-0.00009949,0.00014939,1
 .70614419,-3.58087847,0.70922104,0.00202775,0.00170826,-0.00143083,-1.
 69599587,3.56216215,-0.00212507,-0.00135391,-0.00064853,-0.00024514,0.
 00769933,0.00251689,-0.00017266,0.00024046,0.00066855,0.00008388,-0.00
 047078,-0.00139990,-0.26809306,0.68577434,0.83097018,0.00057943,0.0007
 4943,0.00072310,0.27276340,-0.69535725,-0.82918049,0.00125399,0.001382
 55,-0.00044361,0.00074012,-0.00374174,0.00190325,-0.00017425,-0.000034
 81,-0.00000840,0.00028441,-0.00011538,-0.00013839,-0.54779151,-0.02179
 954,-0.53268957,-0.00037739,0.00051504,-0.00013069,-0.00524613,-0.0075
 5088,-0.00148976,0.54680384,0.00071211,-0.00015963,-0.00030341,-0.0030
 2797,-0.00098323,0.00158231,-0.00031387,0.00042173,0.00059671,-0.00017
 182,-0.00012772,-0.00057082,-0.02697119,0.19667427,-0.02413122,0.00018
 535,0.00052188,0.00076885,-0.00225211,0.00876319,0.00267889,0.03309621
 ,-0.20347517,0.00023399,0.00073619,-0.00045871,0.00403810,0.00259753,0
 .00175177,-0.00011765,0.00002450,0.00002475,0.00014602,-0.00008093,-0.
 00022849,-0.53683705,-0.01546036,-0.16914342,-0.00029316,0.00016633,-0
 .00026982,-0.00012052,-0.00690794,-0.00300170,0.52833036,0.02012563,0.
 17007864,-0.00027108,-0.00023787,-0.00002628,0.00064546,0.00077738,-0.
 00001876,0.00000081,0.00001465,-0.00000364,-0.00006639,0.00000432,0.00
 001389,-0.00080912,0.00193641,-0.00040892,-0.00003652,-0.00017226,0.00
 003413,-0.00100902,-0.00214141,-0.00098292,0.00312829,-0.00096524,0.00
 373689,0.00165930,0.00006697,0.00004629,0.00002301,-0.00003567,-0.0000
 0283,-0.00012613,0.00001095,-0.00000856,0.00001518,0.00002697,0.000003
 11,-0.00001413,0.00042189,-0.00068317,0.00055572,0.00007751,0.00001354
 ,0.00001905,0.00008643,0.00047768,-0.00000555,-0.00139262,-0.00182056,
 -0.00091701,-0.00004829,0.00293549,-0.00020168,-0.00006295,0.00004606,
 0.00069020,0.00028189,-0.00020313,-0.00001161,0.00001140,-0.00002348,-
 0.00003506,0.00001186,0.00001783,-0.00087890,0.00139625,-0.00024899,-0
 .00008004,-0.00008291,0.00005412,-0.00095803,-0.00146422,-0.00054746,0
 .00396598,-0.00060581,0.00049513,-0.00098842,0.00024320,0.00179880,-0.
 00002516,-0.00003447,0.00001488,0.00000588,0.00007675,-0.00005248,-0.0
 0000183,0.00000353,-0.00000346,-0.00001354,0.00000102,-0.00000379,-0.0
 0001110,-0.00002886,0.00001302,-0.00002198,-0.00000074,0.00002740,-0.0
 0006969,0.00011958,-0.00006556,0.00005038,0.00011087,0.00056589,-0.000
 74120,0.00003662,-0.00104210,0.00058079,-0.00000820,0.00000863,-0.0000
 2838,0.00005123,-0.00000147,0.00002928,-0.00000144,0.00000220,0.000000
 51,-0.00000071,0.00000182,0.00000831,-0.00004882,-0.00007684,0.0000291
 8,-0.00002647,-0.00000139,-0.00001501,-0.00002348,0.00002875,-0.000011
 09,0.00010604,-0.00010526,0.00000574,0.00043566,-0.00006636,-0.0000869
 1,-0.00030575,0.00010757,-0.00005380,-0.00004152,0.00003387,0.00007689
 ,0.00014182,-0.00005919,-0.00000012,0.00000106,-0.00000246,-0.00001219
 ,-0.00000250,-0.00000891,-0.00020452,-0.00001484,-0.00022021,-0.000011
 40,-0.00002371,0.00003824,-0.00002955,-0.00000501,0.00002511,0.0003510
 0,0.00021963,0.00072470,-0.00021903,-0.00059049,-0.00116504,0.00027400
 ,0.00021034,0.00053669,-0.00003879,-0.00001647,0.00001225,0.00015426,0
 .00014019,-0.00007962,0.00000217,0.00000030,0.00000045,-0.00000424,0.0
 0000042,0.00000246,-0.00022124,-0.00004542,0.00003305,0.00000778,-0.00
 002717,0.00001604,-0.00000176,-0.00018304,-0.00007748,0.00012988,-0.00
 049191,0.00024526,-0.00076569,0.00097863,-0.00066997,0.00016186,-0.000
 08334,-0.00003685,0.00046819,0.00005498,0.00001598,-0.00000235,-0.0001
 5251,-0.00014399,0.00004216,-0.00000018,-0.00000298,0.00000041,0.00000
 502,0.00000068,-0.00000449,0.00031350,0.00006157,0.00011919,0.00000325
 ,0.00002297,0.00000767,-0.00001191,0.00009229,0.00002174,-0.00046201,0
 .00040189,-0.00042442,0.00014154,-0.00098891,0.00023567,0.00010553,0.0
 0002068,0.00011789,-0.00017050,0.00048160,-0.00002122,0.00000128,0.000
 00997,0.00010884,0.00004337,-0.00001952,-0.00000161,0.00000033,-0.0000
 0013,-0.00000142,0.00000131,0.00000067,-0.00022876,0.00002637,-0.00014
 232,0.00000595,-0.00002381,-0.00000726,0.00004560,-0.00014133,-0.00003
 030,0.00020048,-0.00031688,0.00022362,-0.00057861,0.00066874,-0.000183
 09,0.00010870,-0.00008874,0.00003571,0.00038971,-0.00014690,0.00003817
 ,-0.00007471,0.00000865,0.00001601,0.00023445,0.00003231,-0.00004497,0
 .00000091,-0.00000357,-0.00001277,-0.00001019,-0.00000136,0.00000510,-
 0.00031296,0.00036196,-0.00003120,-0.00005103,-0.00003361,-0.00000665,
 -0.00021241,-0.00025347,-0.00017506,0.00119836,0.00008956,0.00007186,-
 0.00173483,-0.00022939,0.00020963,0.00008558,-0.00009472,-0.00013444,0
 .00010756,0.00017329,-0.00002766,0.00076925,-0.00000093,0.00001034,-0.
 00001393,-0.00001352,-0.00000388,0.00006641,-0.00000549,0.00000282,0.0
 0000064,-0.00000033,0.00000119,0.00000437,-0.00005802,-0.00014288,-0.0
 0009218,-0.00000179,-0.00000649,-0.00007067,0.00006331,0.00007070,0.00
 003439,-0.00000287,-0.00011139,0.00013474,0.00025510,0.00009431,0.0001
 2253,-0.00008408,0.00008167,-0.00001268,-0.00010170,0.00003823,-0.0000
 2374,-0.00004968,-0.00003462,0.00000403,0.00001997,-0.00002570,0.00001
 454,-0.00007632,0.00006696,-0.00000050,0.00000049,-0.00000283,0.000000
 27,0.00000366,0.00000806,0.00012140,0.00022909,0.00009646,-0.00002321,
 -0.00000831,-0.00004160,-0.00016593,-0.00008342,-0.00009544,0.00014934
 ,-0.00004389,-0.00019645,-0.00055832,0.00012841,-0.00004074,0.00016350
 ,-0.00005322,0.00006149,0.00016470,0.00003344,0.00007448,0.00013017,-0
 .00014990,0.00009531\\@
 The archive entry for this job was punched.


 ... I FELL INTO A REVERIE ... THE ATOMS WERE GAMBOLING BEFORE MY EYES
 ... I SAW HOW TWO SMALL ONES UNITED TO FORM A PAIR;
 HOW THE LARGER ONES SEIZED TWO OF THE SMALLER ONES;
 HOW STILL LARGER ONES KEPT HOLD OF THREE OR FOUR
 SMALLER ONES ... I SAW HOW THE LARGER ONES FORMED A CHAIN ...
 THIS WAS THE ORIGIN OF THE STRUCTURE THEORY.

                                   -- C.F.KEKULE VON STRADONITZ
 Job cpu time:       3 days  3 hours 28 minutes 16.4 seconds.
 Elapsed time:       0 days  1 hours 55 minutes 18.8 seconds.
 File lengths (MBytes):  RWF=   3028 Int=      0 D2E=      0 Chk=     46 Scr=      1
 Normal termination of Gaussian 16 at Wed Apr  9 12:14:58 2025.
