 Entering Gaussian System, Link 0=g16
 Input=1.gjf
 Output=1.log
 Initial command:
 /sw/contrib/gaussian/g16/A03/g16/l1.exe "/gscratch/scrubbed/gds001/Gau-4230.inp" -scrdir="/gscratch/scrubbed/gds001/"
 Entering Link 1 = /sw/contrib/gaussian/g16/A03/g16/l1.exe PID=      4232.
  
 Copyright (c) 1988,1990,1992,1993,1995,1998,2003,2009,2016,
            Gaussian, Inc.  All Rights Reserved.
  
 This is part of the Gaussian(R) 16 program.  It is based on
 the Gaussian(R) 09 system (copyright 2009, Gaussian, Inc.),
 the Gaussian(R) 03 system (copyright 2003, Gaussian, Inc.),
 the Gaussian(R) 98 system (copyright 1998, Gaussian, Inc.),
 the Gaussian(R) 94 system (copyright 1995, Gaussian, Inc.),
 the Gaussian 92(TM) system (copyright 1992, Gaussian, Inc.),
 the Gaussian 90(TM) system (copyright 1990, Gaussian, Inc.),
 the Gaussian 88(TM) system (copyright 1988, Gaussian, Inc.),
 the Gaussian 86(TM) system (copyright 1986, Carnegie Mellon
 University), and the Gaussian 82(TM) system (copyright 1983,
 Carnegie Mellon University). Gaussian is a federally registered
 trademark of Gaussian, Inc.
  
 This software contains proprietary and confidential information,
 including trade secrets, belonging to Gaussian, Inc.
  
 This software is provided under written license and may be
 used, copied, transmitted, or stored only in accord with that
 written license.
  
 The following legend is applicable only to US Government
 contracts under FAR:
  
                    RESTRICTED RIGHTS LEGEND
  
 Use, reproduction and disclosure by the US Government is
 subject to restrictions as set forth in subparagraphs (a)
 and (c) of the Commercial Computer Software - Restricted
 Rights clause in FAR 52.227-19.
  
 Gaussian, Inc.
 340 Quinnipiac St., Bldg. 40, Wallingford CT 06492
  
  
 ---------------------------------------------------------------
 Warning -- This program may not be used in any manner that
 competes with the business of Gaussian, Inc. or will provide
 assistance to any competitor of Gaussian, Inc.  The licensee
 of this program is prohibited from giving any competitor of
 Gaussian, Inc. access to this program.  By using this program,
 the user acknowledges that Gaussian, Inc. is engaged in the
 business of creating and licensing software in the field of
 computational chemistry and represents and warrants to the
 licensee that it is not a competitor of Gaussian, Inc. and that
 it will not use this program in any manner prohibited above.
 ---------------------------------------------------------------
  

 Cite this work as:
 Gaussian 16, Revision A.03,
 M. J. Frisch, G. W. Trucks, H. B. Schlegel, G. E. Scuseria, 
 M. A. Robb, J. R. Cheeseman, G. Scalmani, V. Barone, 
 G. A. Petersson, H. Nakatsuji, X. Li, M. Caricato, A. V. Marenich, 
 J. Bloino, B. G. Janesko, R. Gomperts, B. Mennucci, H. P. Hratchian, 
 J. V. Ortiz, A. F. Izmaylov, J. L. Sonnenberg, D. Williams-Young, 
 F. Ding, F. Lipparini, F. Egidi, J. Goings, B. Peng, A. Petrone, 
 T. Henderson, D. Ranasinghe, V. G. Zakrzewski, J. Gao, N. Rega, 
 G. Zheng, W. Liang, M. Hada, M. Ehara, K. Toyota, R. Fukuda, 
 J. Hasegawa, M. Ishida, T. Nakajima, Y. Honda, O. Kitao, H. Nakai, 
 T. Vreven, K. Throssell, J. A. Montgomery, Jr., J. E. Peralta, 
 F. Ogliaro, M. J. Bearpark, J. J. Heyd, E. N. Brothers, K. N. Kudin, 
 V. N. Staroverov, T. A. Keith, R. Kobayashi, J. Normand, 
 K. Raghavachari, A. P. Rendell, J. C. Burant, S. S. Iyengar, 
 J. Tomasi, M. Cossi, J. M. Millam, M. Klene, C. Adamo, R. Cammi, 
 J. W. Ochterski, R. L. Martin, K. Morokuma, O. Farkas, 
 J. B. Foresman, and D. J. Fox, Gaussian, Inc., Wallingford CT, 2016.
 
 ******************************************
 Gaussian 16:  ES64L-G16RevA.03 25-Dec-2016
                27-Oct-2020 
 ******************************************
 %nprocshared=28
 Will use up to   28 processors via shared memory.
 %mem=41GB
 %chk=1.chk
 -------------------------------------------------------
 # MP2/6-31G** Opt=(Recalc=50) Freq=(vibrot, anharmonic)
 -------------------------------------------------------
 1/10=4,18=20,19=15,38=1,71=50,80=1/1,3;
 2/9=110,12=2,17=6,18=5,40=1/2;
 3/5=1,6=6,7=101,11=9,25=1,30=1,71=2,140=1/1,2,3;
 4//1;
 5/5=2,38=5/2;
 8/6=3,8=1,10=2,19=11,30=-1/1;
 9/15=3,16=-3/6;
 11/6=1,8=1,15=11,17=12,24=-1,27=1,28=-2,29=300,32=6,42=3/1,2,10;
 10/6=2,21=1/2;
 8/6=4,8=1,10=2,19=11,30=-1/11,4;
 10/5=1,20=4/2;
 11/12=2,14=11,16=1,17=2,28=-2,42=3/2,10,12;
 6/7=2,8=2,9=2,10=2/1;
 7/10=1,12=2,25=1,44=2/1,2,3,16;
 1/10=4,18=20,19=15,71=50,80=1/3(3);
 2/9=110/2;
 7/9=1,25=1,44=-1/16;
 99//99;
 2/9=110/2;
 3/5=1,6=6,7=101,11=9,25=1,30=1,71=2,140=1/1,2,3;
 4/5=5,16=3,69=1/1;
 5/5=2,38=5/2;
 8/6=3,8=1,10=2,19=11,30=-1/1;
 9/15=3,16=-3/6;
 11/6=1,8=1,15=11,17=12,24=-1,27=1,28=-2,29=300,32=6,42=3/1,2,10;
 10/6=2,21=1/2;
 8/6=4,8=1,10=2,19=11,30=-1/11,4;
 10/5=1,20=4/2;
 11/12=2,14=11,16=1,17=2,28=-2,42=3/2,10,12;
 7/10=1,12=2,25=1,44=2/1,2,3,16;
 1/18=20,19=15,71=50,80=1/3(-12);
 2/9=110/2;
 6/7=2,8=2,9=2,10=2/1;
 7/9=1,25=1,44=-1/16;
 99//99;
 -----
 H,H,H
 -----
 Symbolic Z-matrix:
 Charge =  0 Multiplicity = 1
 C                    -2.22418   3.87741   0. 
 C                    -2.34707   2.54563   0. 
 C                    -1.164     1.65888   0. 
 O                    -1.04337   4.57108   0. 
 O                    -0.01669   2.0923    0. 
 H                    -1.38978   0.57996   0. 
 H                    -3.06815   4.55659   0. 
 H                    -3.31878   2.06883   0. 
 H                    -0.30439   3.92063   0. 
 

 GradGradGradGradGradGradGradGradGradGradGradGradGradGradGradGradGradGrad
 Berny optimization.
 Initialization pass.
                           ----------------------------
                           !    Initial Parameters    !
                           ! (Angstroms and Degrees)  !
 --------------------------                            --------------------------
 ! Name  Definition              Value          Derivative Info.                !
 --------------------------------------------------------------------------------
 ! R1    R(1,2)                  1.3374         calculate D2E/DX2 analytically  !
 ! R2    R(1,4)                  1.3695         calculate D2E/DX2 analytically  !
 ! R3    R(1,7)                  1.0833         calculate D2E/DX2 analytically  !
 ! R4    R(2,3)                  1.4785         calculate D2E/DX2 analytically  !
 ! R5    R(2,8)                  1.0824         calculate D2E/DX2 analytically  !
 ! R6    R(3,5)                  1.2264         calculate D2E/DX2 analytically  !
 ! R7    R(3,6)                  1.1023         calculate D2E/DX2 analytically  !
 ! R8    R(4,9)                  0.9845         calculate D2E/DX2 analytically  !
 ! A1    A(2,1,4)              125.7046         calculate D2E/DX2 analytically  !
 ! A2    A(2,1,7)              123.5527         calculate D2E/DX2 analytically  !
 ! A3    A(4,1,7)              110.7427         calculate D2E/DX2 analytically  !
 ! A4    A(1,2,3)              121.5809         calculate D2E/DX2 analytically  !
 ! A5    A(1,2,8)              121.4086         calculate D2E/DX2 analytically  !
 ! A6    A(3,2,8)              117.0105         calculate D2E/DX2 analytically  !
 ! A7    A(2,3,5)              122.4517         calculate D2E/DX2 analytically  !
 ! A8    A(2,3,6)              115.0337         calculate D2E/DX2 analytically  !
 ! A9    A(5,3,6)              122.5145         calculate D2E/DX2 analytically  !
 ! A10   A(1,4,9)              108.2131         calculate D2E/DX2 analytically  !
 ! D1    D(4,1,2,3)              0.0            calculate D2E/DX2 analytically  !
 ! D2    D(4,1,2,8)            180.0            calculate D2E/DX2 analytically  !
 ! D3    D(7,1,2,3)            180.0            calculate D2E/DX2 analytically  !
 ! D4    D(7,1,2,8)              0.0            calculate D2E/DX2 analytically  !
 ! D5    D(2,1,4,9)              0.0            calculate D2E/DX2 analytically  !
 ! D6    D(7,1,4,9)            180.0            calculate D2E/DX2 analytically  !
 ! D7    D(1,2,3,5)              0.0            calculate D2E/DX2 analytically  !
 ! D8    D(1,2,3,6)            180.0            calculate D2E/DX2 analytically  !
 ! D9    D(8,2,3,5)            180.0            calculate D2E/DX2 analytically  !
 ! D10   D(8,2,3,6)              0.0            calculate D2E/DX2 analytically  !
 --------------------------------------------------------------------------------
 Trust Radius=3.00D-01 FncErr=1.00D-07 GrdErr=1.00D-07 EigMax=2.50D+02 EigMin=1.00D-04
 Number of steps in this run=     38 maximum allowed number of steps=    100.
 GradGradGradGradGradGradGradGradGradGradGradGradGradGradGradGradGradGrad

                          Input orientation:                          
 ---------------------------------------------------------------------
 Center     Atomic      Atomic             Coordinates (Angstroms)
 Number     Number       Type             X           Y           Z
 ---------------------------------------------------------------------
      1          6           0       -2.224175    3.877413    0.000000
      2          6           0       -2.347068    2.545635    0.000000
      3          6           0       -1.164002    1.658878    0.000000
      4          8           0       -1.043373    4.571085    0.000000
      5          8           0       -0.016693    2.092300    0.000000
      6          1           0       -1.389778    0.579963    0.000000
      7          1           0       -3.068149    4.556589    0.000000
      8          1           0       -3.318783    2.068830    0.000000
      9          1           0       -0.304392    3.920629    0.000000
 ---------------------------------------------------------------------
                    Distance matrix (angstroms):
                    1          2          3          4          5
     1  C    0.000000
     2  C    1.337436   0.000000
     3  C    2.458834   1.478507   0.000000
     4  O    1.369480   2.408748   2.914704   0.000000
     5  O    2.838945   2.374060   1.226447   2.682992   0.000000
     6  H    3.401381   2.186382   1.102285   4.006126   2.042677
     7  H    1.083315   2.136327   3.467349   2.024828   3.922258
     8  H    2.114034   1.082392   2.193431   3.382125   3.302173
     9  H    1.920270   2.462343   2.419596   0.984473   1.850826
                    6          7          8          9
     6  H    0.000000
     7  H    4.316304   0.000000
     8  H    2.436756   2.500353   0.000000
     9  H    3.512565   2.835983   3.537755   0.000000
 Stoichiometry    C3H4O2
 Framework group  CS[SG(C3H4O2)]
 Deg. of freedom    15
 Full point group                 CS      NOp   2
 Largest Abelian subgroup         CS      NOp   2
 Largest concise Abelian subgroup C1      NOp   1
                         Standard orientation:                         
 ---------------------------------------------------------------------
 Center     Atomic      Atomic             Coordinates (Angstroms)
 Number     Number       Type             X           Y           Z
 ---------------------------------------------------------------------
      1          6           0       -1.178326    0.459521    0.000000
      2          6           0        0.000000    1.092202    0.000000
      3          6           0        1.278014    0.348789    0.000000
      4          8           0       -1.356411   -0.898330   -0.000000
      5          8           0        1.326494   -0.876699   -0.000000
      6          1           0        2.183375    0.977562    0.000000
      7          1           0       -2.132925    0.971685    0.000000
      8          1           0        0.059965    2.172932    0.000000
      9          1           0       -0.469213   -1.325022   -0.000000
 ---------------------------------------------------------------------
 Rotational constants (GHZ):           9.7487808           4.8850859           3.2543437
 Standard basis: 6-31G(d,p) (6D, 7F)
 There are    71 symmetry adapted cartesian basis functions of A'  symmetry.
 There are    24 symmetry adapted cartesian basis functions of A"  symmetry.
 There are    71 symmetry adapted basis functions of A'  symmetry.
 There are    24 symmetry adapted basis functions of A"  symmetry.
    95 basis functions,   168 primitive gaussians,    95 cartesian basis functions
    19 alpha electrons       19 beta electrons
       nuclear repulsion energy       162.8593886888 Hartrees.
 NAtoms=    9 NActive=    9 NUniq=    9 SFac= 1.00D+00 NAtFMM=   60 NAOKFM=F Big=F
 Integral buffers will be    131072 words long.
 Raffenetti 1 integral format.
 Two-electron integral symmetry is turned on.
 One-electron integrals computed using PRISM.
 NBasis=    95 RedAO= T EigKep=  2.13D-03  NBF=    71    24
 NBsUse=    95 1.00D-06 EigRej= -1.00D+00 NBFU=    71    24
 ExpMin= 1.61D-01 ExpMax= 5.48D+03 ExpMxC= 8.25D+02 IAcc=3 IRadAn=         5 AccDes= 0.00D+00
 Harris functional with IExCor=  205 and IRadAn=       5 diagonalized for initial guess.
 HarFok:  IExCor=  205 AccDes= 0.00D+00 IRadAn=         5 IDoV= 1 UseB2=F ITyADJ=14
 ICtDFT=  3500011 ScaDFX=  1.000000  1.000000  1.000000  1.000000
 FoFCou: FMM=F IPFlag=           0 FMFlag=      100000 FMFlg1=           0
         NFxFlg=           0 DoJE=T BraDBF=F KetDBF=T FulRan=T
         wScrn=  0.000000 ICntrl=       500 IOpCl=  0 I1Cent=   200000004 NGrid=           0
         NMat0=    1 NMatS0=      1 NMatT0=    0 NMatD0=    1 NMtDS0=    0 NMtDT0=    0
 Petite list used in FoFCou.
 Initial guess orbital symmetries:
       Occupied  (A') (A') (A') (A') (A') (A') (A') (A') (A') (A')
                 (A') (A') (A') (A') (A") (A') (A") (A') (A")
       Virtual   (A") (A") (A') (A') (A') (A') (A') (A') (A') (A')
                 (A') (A") (A') (A') (A") (A') (A') (A") (A') (A')
                 (A') (A') (A') (A") (A') (A") (A') (A') (A') (A')
                 (A') (A') (A") (A") (A") (A") (A') (A") (A') (A')
                 (A') (A") (A') (A') (A') (A') (A") (A') (A") (A')
                 (A') (A') (A") (A") (A') (A') (A") (A") (A') (A")
                 (A') (A") (A') (A') (A') (A') (A') (A') (A') (A')
                 (A') (A') (A') (A') (A') (A')
 The electronic state of the initial guess is 1-A'.
 Keep R1 ints in memory in symmetry-blocked form, NReq=16267377.
 Requested convergence on RMS density matrix=1.00D-08 within 128 cycles.
 Requested convergence on MAX density matrix=1.00D-06.
 Requested convergence on             energy=1.00D-06.
 No special actions if energy rises.
 SCF Done:  E(RHF) =  -265.638078628     A.U. after   15 cycles
            NFock= 15  Conv=0.15D-08     -V/T= 2.0032
 ExpMin= 1.61D-01 ExpMax= 5.48D+03 ExpMxC= 8.25D+02 IAcc=3 IRadAn=         5 AccDes= 0.00D+00
 HarFok:  IExCor=  205 AccDes= 0.00D+00 IRadAn=         5 IDoV=-2 UseB2=F ITyADJ=14
 ICtDFT= 12500011 ScaDFX=  1.000000  1.000000  1.000000  1.000000
 Range of M.O.s used for correlation:     6    95
 NBasis=    95 NAE=    19 NBE=    19 NFC=     5 NFV=     0
 NROrb=     90 NOA=    14 NOB=    14 NVA=    76 NVB=    76
 Disk-based method using ON**2 memory for 14 occupieds at a time.
 Permanent disk used for amplitudes=     2572486 words.
 Estimated scratch disk usage=    22536130 words.
 Actual    scratch disk usage=    21487554 words.
 JobTyp=1 Pass  1:  I=   6 to  19 NPSUse= 28 ParTrn=T ParDer=T DoDerP=T.
 (rs|ai) integrals will be sorted in core.
 Spin components of T(2) and E(2):
     alpha-alpha T2 =       0.3111696367D-01 E2=     -0.9865201835D-01
     alpha-beta  T2 =       0.1748513783D+00 E2=     -0.5589760136D+00
     beta-beta   T2 =       0.3111696367D-01 E2=     -0.9865201835D-01
 ANorm=    0.1112243366D+01
 E2 =    -0.7562800503D+00 EUMP2 =    -0.26639435867823D+03
 G2DrvN: will do    10 centers at a time, making    1 passes.
 Calling FoFCou, ICntrl=  3107 FMM=F I1Cent=   0 AccDes= 0.00D+00.
 End of G2Drv F.D. properties file   721 does not exist.
 End of G2Drv F.D. properties file   722 does not exist.
 End of G2Drv F.D. properties file   788 does not exist.
          IDoAtm=111111111
          Differentiating once with respect to electric field.
                with respect to dipole field.
          Differentiating once with respect to nuclear coordinates.
 Keep R1 ints in memory in symmetry-blocked form, NReq=16268554.
          There are    30 degrees of freedom in the 1st order CPHF.  IDoFFX=6 NUNeed=    30.
     27 vectors produced by pass  0 Test12= 4.81D-15 3.33D-09 XBig12= 1.42D+01 2.86D+00.
 AX will form    27 AO Fock derivatives at one time.
     27 vectors produced by pass  1 Test12= 4.81D-15 3.33D-09 XBig12= 7.18D-01 1.69D-01.
     27 vectors produced by pass  2 Test12= 4.81D-15 3.33D-09 XBig12= 2.72D-02 4.15D-02.
     27 vectors produced by pass  3 Test12= 4.81D-15 3.33D-09 XBig12= 3.23D-04 3.58D-03.
     27 vectors produced by pass  4 Test12= 4.81D-15 3.33D-09 XBig12= 2.25D-06 2.44D-04.
     27 vectors produced by pass  5 Test12= 4.81D-15 3.33D-09 XBig12= 1.13D-08 1.82D-05.
     22 vectors produced by pass  6 Test12= 4.81D-15 3.33D-09 XBig12= 3.56D-11 6.77D-07.
      3 vectors produced by pass  7 Test12= 4.81D-15 3.33D-09 XBig12= 1.31D-13 4.37D-08.
 InvSVY:  IOpt=1 It=  1 EMax= 2.22D-15
 Solved reduced A of dimension   187 with    30 vectors.
 End of Minotr F.D. properties file   721 does not exist.
 End of Minotr F.D. properties file   722 does not exist.
 End of Minotr F.D. properties file   788 does not exist.
 MDV=  5502926848.
 Form MO integral derivatives with frozen-active canonical formalism.
 Discarding MO integrals.
 Reordered first order wavefunction length =      4170272
 In DefCFB: NBatch=  1 ICI= 19 ICA= 76 LFMax= 76
            Large arrays: LIAPS=    52128400 LIARS=    14403900 words.
 Semi-Direct transformation.
 ModeAB=           2 MOrb=            19 LenV=    5502579752
 LASXX=      6949516 LTotXX=     6949516 LenRXX=     6949516
 LTotAB=     7176680 MaxLAS=     8230800 LenRXY=     8230800
 NonZer=    13899032 LenScr=    20971520 LnRSAI=           0
 LnScr1=           0 LExtra=           0 Total=     36151836
 MaxDsk=          -1 SrtSym=           F ITran=            4
 JobTyp=0 Pass  1:  I=   1 to  19.
 (rs|ai) integrals will be sorted in core.
 Spin components of T(2) and E(2):
     alpha-alpha T2 =       0.3111696367D-01 E2=     -0.9865201835D-01
     alpha-beta  T2 =       0.1748513783D+00 E2=     -0.5589760136D+00
     beta-beta   T2 =       0.3111696367D-01 E2=     -0.9865201835D-01
 ANorm=    0.1572949653D+01
 E2 =    -0.7562800503D+00 EUMP2 =    -0.26639435867823D+03
          IDoAtm=111111111
          Differentiating once with respect to electric field.
                with respect to dipole field.
          Differentiating once with respect to nuclear coordinates.
          There are     1 degrees of freedom in the 1st order CPHF.  IDoFFX=0 NUNeed=     1.
 LinEq1:  Iter=  0 NonCon=     1 RMS=7.43D-03 Max=1.73D-01 NDo=     1
 LinEq1:  Iter=  1 NonCon=     1 RMS=2.59D-03 Max=4.24D-02 NDo=     1
 LinEq1:  Iter=  2 NonCon=     1 RMS=8.77D-04 Max=1.43D-02 NDo=     1
 LinEq1:  Iter=  3 NonCon=     1 RMS=3.44D-04 Max=3.43D-03 NDo=     1
 LinEq1:  Iter=  4 NonCon=     1 RMS=1.03D-04 Max=1.23D-03 NDo=     1
 LinEq1:  Iter=  5 NonCon=     1 RMS=4.09D-05 Max=6.59D-04 NDo=     1
 LinEq1:  Iter=  6 NonCon=     1 RMS=1.51D-05 Max=3.15D-04 NDo=     1
 LinEq1:  Iter=  7 NonCon=     1 RMS=4.29D-06 Max=3.61D-05 NDo=     1
 LinEq1:  Iter=  8 NonCon=     1 RMS=1.80D-06 Max=3.36D-05 NDo=     1
 LinEq1:  Iter=  9 NonCon=     1 RMS=4.18D-07 Max=3.95D-06 NDo=     1
 LinEq1:  Iter= 10 NonCon=     1 RMS=9.45D-08 Max=7.72D-07 NDo=     1
 LinEq1:  Iter= 11 NonCon=     1 RMS=2.17D-08 Max=2.88D-07 NDo=     1
 LinEq1:  Iter= 12 NonCon=     1 RMS=5.31D-09 Max=4.64D-08 NDo=     1
 LinEq1:  Iter= 13 NonCon=     1 RMS=1.65D-09 Max=1.17D-08 NDo=     1
 LinEq1:  Iter= 14 NonCon=     1 RMS=2.74D-10 Max=1.81D-09 NDo=     1
 LinEq1:  Iter= 15 NonCon=     0 RMS=3.68D-11 Max=3.43D-10 NDo=     1
 Linear equations converged to 1.000D-10 1.000D-09 after    15 iterations.
 End of Minotr F.D. properties file   721 does not exist.
 End of Minotr F.D. properties file   722 does not exist.
 End of Minotr F.D. properties file   788 does not exist.
 Symmetrizing basis deriv contribution to polar:
 IMax=3 JMax=2 DiffMx= 0.00D+00
 G2DrvN: will do    10 centers at a time, making    1 passes.
 Calling FoFCou, ICntrl=  3107 FMM=F I1Cent=   0 AccDes= 0.00D+00.
 End of G2Drv F.D. properties file   721 does not exist.
 End of G2Drv F.D. properties file   722 does not exist.
 End of G2Drv F.D. properties file   788 does not exist.
 R2 and R3 integrals will be kept in memory, NReq=    21618160.
 DD1Dir will call FoFMem   1 times, MxPair=       380
 NAB=   190 NAA=     0 NBB=     0.
 Discarding MO integrals.

 **********************************************************************

            Population analysis using the SCF density.

 **********************************************************************

 Orbital symmetries:
       Occupied  (A') (A') (A') (A') (A') (A') (A') (A') (A') (A')
                 (A') (A') (A') (A') (A") (A') (A") (A') (A")
       Virtual   (A") (A') (A") (A') (A') (A') (A') (A') (A') (A')
                 (A') (A") (A') (A") (A') (A') (A") (A') (A') (A')
                 (A') (A') (A') (A') (A") (A') (A") (A') (A') (A')
                 (A') (A') (A") (A") (A") (A") (A') (A") (A') (A')
                 (A') (A') (A") (A') (A') (A") (A') (A') (A') (A")
                 (A') (A') (A") (A") (A') (A') (A") (A") (A") (A')
                 (A') (A") (A') (A') (A') (A') (A') (A') (A') (A')
                 (A') (A') (A') (A') (A') (A')
 The electronic state is 1-A'.
 Alpha  occ. eigenvalues --  -20.60258 -20.57151 -11.35096 -11.33957 -11.23585
 Alpha  occ. eigenvalues --   -1.41080  -1.38515  -1.06475  -0.89702  -0.81002
 Alpha  occ. eigenvalues --   -0.70712  -0.67014  -0.64025  -0.60761  -0.58522
 Alpha  occ. eigenvalues --   -0.55356  -0.53467  -0.43166  -0.36669
 Alpha virt. eigenvalues --    0.09442   0.23804   0.25660   0.28317   0.29196
 Alpha virt. eigenvalues --    0.31087   0.39400   0.45006   0.55517   0.57562
 Alpha virt. eigenvalues --    0.71401   0.72720   0.76557   0.79137   0.81215
 Alpha virt. eigenvalues --    0.84115   0.89059   0.92997   0.99401   1.02684
 Alpha virt. eigenvalues --    1.07144   1.09249   1.11460   1.15767   1.21181
 Alpha virt. eigenvalues --    1.28064   1.28094   1.29079   1.34202   1.43123
 Alpha virt. eigenvalues --    1.45179   1.53728   1.54882   1.57795   1.69625
 Alpha virt. eigenvalues --    1.73629   1.75013   1.87061   1.88478   1.99149
 Alpha virt. eigenvalues --    2.04651   2.06790   2.07188   2.17576   2.19282
 Alpha virt. eigenvalues --    2.27726   2.29522   2.34011   2.40147   2.42402
 Alpha virt. eigenvalues --    2.63124   2.65038   2.66318   2.72047   2.72308
 Alpha virt. eigenvalues --    2.77055   2.81809   2.92221   2.93882   2.95350
 Alpha virt. eigenvalues --    2.99917   3.06999   3.11565   3.22338   3.33570
 Alpha virt. eigenvalues --    3.39156   3.56398   3.59409   3.70419   3.88803
 Alpha virt. eigenvalues --    4.10951   4.35202   4.42580   4.59727   4.71124
 Alpha virt. eigenvalues --    4.97444
          Condensed to atoms (all electrons):
               1          2          3          4          5          6
     1  C    4.454408   0.580156  -0.047051   0.309738   0.002907   0.003434
     2  C    0.580156   5.318557   0.383252  -0.053717  -0.082816  -0.088861
     3  C   -0.047051   0.383252   4.368398  -0.002052   0.506454   0.407160
     4  O    0.309738  -0.053717  -0.002052   8.141477  -0.020542  -0.000159
     5  O    0.002907  -0.082816   0.506454  -0.020542   8.182233  -0.036997
     6  H    0.003434  -0.088861   0.407160  -0.000159  -0.036997   0.581065
     7  H    0.414584  -0.048944   0.001551  -0.035266  -0.000065  -0.000085
     8  H   -0.020075   0.383003  -0.023390   0.001776   0.002250   0.002378
     9  H   -0.025044  -0.007483  -0.004318   0.301209   0.038136   0.000701
               7          8          9
     1  C    0.414584  -0.020075  -0.025044
     2  C   -0.048944   0.383003  -0.007483
     3  C    0.001551  -0.023390  -0.004318
     4  O   -0.035266   0.001776   0.301209
     5  O   -0.000065   0.002250   0.038136
     6  H   -0.000085   0.002378   0.000701
     7  H    0.490072  -0.000551   0.003323
     8  H   -0.000551   0.496423   0.000051
     9  H    0.003323   0.000051   0.278070
 Mulliken charges:
               1
     1  C    0.326944
     2  C   -0.383147
     3  C    0.409995
     4  O   -0.642465
     5  O   -0.591561
     6  H    0.131365
     7  H    0.175380
     8  H    0.158134
     9  H    0.415354
 Sum of Mulliken charges =  -0.00000
 Mulliken charges with hydrogens summed into heavy atoms:
               1
     1  C    0.502324
     2  C   -0.225013
     3  C    0.541360
     4  O   -0.227110
     5  O   -0.591561
 APT charges:
               1
     1  C    0.602718
     2  C   -0.545880
     3  C    0.802293
     4  O   -0.646597
     5  O   -0.579163
     6  H   -0.065355
     7  H    0.040618
     8  H    0.046988
     9  H    0.344378
 Sum of APT charges =  -0.00000
 APT charges with hydrogens summed into heavy atoms:
               1
     1  C    0.643337
     2  C   -0.498892
     3  C    0.736938
     4  O   -0.302219
     5  O   -0.579163
 Electronic spatial extent (au):  <R**2>=            374.0041
 Charge=             -0.0000 electrons
 Dipole moment (field-independent basis, Debye):
    X=             -0.1493    Y=              3.1213    Z=              0.0000  Tot=              3.1249
 Quadrupole moment (field-independent basis, Debye-Ang):
   XX=            -28.9131   YY=            -28.1516   ZZ=            -30.0136
   XY=              0.8402   XZ=             -0.0000   YZ=              0.0000
 Traceless Quadrupole moment (field-independent basis, Debye-Ang):
   XX=              0.1130   YY=              0.8745   ZZ=             -0.9874
   XY=              0.8402   XZ=             -0.0000   YZ=              0.0000
 Octapole moment (field-independent basis, Debye-Ang**2):
  XXX=             -1.3789  YYY=             -4.5758  ZZZ=             -0.0000  XYY=             -0.9901
  XXY=             12.4369  XXZ=             -0.0000  XZZ=              0.7036  YZZ=             -3.7496
  YYZ=             -0.0000  XYZ=              0.0000
 Hexadecapole moment (field-independent basis, Debye-Ang**3):
 XXXX=           -261.2815 YYYY=           -143.7875 ZZZZ=            -27.0443 XXXY=             -3.4724
 XXXZ=             -0.0000 YYYX=              1.3767 YYYZ=             -0.0000 ZZZX=             -0.0000
 ZZZY=             -0.0000 XXYY=            -75.9570 XXZZ=            -50.3396 YYZZ=            -33.3733
 XXYZ=             -0.0000 YYXZ=             -0.0000 ZZXY=             -0.2277
 N-N= 1.628593886888D+02 E-N=-9.502631009234D+02  KE= 2.647984523772D+02
 Symmetry A'   KE= 2.547245136002D+02
 Symmetry A"   KE= 1.007393877698D+01
  Exact polarizability:  50.826   2.922  41.770   0.000   0.000  15.868
 Approx polarizability:  39.602   2.826  37.850   0.000  -0.000  16.946
 Calling FoFJK, ICntrl=  10100127 FMM=F ISym2X=1 I1Cent= 0 IOpClX= 0 NMat=1 NMatS=1 NMatT=0.
 ***** Axes restored to original set *****
 -------------------------------------------------------------------
 Center     Atomic                   Forces (Hartrees/Bohr)
 Number     Number              X              Y              Z
 -------------------------------------------------------------------
      1        6           0.024310732    0.031323537    0.000000000
      2        6           0.007615761   -0.035201222   -0.000000000
      3        6          -0.034633231    0.012682321    0.000000000
      4        8          -0.016948930   -0.010437877   -0.000000000
      5        8           0.021918667    0.000706976   -0.000000000
      6        1           0.005232949   -0.000229727   -0.000000000
      7        1          -0.000007312   -0.001342768   -0.000000000
      8        1          -0.000066825    0.004776304    0.000000000
      9        1          -0.007421810   -0.002277544    0.000000000
 -------------------------------------------------------------------
 Cartesian Forces:  Max     0.035201222 RMS     0.013903203
 FormGI is forming the generalized inverse of G from B-inverse, IUseBI=4.

 GradGradGradGradGradGradGradGradGradGradGradGradGradGradGradGradGradGrad
 Berny optimization.
 Internal  Forces:  Max     0.027453752 RMS     0.008652906
 Search for a local minimum.
 Step number   1 out of a maximum of   38
 All quantities printed in internal units (Hartrees-Bohrs-Radians)
 Mixed Optimization -- RFO/linear search
 Second derivative matrix not updated -- analytic derivatives used.
 ITU=  0
     Eigenvalues ---    0.00999   0.01302   0.02203   0.03808   0.06534
     Eigenvalues ---    0.09037   0.10835   0.12961   0.14629   0.19404
     Eigenvalues ---    0.20321   0.22933   0.30749   0.32018   0.35101
     Eigenvalues ---    0.37837   0.37976   0.48064   0.49847   0.71309
     Eigenvalues ---    0.84549
 RFO step:  Lambda=-7.02054243D-03 EMin= 9.99255919D-03
 Linear search not attempted -- first point.
 Iteration  1 RMS(Cart)=  0.05913401 RMS(Int)=  0.00158497
 Iteration  2 RMS(Cart)=  0.00171258 RMS(Int)=  0.00000076
 Iteration  3 RMS(Cart)=  0.00000093 RMS(Int)=  0.00000000
 ClnCor:  largest displacement from symmetrization is 1.60D-10 for atom     3.
 Variable       Old X    -DE/DX   Delta X   Delta X   Delta X     New X
                                 (Linear)    (Quad)   (Total)
    R1        2.52739   0.01719   0.00000   0.04399   0.04399   2.57138
    R2        2.58794  -0.02745   0.00000  -0.08120  -0.08120   2.50674
    R3        2.04717  -0.00084   0.00000   0.00022   0.00022   2.04738
    R4        2.79397  -0.01388   0.00000  -0.07467  -0.07467   2.71930
    R5        2.04542  -0.00204   0.00000  -0.00792  -0.00792   2.03751
    R6        2.31765   0.02075   0.00000   0.03906   0.03906   2.35671
    R7        2.08302  -0.00085   0.00000  -0.00591  -0.00591   2.07711
    R8        1.86038  -0.00407   0.00000   0.01089   0.01089   1.87127
    A1        2.19396  -0.00510   0.00000  -0.02208  -0.02208   2.17187
    A2        2.15640   0.00148   0.00000  -0.01738  -0.01738   2.13902
    A3        1.93282   0.00363   0.00000   0.03946   0.03946   1.97229
    A4        2.12199  -0.00454   0.00000  -0.03282  -0.03282   2.08917
    A5        2.11898  -0.00214   0.00000  -0.02348  -0.02348   2.09550
    A6        2.04222   0.00669   0.00000   0.05630   0.05630   2.09852
    A7        2.13719   0.00736   0.00000   0.02036   0.02036   2.15755
    A8        2.00772   0.00170   0.00000   0.04119   0.04119   2.04891
    A9        2.13828  -0.00906   0.00000  -0.06155  -0.06155   2.07673
   A10        1.88868  -0.01230   0.00000  -0.05100  -0.05100   1.83767
    D1       -0.00000  -0.00000   0.00000  -0.00000   0.00000   0.00000
    D2        3.14159   0.00000   0.00000  -0.00000   0.00000   3.14159
    D3        3.14159  -0.00000   0.00000   0.00000   0.00000   3.14159
    D4        0.00000  -0.00000   0.00000   0.00000  -0.00000   0.00000
    D5        0.00000   0.00000   0.00000  -0.00000  -0.00000   0.00000
    D6        3.14159  -0.00000   0.00000  -0.00000   0.00000   3.14159
    D7        0.00000   0.00000   0.00000  -0.00000  -0.00000   0.00000
    D8        3.14159  -0.00000   0.00000   0.00000   0.00000   3.14159
    D9        3.14159  -0.00000   0.00000   0.00000   0.00000   3.14159
   D10        0.00000  -0.00000   0.00000   0.00000  -0.00000   0.00000
         Item               Value     Threshold  Converged?
 Maximum Force            0.027454     0.000450     NO 
 RMS     Force            0.008653     0.000300     NO 
 Maximum Displacement     0.209285     0.001800     NO 
 RMS     Displacement     0.058800     0.001200     NO 
 Predicted change in Energy=-3.620822D-03
 GradGradGradGradGradGradGradGradGradGradGradGradGradGradGradGradGradGrad

                          Input orientation:                          
 ---------------------------------------------------------------------
 Center     Atomic      Atomic             Coordinates (Angstroms)
 Number     Number       Type             X           Y           Z
 ---------------------------------------------------------------------
      1          6           0       -2.209173    3.890066    0.000000
      2          6           0       -2.348744    2.536528   -0.000000
      3          6           0       -1.178519    1.699106   -0.000000
      4          8           0       -1.043988    4.524079    0.000000
      5          8           0       -0.012634    2.141841   -0.000000
      6          1           0       -1.335176    0.611169   -0.000000
      7          1           0       -3.057728    4.563693    0.000000
      8          1           0       -3.332380    2.094959   -0.000000
      9          1           0       -0.358070    3.809880    0.000000
 ---------------------------------------------------------------------
                    Distance matrix (angstroms):
                    1          2          3          4          5
     1  C    0.000000
     2  C    1.360716   0.000000
     3  C    2.421272   1.438994   0.000000
     4  O    1.326510   2.377551   2.828174   0.000000
     5  O    2.807325   2.369217   1.247117   2.595909   0.000000
     6  H    3.393382   2.175851   1.099158   3.923729   2.022888
     7  H    1.083429   2.147571   3.425973   2.014130   3.890754
     8  H    2.117547   1.078204   2.189936   3.337269   3.320077
     9  H    1.852839   2.363093   2.264620   0.990234   1.703431
                    6          7          8          9
     6  H    0.000000
     7  H    4.311570   0.000000
     8  H    2.488063   2.483965   0.000000
     9  H    3.344620   2.802925   3.433289   0.000000
 Stoichiometry    C3H4O2
 Framework group  CS[SG(C3H4O2)]
 Deg. of freedom    15
 Full point group                 CS      NOp   2
 Largest Abelian subgroup         CS      NOp   2
 Largest concise Abelian subgroup C1      NOp   1
                         Standard orientation:                         
 ---------------------------------------------------------------------
 Center     Atomic      Atomic             Coordinates (Angstroms)
 Number     Number       Type             X           Y           Z
 ---------------------------------------------------------------------
      1          6           0       -1.183845    0.429384   -0.000000
      2          6           0        0.000000    1.100248   -0.000000
      3          6           0        1.236551    0.364282    0.000000
      4          8           0       -1.297147   -0.892278   -0.000000
      5          8           0        1.298739   -0.881283    0.000000
      6          1           0        2.170251    0.944241    0.000000
      7          1           0       -2.141312    0.936411   -0.000000
      8          1           0        0.009858    2.178406   -0.000000
      9          1           0       -0.367764   -1.234053   -0.000000
 ---------------------------------------------------------------------
 Rotational constants (GHZ):           9.8170385           5.1275562           3.3682691
 Standard basis: 6-31G(d,p) (6D, 7F)
 There are    71 symmetry adapted cartesian basis functions of A'  symmetry.
 There are    24 symmetry adapted cartesian basis functions of A"  symmetry.
 There are    71 symmetry adapted basis functions of A'  symmetry.
 There are    24 symmetry adapted basis functions of A"  symmetry.
    95 basis functions,   168 primitive gaussians,    95 cartesian basis functions
    19 alpha electrons       19 beta electrons
       nuclear repulsion energy       164.7905744887 Hartrees.
 NAtoms=    9 NActive=    9 NUniq=    9 SFac= 1.00D+00 NAtFMM=   60 NAOKFM=F Big=F
 Integral buffers will be    131072 words long.
 Raffenetti 1 integral format.
 Two-electron integral symmetry is turned on.
 One-electron integrals computed using PRISM.
 NBasis=    95 RedAO= T EigKep=  2.11D-03  NBF=    71    24
 NBsUse=    95 1.00D-06 EigRej= -1.00D+00 NBFU=    71    24
 Initial guess from the checkpoint file:  "1.chk"
 B after Tr=    -0.000000    0.000000   -0.000000
         Rot=    0.999990   -0.000000   -0.000000   -0.004552 Ang=  -0.52 deg.
 Initial guess orbital symmetries:
       Occupied  (A') (A') (A') (A') (A') (A') (A') (A') (A') (A')
                 (A') (A') (A') (A') (A") (A') (A") (A') (A")
       Virtual   (A") (A') (A") (A') (A') (A') (A') (A') (A') (A')
                 (A') (A") (A') (A") (A') (A') (A") (A') (A') (A')
                 (A') (A') (A') (A') (A") (A') (A") (A') (A') (A')
                 (A') (A') (A") (A") (A") (A") (A') (A") (A') (A')
                 (A') (A') (A") (A') (A') (A") (A') (A') (A') (A")
                 (A') (A') (A") (A") (A') (A') (A") (A") (A") (A')
                 (A') (A") (A') (A') (A') (A') (A') (A') (A') (A')
                 (A') (A') (A') (A') (A') (A')
 ExpMin= 1.61D-01 ExpMax= 5.48D+03 ExpMxC= 8.25D+02 IAcc=2 IRadAn=         4 AccDes= 0.00D+00
 Harris functional with IExCor=  205 and IRadAn=       4 diagonalized for initial guess.
 HarFok:  IExCor=  205 AccDes= 0.00D+00 IRadAn=         4 IDoV= 1 UseB2=F ITyADJ=14
 ICtDFT=  3500011 ScaDFX=  1.000000  1.000000  1.000000  1.000000
 FoFCou: FMM=F IPFlag=           0 FMFlag=      100000 FMFlg1=           0
         NFxFlg=           0 DoJE=T BraDBF=F KetDBF=T FulRan=T
         wScrn=  0.000000 ICntrl=       500 IOpCl=  0 I1Cent=   200000004 NGrid=           0
         NMat0=    1 NMatS0=      1 NMatT0=    0 NMatD0=    1 NMtDS0=    0 NMtDT0=    0
 Petite list used in FoFCou.
 Keep R1 ints in memory in symmetry-blocked form, NReq=16267947.
 Requested convergence on RMS density matrix=1.00D-08 within 128 cycles.
 Requested convergence on MAX density matrix=1.00D-06.
 Requested convergence on             energy=1.00D-06.
 No special actions if energy rises.
 SCF Done:  E(RHF) =  -265.639329336     A.U. after   13 cycles
            NFock= 13  Conv=0.35D-08     -V/T= 2.0029
 ExpMin= 1.61D-01 ExpMax= 5.48D+03 ExpMxC= 8.25D+02 IAcc=3 IRadAn=         5 AccDes= 0.00D+00
 HarFok:  IExCor=  205 AccDes= 0.00D+00 IRadAn=         5 IDoV=-2 UseB2=F ITyADJ=14
 ICtDFT= 12500011 ScaDFX=  1.000000  1.000000  1.000000  1.000000
 Range of M.O.s used for correlation:     6    95
 NBasis=    95 NAE=    19 NBE=    19 NFC=     5 NFV=     0
 NROrb=     90 NOA=    14 NOB=    14 NVA=    76 NVB=    76
 Fully direct method using O(ONN) memory.
 JobTyp=1 Pass  1:  I=   6 to  19 NPSUse= 28 ParTrn=T ParDer=T DoDerP=T.
 Spin components of T(2) and E(2):
     alpha-alpha T2 =       0.3146169744D-01 E2=     -0.9955834951D-01
     alpha-beta  T2 =       0.1745734246D+00 E2=     -0.5594061159D+00
     beta-beta   T2 =       0.3146169744D-01 E2=     -0.9955834951D-01
 ANorm=    0.1112428344D+01
 E2 =    -0.7585228149D+00 EUMP2 =    -0.26639785215073D+03
          IDoAtm=111111111
          Differentiating once with respect to electric field.
                with respect to dipole field.
          Differentiating once with respect to nuclear coordinates.
 Keep R1 ints in memory in symmetry-blocked form, NReq=16271122.
          There are     1 degrees of freedom in the 1st order CPHF.  IDoFFX=0 NUNeed=     1.
 LinEq1:  Iter=  0 NonCon=     1 RMS=7.77D-03 Max=1.81D-01 NDo=     1
 AX will form     1 AO Fock derivatives at one time.
 LinEq1:  Iter=  1 NonCon=     1 RMS=2.70D-03 Max=4.67D-02 NDo=     1
 LinEq1:  Iter=  2 NonCon=     1 RMS=9.44D-04 Max=1.55D-02 NDo=     1
 LinEq1:  Iter=  3 NonCon=     1 RMS=3.71D-04 Max=3.47D-03 NDo=     1
 LinEq1:  Iter=  4 NonCon=     1 RMS=1.14D-04 Max=1.48D-03 NDo=     1
 LinEq1:  Iter=  5 NonCon=     1 RMS=4.71D-05 Max=8.10D-04 NDo=     1
 LinEq1:  Iter=  6 NonCon=     1 RMS=1.79D-05 Max=3.61D-04 NDo=     1
 LinEq1:  Iter=  7 NonCon=     1 RMS=5.04D-06 Max=4.52D-05 NDo=     1
 LinEq1:  Iter=  8 NonCon=     1 RMS=2.04D-06 Max=3.56D-05 NDo=     1
 LinEq1:  Iter=  9 NonCon=     1 RMS=4.85D-07 Max=5.50D-06 NDo=     1
 LinEq1:  Iter= 10 NonCon=     1 RMS=1.19D-07 Max=1.04D-06 NDo=     1
 LinEq1:  Iter= 11 NonCon=     1 RMS=3.29D-08 Max=4.12D-07 NDo=     1
 LinEq1:  Iter= 12 NonCon=     1 RMS=8.48D-09 Max=8.64D-08 NDo=     1
 LinEq1:  Iter= 13 NonCon=     1 RMS=2.11D-09 Max=1.60D-08 NDo=     1
 LinEq1:  Iter= 14 NonCon=     1 RMS=3.02D-10 Max=2.30D-09 NDo=     1
 LinEq1:  Iter= 15 NonCon=     0 RMS=4.04D-11 Max=3.21D-10 NDo=     1
 Linear equations converged to 1.000D-10 1.000D-09 after    15 iterations.
 End of Minotr F.D. properties file   721 does not exist.
 End of Minotr F.D. properties file   722 does not exist.
 End of Minotr F.D. properties file   788 does not exist.
 Symmetrizing basis deriv contribution to polar:
 IMax=3 JMax=2 DiffMx= 0.00D+00
 Calling FoFJK, ICntrl=  10002127 FMM=F ISym2X=1 I1Cent= 0 IOpClX= 0 NMat=1 NMatS=1 NMatT=0.
 ***** Axes restored to original set *****
 -------------------------------------------------------------------
 Center     Atomic                   Forces (Hartrees/Bohr)
 Number     Number              X              Y              Z
 -------------------------------------------------------------------
      1        6          -0.002533634    0.001215574    0.000000000
      2        6          -0.001584004   -0.002136954   -0.000000000
      3        6          -0.001733628   -0.001937417   -0.000000000
      4        8           0.000726062    0.002966038    0.000000000
      5        8           0.002359153    0.001188916    0.000000000
      6        1           0.000287681   -0.000008006   -0.000000000
      7        1          -0.000202990   -0.000009316    0.000000000
      8        1          -0.000122947    0.000271811    0.000000000
      9        1           0.002804306   -0.001550645   -0.000000000
 -------------------------------------------------------------------
 Cartesian Forces:  Max     0.002966038 RMS     0.001340495

 GradGradGradGradGradGradGradGradGradGradGradGradGradGradGradGradGradGrad
 Berny optimization.
 Using GEDIIS/GDIIS optimizer.
 FormGI is forming the generalized inverse of G from B-inverse, IUseBI=4.
 Internal  Forces:  Max     0.003777514 RMS     0.001254963
 Search for a local minimum.
 Step number   2 out of a maximum of   38
 All quantities printed in internal units (Hartrees-Bohrs-Radians)
 Mixed Optimization -- RFO/linear search
 Update second derivatives using D2CorX and points    1    2
 DE= -3.49D-03 DEPred=-3.62D-03 R= 9.65D-01
 TightC=F SS=  1.41D+00  RLast= 1.77D-01 DXNew= 5.0454D-01 5.3238D-01
 Trust test= 9.65D-01 RLast= 1.77D-01 DXMaxT set to 5.05D-01
 ITU=  1  0
 Use linear search instead of GDIIS.
     Eigenvalues ---    0.00999   0.01301   0.02203   0.03808   0.06534
     Eigenvalues ---    0.09037   0.10768   0.13040   0.14546   0.19432
     Eigenvalues ---    0.20329   0.23205   0.31222   0.31934   0.35018
     Eigenvalues ---    0.37829   0.37972   0.48313   0.52928   0.70713
     Eigenvalues ---    0.83134
 RFO step:  Lambda=-7.85287654D-05 EMin= 9.99163492D-03
 Quartic linear search produced a step of -0.02384.
 Iteration  1 RMS(Cart)=  0.00417978 RMS(Int)=  0.00000758
 Iteration  2 RMS(Cart)=  0.00000821 RMS(Int)=  0.00000000
 Iteration  3 RMS(Cart)=  0.00000000 RMS(Int)=  0.00000000
 ClnCor:  largest displacement from symmetrization is 1.60D-10 for atom     3.
 Variable       Old X    -DE/DX   Delta X   Delta X   Delta X     New X
                                 (Linear)    (Quad)   (Total)
    R1        2.57138   0.00269  -0.00105   0.00531   0.00426   2.57565
    R2        2.50674   0.00378   0.00194   0.00479   0.00672   2.51346
    R3        2.04738   0.00015  -0.00001   0.00019   0.00019   2.04757
    R4        2.71930   0.00118   0.00178   0.00084   0.00262   2.72193
    R5        2.03751   0.00000   0.00019  -0.00031  -0.00012   2.03739
    R6        2.35671   0.00263  -0.00093   0.00443   0.00350   2.36021
    R7        2.07711  -0.00003   0.00014  -0.00084  -0.00069   2.07641
    R8        1.87127   0.00306  -0.00026   0.00624   0.00598   1.87725
    A1        2.17187   0.00053   0.00053   0.00105   0.00158   2.17345
    A2        2.13902  -0.00040   0.00041  -0.00129  -0.00088   2.13815
    A3        1.97229  -0.00013  -0.00094   0.00024  -0.00070   1.97159
    A4        2.08917  -0.00047   0.00078  -0.00334  -0.00256   2.08661
    A5        2.09550  -0.00007   0.00056  -0.00303  -0.00247   2.09303
    A6        2.09852   0.00054  -0.00134   0.00637   0.00503   2.10355
    A7        2.15755  -0.00063  -0.00049  -0.00170  -0.00219   2.15536
    A8        2.04891   0.00061  -0.00098   0.00530   0.00431   2.05322
    A9        2.07673   0.00002   0.00147  -0.00359  -0.00212   2.07461
   A10        1.83767   0.00177   0.00122   0.00200   0.00322   1.84089
    D1        0.00000  -0.00000   0.00000   0.00000  -0.00000   0.00000
    D2        3.14159  -0.00000   0.00000  -0.00000   0.00000   3.14159
    D3        3.14159  -0.00000   0.00000   0.00000   0.00000   3.14159
    D4       -0.00000   0.00000   0.00000   0.00000   0.00000   0.00000
    D5       -0.00000  -0.00000   0.00000   0.00000   0.00000   0.00000
    D6        3.14159  -0.00000   0.00000  -0.00000   0.00000   3.14159
    D7       -0.00000  -0.00000   0.00000  -0.00000   0.00000   0.00000
    D8        3.14159  -0.00000   0.00000  -0.00000   0.00000   3.14159
    D9        3.14159  -0.00000   0.00000  -0.00000   0.00000   3.14159
   D10        0.00000   0.00000   0.00000   0.00000  -0.00000   0.00000
         Item               Value     Threshold  Converged?
 Maximum Force            0.003778     0.000450     NO 
 RMS     Force            0.001255     0.000300     NO 
 Maximum Displacement     0.012253     0.001800     NO 
 RMS     Displacement     0.004181     0.001200     NO 
 Predicted change in Energy=-4.127623D-05
 GradGradGradGradGradGradGradGradGradGradGradGradGradGradGradGradGradGrad

                          Input orientation:                          
 ---------------------------------------------------------------------
 Center     Atomic      Atomic             Coordinates (Angstroms)
 Number     Number       Type             X           Y           Z
 ---------------------------------------------------------------------
      1          6           0       -2.210316    3.889707    0.000000
      2          6           0       -2.352150    2.534134   -0.000000
      3          6           0       -1.179905    1.697152   -0.000000
      4          8           0       -1.042054    4.525511    0.000000
      5          8           0       -0.013740    2.144341   -0.000000
      6          1           0       -1.330659    0.608752   -0.000000
      7          1           0       -3.058531    4.563922    0.000000
      8          1           0       -3.337472    2.096499   -0.000000
      9          1           0       -0.351586    3.811302    0.000000
 ---------------------------------------------------------------------
                    Distance matrix (angstroms):
                    1          2          3          4          5
     1  C    0.000000
     2  C    1.362973   0.000000
     3  C    2.422611   1.440381   0.000000
     4  O    1.330068   2.383681   2.831717   0.000000
     5  O    2.805574   2.370674   1.248967   2.593724   0.000000
     6  H    3.396831   2.179573   1.098791   3.927378   2.022945
     7  H    1.083529   2.149189   3.427478   2.016843   3.889103
     8  H    2.118036   1.078140   2.194214   3.342012   3.324076
     9  H    1.860382   2.373481   2.270626   0.993399   1.700852
                    6          7          8          9
     6  H    0.000000
     7  H    4.316122   0.000000
     8  H    2.498138   2.483140   0.000000
     9  H    3.348867   2.809624   3.443264   0.000000
 Stoichiometry    C3H4O2
 Framework group  CS[SG(C3H4O2)]
 Deg. of freedom    15
 Full point group                 CS      NOp   2
 Largest Abelian subgroup         CS      NOp   2
 Largest concise Abelian subgroup C1      NOp   1
                         Standard orientation:                         
 ---------------------------------------------------------------------
 Center     Atomic      Atomic             Coordinates (Angstroms)
 Number     Number       Type             X           Y           Z
 ---------------------------------------------------------------------
      1          6           0       -1.184083    0.428782    0.000000
      2          6           0        0.000000    1.103794    0.000000
      3          6           0        1.237743    0.367120   -0.000000
      4          8           0       -1.296382   -0.896537    0.000000
      5          8           0        1.297291   -0.880427   -0.000000
      6          1           0        2.173623    0.942853   -0.000000
      7          1           0       -2.142490    0.934243    0.000000
      8          1           0        0.004432    2.181925    0.000000
      9          1           0       -0.364796   -1.241485   -0.000000
 ---------------------------------------------------------------------
 Rotational constants (GHZ):           9.7720117           5.1291817           3.3636516
 Standard basis: 6-31G(d,p) (6D, 7F)
 There are    71 symmetry adapted cartesian basis functions of A'  symmetry.
 There are    24 symmetry adapted cartesian basis functions of A"  symmetry.
 There are    71 symmetry adapted basis functions of A'  symmetry.
 There are    24 symmetry adapted basis functions of A"  symmetry.
    95 basis functions,   168 primitive gaussians,    95 cartesian basis functions
    19 alpha electrons       19 beta electrons
       nuclear repulsion energy       164.5978103154 Hartrees.
 NAtoms=    9 NActive=    9 NUniq=    9 SFac= 1.00D+00 NAtFMM=   60 NAOKFM=F Big=F
 Integral buffers will be    131072 words long.
 Raffenetti 1 integral format.
 Two-electron integral symmetry is turned on.
 One-electron integrals computed using PRISM.
 NBasis=    95 RedAO= T EigKep=  2.12D-03  NBF=    71    24
 NBsUse=    95 1.00D-06 EigRej= -1.00D+00 NBFU=    71    24
 Initial guess from the checkpoint file:  "1.chk"
 B after Tr=     0.000000   -0.000000   -0.000000
         Rot=    1.000000   -0.000000   -0.000000   -0.000534 Ang=  -0.06 deg.
 Initial guess orbital symmetries:
       Occupied  (A') (A') (A') (A') (A') (A') (A') (A') (A') (A')
                 (A') (A') (A') (A') (A") (A') (A") (A') (A")
       Virtual   (A") (A') (A") (A') (A') (A') (A') (A') (A') (A')
                 (A") (A') (A') (A") (A') (A') (A") (A') (A') (A')
                 (A') (A') (A') (A') (A") (A') (A") (A') (A') (A')
                 (A') (A') (A") (A") (A") (A") (A') (A") (A') (A')
                 (A') (A') (A") (A') (A') (A") (A') (A') (A') (A")
                 (A') (A") (A') (A') (A") (A') (A") (A") (A") (A')
                 (A') (A") (A') (A') (A') (A') (A') (A') (A') (A')
                 (A') (A') (A') (A') (A') (A')
 Keep R1 ints in memory in symmetry-blocked form, NReq=16267903.
 Requested convergence on RMS density matrix=1.00D-08 within 128 cycles.
 Requested convergence on MAX density matrix=1.00D-06.
 Requested convergence on             energy=1.00D-06.
 No special actions if energy rises.
 SCF Done:  E(RHF) =  -265.638811677     A.U. after   10 cycles
            NFock= 10  Conv=0.99D-08     -V/T= 2.0030
 ExpMin= 1.61D-01 ExpMax= 5.48D+03 ExpMxC= 8.25D+02 IAcc=3 IRadAn=         5 AccDes= 0.00D+00
 HarFok:  IExCor=  205 AccDes= 0.00D+00 IRadAn=         5 IDoV=-2 UseB2=F ITyADJ=14
 ICtDFT= 12500011 ScaDFX=  1.000000  1.000000  1.000000  1.000000
 Range of M.O.s used for correlation:     6    95
 NBasis=    95 NAE=    19 NBE=    19 NFC=     5 NFV=     0
 NROrb=     90 NOA=    14 NOB=    14 NVA=    76 NVB=    76
 Fully direct method using O(ONN) memory.
 JobTyp=1 Pass  1:  I=   6 to  19 NPSUse= 28 ParTrn=T ParDer=T DoDerP=T.
 Spin components of T(2) and E(2):
     alpha-alpha T2 =       0.3153249280D-01 E2=     -0.9962493549D-01
     alpha-beta  T2 =       0.1749814772D+00 E2=     -0.5598306893D+00
     beta-beta   T2 =       0.3153249280D-01 E2=     -0.9962493549D-01
 ANorm=    0.1112675363D+01
 E2 =    -0.7590805603D+00 EUMP2 =    -0.26639789223772D+03
          IDoAtm=111111111
          Differentiating once with respect to electric field.
                with respect to dipole field.
          Differentiating once with respect to nuclear coordinates.
 Keep R1 ints in memory in symmetry-blocked form, NReq=16271027.
          There are     1 degrees of freedom in the 1st order CPHF.  IDoFFX=0 NUNeed=     1.
 LinEq1:  Iter=  0 NonCon=     1 RMS=7.81D-03 Max=1.82D-01 NDo=     1
 AX will form     1 AO Fock derivatives at one time.
 LinEq1:  Iter=  1 NonCon=     1 RMS=2.71D-03 Max=4.68D-02 NDo=     1
 LinEq1:  Iter=  2 NonCon=     1 RMS=9.53D-04 Max=1.57D-02 NDo=     1
 LinEq1:  Iter=  3 NonCon=     1 RMS=3.75D-04 Max=3.48D-03 NDo=     1
 LinEq1:  Iter=  4 NonCon=     1 RMS=1.16D-04 Max=1.51D-03 NDo=     1
 LinEq1:  Iter=  5 NonCon=     1 RMS=4.80D-05 Max=8.32D-04 NDo=     1
 LinEq1:  Iter=  6 NonCon=     1 RMS=1.82D-05 Max=3.66D-04 NDo=     1
 LinEq1:  Iter=  7 NonCon=     1 RMS=5.14D-06 Max=4.60D-05 NDo=     1
 LinEq1:  Iter=  8 NonCon=     1 RMS=2.08D-06 Max=3.60D-05 NDo=     1
 LinEq1:  Iter=  9 NonCon=     1 RMS=4.95D-07 Max=5.66D-06 NDo=     1
 LinEq1:  Iter= 10 NonCon=     1 RMS=1.21D-07 Max=1.05D-06 NDo=     1
 LinEq1:  Iter= 11 NonCon=     1 RMS=3.36D-08 Max=4.23D-07 NDo=     1
 LinEq1:  Iter= 12 NonCon=     1 RMS=8.68D-09 Max=8.84D-08 NDo=     1
 LinEq1:  Iter= 13 NonCon=     1 RMS=2.15D-09 Max=1.63D-08 NDo=     1
 LinEq1:  Iter= 14 NonCon=     1 RMS=3.11D-10 Max=2.40D-09 NDo=     1
 LinEq1:  Iter= 15 NonCon=     0 RMS=4.19D-11 Max=3.32D-10 NDo=     1
 Linear equations converged to 1.000D-10 1.000D-09 after    15 iterations.
 End of Minotr F.D. properties file   721 does not exist.
 End of Minotr F.D. properties file   722 does not exist.
 End of Minotr F.D. properties file   788 does not exist.
 Symmetrizing basis deriv contribution to polar:
 IMax=3 JMax=2 DiffMx= 0.00D+00
 Calling FoFJK, ICntrl=  10002127 FMM=F ISym2X=1 I1Cent= 0 IOpClX= 0 NMat=1 NMatS=1 NMatT=0.
 ***** Axes restored to original set *****
 -------------------------------------------------------------------
 Center     Atomic                   Forces (Hartrees/Bohr)
 Number     Number              X              Y              Z
 -------------------------------------------------------------------
      1        6           0.000421099    0.000435466    0.000000000
      2        6           0.000052463   -0.000037099   -0.000000000
      3        6          -0.000144437   -0.000147029   -0.000000000
      4        8          -0.000677395    0.000047703    0.000000000
      5        8           0.000240717    0.000108526    0.000000000
      6        1          -0.000038986   -0.000008498    0.000000000
      7        1          -0.000000602    0.000010774    0.000000000
      8        1          -0.000008679   -0.000052283   -0.000000000
      9        1           0.000155819   -0.000357559   -0.000000000
 -------------------------------------------------------------------
 Cartesian Forces:  Max     0.000677395 RMS     0.000201942

 GradGradGradGradGradGradGradGradGradGradGradGradGradGradGradGradGradGrad
 Berny optimization.
 Using GEDIIS/GDIIS optimizer.
 FormGI is forming the generalized inverse of G from B-inverse, IUseBI=4.
 Internal  Forces:  Max     0.000606243 RMS     0.000161993
 Search for a local minimum.
 Step number   3 out of a maximum of   38
 All quantities printed in internal units (Hartrees-Bohrs-Radians)
 Mixed Optimization -- En-DIIS/RFO-DIIS
 Update second derivatives using D2CorX and points    1    2    3
 DE= -4.01D-05 DEPred=-4.13D-05 R= 9.71D-01
 TightC=F SS=  1.41D+00  RLast= 1.41D-02 DXNew= 8.4853D-01 4.2302D-02
 Trust test= 9.71D-01 RLast= 1.41D-02 DXMaxT set to 5.05D-01
 ITU=  1  1  0
 Use linear search instead of GDIIS.
     Eigenvalues ---    0.00999   0.01301   0.02203   0.03808   0.06534
     Eigenvalues ---    0.09037   0.10794   0.13024   0.14499   0.19588
     Eigenvalues ---    0.20315   0.23161   0.30756   0.31873   0.34431
     Eigenvalues ---    0.37830   0.37949   0.47814   0.57192   0.70369
     Eigenvalues ---    0.81765
 RFO step:  Lambda=-2.04827493D-06 EMin= 9.99144471D-03
 Quartic linear search produced a step of -0.02625.
 Iteration  1 RMS(Cart)=  0.00122522 RMS(Int)=  0.00000076
 Iteration  2 RMS(Cart)=  0.00000110 RMS(Int)=  0.00000000
 Iteration  3 RMS(Cart)=  0.00000000 RMS(Int)=  0.00000000
 ClnCor:  largest displacement from symmetrization is 8.66D-12 for atom     3.
 Variable       Old X    -DE/DX   Delta X   Delta X   Delta X     New X
                                 (Linear)    (Quad)   (Total)
    R1        2.57565   0.00013  -0.00011   0.00069   0.00058   2.57622
    R2        2.51346  -0.00061  -0.00018  -0.00113  -0.00131   2.51216
    R3        2.04757   0.00001  -0.00000   0.00007   0.00007   2.04764
    R4        2.72193   0.00007  -0.00007   0.00004  -0.00003   2.72190
    R5        2.03739   0.00003   0.00000   0.00005   0.00006   2.03744
    R6        2.36021   0.00026  -0.00009   0.00069   0.00060   2.36080
    R7        2.07641   0.00001   0.00002  -0.00007  -0.00006   2.07636
    R8        1.87725   0.00037  -0.00016   0.00152   0.00136   1.87862
    A1        2.17345  -0.00021  -0.00004  -0.00087  -0.00092   2.17253
    A2        2.13815   0.00012   0.00002   0.00014   0.00016   2.13831
    A3        1.97159   0.00010   0.00002   0.00073   0.00075   1.97234
    A4        2.08661   0.00001   0.00007  -0.00031  -0.00024   2.08636
    A5        2.09303   0.00004   0.00006   0.00046   0.00053   2.09356
    A6        2.10355  -0.00005  -0.00013  -0.00016  -0.00029   2.10326
    A7        2.15536   0.00000   0.00006  -0.00014  -0.00008   2.15528
    A8        2.05322  -0.00004  -0.00011   0.00015   0.00004   2.05326
    A9        2.07461   0.00004   0.00006  -0.00002   0.00004   2.07464
   A10        1.84089  -0.00026  -0.00008  -0.00093  -0.00102   1.83987
    D1       -0.00000   0.00000   0.00000  -0.00000   0.00000   0.00000
    D2        3.14159   0.00000   0.00000  -0.00000   0.00000   3.14159
    D3        3.14159   0.00000   0.00000   0.00000   0.00000   3.14159
    D4       -0.00000   0.00000   0.00000  -0.00000   0.00000   0.00000
    D5        0.00000   0.00000   0.00000  -0.00000  -0.00000   0.00000
    D6        3.14159  -0.00000   0.00000  -0.00000   0.00000   3.14159
    D7        0.00000  -0.00000   0.00000   0.00000  -0.00000   0.00000
    D8        3.14159   0.00000   0.00000   0.00000   0.00000   3.14159
    D9        3.14159   0.00000   0.00000   0.00000   0.00000   3.14159
   D10        0.00000  -0.00000   0.00000   0.00000   0.00000   0.00000
         Item               Value     Threshold  Converged?
 Maximum Force            0.000606     0.000450     NO 
 RMS     Force            0.000162     0.000300     YES
 Maximum Displacement     0.005004     0.001800     NO 
 RMS     Displacement     0.001226     0.001200     NO 
 Predicted change in Energy=-1.053090D-06
 GradGradGradGradGradGradGradGradGradGradGradGradGradGradGradGradGradGrad

                          Input orientation:                          
 ---------------------------------------------------------------------
 Center     Atomic      Atomic             Coordinates (Angstroms)
 Number     Number       Type             X           Y           Z
 ---------------------------------------------------------------------
      1          6           0       -2.210363    3.890273    0.000000
      2          6           0       -2.352199    2.534392   -0.000000
      3          6           0       -1.179745    1.697727   -0.000000
      4          8           0       -1.042143    4.524703    0.000000
      5          8           0       -0.013438    2.145428   -0.000000
      6          1           0       -1.330164    0.609310   -0.000000
      7          1           0       -3.058511    4.564630    0.000000
      8          1           0       -3.337308    2.096203   -0.000000
      9          1           0       -0.352541    3.808654    0.000000
 ---------------------------------------------------------------------
                    Distance matrix (angstroms):
                    1          2          3          4          5
     1  C    0.000000
     2  C    1.363279   0.000000
     3  C    2.422691   1.440367   0.000000
     4  O    1.329376   2.382768   2.830322   0.000000
     5  O    2.805524   2.370885   1.249283   2.592138   0.000000
     6  H    3.396979   2.179564   1.098761   3.925971   2.023221
     7  H    1.083564   2.149591   3.427666   2.016763   3.889088
     8  H    2.118654   1.078169   2.194050   3.341466   3.324234
     9  H    1.859614   2.371155   2.267219   0.994121   1.697442
                    6          7          8          9
     6  H    0.000000
     7  H    4.316450   0.000000
     8  H    2.497894   2.484122   0.000000
     9  H    3.345377   2.809586   3.441122   0.000000
 Stoichiometry    C3H4O2
 Framework group  CS[SG(C3H4O2)]
 Deg. of freedom    15
 Full point group                 CS      NOp   2
 Largest Abelian subgroup         CS      NOp   2
 Largest concise Abelian subgroup C1      NOp   1
                         Standard orientation:                         
 ---------------------------------------------------------------------
 Center     Atomic      Atomic             Coordinates (Angstroms)
 Number     Number       Type             X           Y           Z
 ---------------------------------------------------------------------
      1          6           0       -1.184401    0.428800    0.000000
      2          6           0        0.000000    1.103874    0.000000
      3          6           0        1.237497    0.366813    0.000000
      4          8           0       -1.295530   -0.895922    0.000000
      5          8           0        1.296566   -0.881073    0.000000
      6          1           0        2.173559    0.942196    0.000000
      7          1           0       -2.142884    0.934194    0.000000
      8          1           0        0.005084    2.182031    0.000000
      9          1           0       -0.362627   -1.239388    0.000000
 ---------------------------------------------------------------------
 Rotational constants (GHZ):           9.7730960           5.1325247           3.3652176
 Standard basis: 6-31G(d,p) (6D, 7F)
 There are    71 symmetry adapted cartesian basis functions of A'  symmetry.
 There are    24 symmetry adapted cartesian basis functions of A"  symmetry.
 There are    71 symmetry adapted basis functions of A'  symmetry.
 There are    24 symmetry adapted basis functions of A"  symmetry.
    95 basis functions,   168 primitive gaussians,    95 cartesian basis functions
    19 alpha electrons       19 beta electrons
       nuclear repulsion energy       164.6207884069 Hartrees.
 NAtoms=    9 NActive=    9 NUniq=    9 SFac= 1.00D+00 NAtFMM=   60 NAOKFM=F Big=F
 Integral buffers will be    131072 words long.
 Raffenetti 1 integral format.
 Two-electron integral symmetry is turned on.
 One-electron integrals computed using PRISM.
 NBasis=    95 RedAO= T EigKep=  2.12D-03  NBF=    71    24
 NBsUse=    95 1.00D-06 EigRej= -1.00D+00 NBFU=    71    24
 Initial guess from the checkpoint file:  "1.chk"
 B after Tr=     0.000000    0.000000   -0.000000
         Rot=    1.000000   -0.000000    0.000000    0.000081 Ang=   0.01 deg.
 Initial guess orbital symmetries:
       Occupied  (A') (A') (A') (A') (A') (A') (A') (A') (A') (A')
                 (A') (A') (A') (A') (A") (A') (A") (A') (A")
       Virtual   (A") (A') (A") (A') (A') (A') (A') (A') (A') (A')
                 (A') (A") (A') (A") (A') (A') (A") (A') (A') (A')
                 (A') (A') (A') (A') (A") (A') (A") (A') (A') (A')
                 (A') (A') (A") (A") (A") (A") (A') (A") (A') (A')
                 (A') (A') (A") (A') (A') (A") (A') (A') (A') (A")
                 (A') (A") (A') (A') (A") (A') (A") (A") (A") (A')
                 (A') (A") (A') (A') (A') (A') (A') (A') (A') (A')
                 (A') (A') (A') (A') (A') (A')
 Keep R1 ints in memory in symmetry-blocked form, NReq=16267903.
 Requested convergence on RMS density matrix=1.00D-08 within 128 cycles.
 Requested convergence on MAX density matrix=1.00D-06.
 Requested convergence on             energy=1.00D-06.
 No special actions if energy rises.
 SCF Done:  E(RHF) =  -265.638743343     A.U. after   10 cycles
            NFock= 10  Conv=0.30D-08     -V/T= 2.0030
 ExpMin= 1.61D-01 ExpMax= 5.48D+03 ExpMxC= 8.25D+02 IAcc=3 IRadAn=         5 AccDes= 0.00D+00
 HarFok:  IExCor=  205 AccDes= 0.00D+00 IRadAn=         5 IDoV=-2 UseB2=F ITyADJ=14
 ICtDFT= 12500011 ScaDFX=  1.000000  1.000000  1.000000  1.000000
 Range of M.O.s used for correlation:     6    95
 NBasis=    95 NAE=    19 NBE=    19 NFC=     5 NFV=     0
 NROrb=     90 NOA=    14 NOB=    14 NVA=    76 NVB=    76
 Fully direct method using O(ONN) memory.
 JobTyp=1 Pass  1:  I=   6 to  19 NPSUse= 28 ParTrn=T ParDer=T DoDerP=T.
 Spin components of T(2) and E(2):
     alpha-alpha T2 =       0.3154177783D-01 E2=     -0.9964439161D-01
     alpha-beta  T2 =       0.1749959152D+00 E2=     -0.5598612198D+00
     beta-beta   T2 =       0.3154177783D-01 E2=     -0.9964439161D-01
 ANorm=    0.1112690195D+01
 E2 =    -0.7591500030D+00 EUMP2 =    -0.26639789334619D+03
          IDoAtm=111111111
          Differentiating once with respect to electric field.
                with respect to dipole field.
          Differentiating once with respect to nuclear coordinates.
 Keep R1 ints in memory in symmetry-blocked form, NReq=16271027.
          There are     1 degrees of freedom in the 1st order CPHF.  IDoFFX=0 NUNeed=     1.
 LinEq1:  Iter=  0 NonCon=     1 RMS=7.81D-03 Max=1.82D-01 NDo=     1
 AX will form     1 AO Fock derivatives at one time.
 LinEq1:  Iter=  1 NonCon=     1 RMS=2.71D-03 Max=4.69D-02 NDo=     1
 LinEq1:  Iter=  2 NonCon=     1 RMS=9.55D-04 Max=1.57D-02 NDo=     1
 LinEq1:  Iter=  3 NonCon=     1 RMS=3.75D-04 Max=3.48D-03 NDo=     1
 LinEq1:  Iter=  4 NonCon=     1 RMS=1.16D-04 Max=1.52D-03 NDo=     1
 LinEq1:  Iter=  5 NonCon=     1 RMS=4.80D-05 Max=8.31D-04 NDo=     1
 LinEq1:  Iter=  6 NonCon=     1 RMS=1.83D-05 Max=3.67D-04 NDo=     1
 LinEq1:  Iter=  7 NonCon=     1 RMS=5.16D-06 Max=4.63D-05 NDo=     1
 LinEq1:  Iter=  8 NonCon=     1 RMS=2.09D-06 Max=3.61D-05 NDo=     1
 LinEq1:  Iter=  9 NonCon=     1 RMS=4.96D-07 Max=5.68D-06 NDo=     1
 LinEq1:  Iter= 10 NonCon=     1 RMS=1.22D-07 Max=1.06D-06 NDo=     1
 LinEq1:  Iter= 11 NonCon=     1 RMS=3.39D-08 Max=4.25D-07 NDo=     1
 LinEq1:  Iter= 12 NonCon=     1 RMS=8.72D-09 Max=8.88D-08 NDo=     1
 LinEq1:  Iter= 13 NonCon=     1 RMS=2.16D-09 Max=1.64D-08 NDo=     1
 LinEq1:  Iter= 14 NonCon=     1 RMS=3.12D-10 Max=2.41D-09 NDo=     1
 LinEq1:  Iter= 15 NonCon=     0 RMS=4.19D-11 Max=3.33D-10 NDo=     1
 Linear equations converged to 1.000D-10 1.000D-09 after    15 iterations.
 End of Minotr F.D. properties file   721 does not exist.
 End of Minotr F.D. properties file   722 does not exist.
 End of Minotr F.D. properties file   788 does not exist.
 Symmetrizing basis deriv contribution to polar:
 IMax=3 JMax=2 DiffMx= 0.00D+00
 Calling FoFJK, ICntrl=  10002127 FMM=F ISym2X=1 I1Cent= 0 IOpClX= 0 NMat=1 NMatS=1 NMatT=0.
 ***** Axes restored to original set *****
 -------------------------------------------------------------------
 Center     Atomic                   Forces (Hartrees/Bohr)
 Number     Number              X              Y              Z
 -------------------------------------------------------------------
      1        6           0.000022623   -0.000016833   -0.000000000
      2        6           0.000065157   -0.000010165   -0.000000000
      3        6          -0.000053835    0.000034176    0.000000000
      4        8          -0.000074659    0.000039551    0.000000000
      5        8          -0.000021628    0.000012945    0.000000000
      6        1          -0.000006815    0.000001359    0.000000000
      7        1           0.000000782    0.000002330    0.000000000
      8        1           0.000005249   -0.000011917   -0.000000000
      9        1           0.000063125   -0.000051446   -0.000000000
 -------------------------------------------------------------------
 Cartesian Forces:  Max     0.000074659 RMS     0.000029714

 GradGradGradGradGradGradGradGradGradGradGradGradGradGradGradGradGradGrad
 Berny optimization.
 Using GEDIIS/GDIIS optimizer.
 FormGI is forming the generalized inverse of G from B-inverse, IUseBI=4.
 Internal  Forces:  Max     0.000095134 RMS     0.000025993
 Search for a local minimum.
 Step number   4 out of a maximum of   38
 All quantities printed in internal units (Hartrees-Bohrs-Radians)
 Mixed Optimization -- En-DIIS/RFO-DIIS
 Swapping is turned off.
 Update second derivatives using D2CorX and points    1    2    3    4
 DE= -1.11D-06 DEPred=-1.05D-06 R= 1.05D+00
 TightC=F SS=  1.41D+00  RLast= 2.68D-03 DXNew= 8.4853D-01 8.0372D-03
 Trust test= 1.05D+00 RLast= 2.68D-03 DXMaxT set to 5.05D-01
 ITU=  1  1  1  0
     Eigenvalues ---    0.00999   0.01301   0.02203   0.03808   0.06534
     Eigenvalues ---    0.09037   0.10834   0.12904   0.14476   0.19485
     Eigenvalues ---    0.20319   0.22530   0.29024   0.32094   0.34612
     Eigenvalues ---    0.37853   0.37951   0.47377   0.59043   0.70805
     Eigenvalues ---    0.83118
 En-DIIS/RFO-DIIS/Sim-DIIS IScMMF=       -3 using points:     4    3
 RFO step:  Lambda=-4.93462562D-08.
 DidBck=F Rises=F RFO-DIIS coefs:    1.09066   -0.09066
 Iteration  1 RMS(Cart)=  0.00014486 RMS(Int)=  0.00000000
 Iteration  2 RMS(Cart)=  0.00000000 RMS(Int)=  0.00000000
 ClnCor:  largest displacement from symmetrization is 5.42D-12 for atom     3.
 Variable       Old X    -DE/DX   Delta X   Delta X   Delta X     New X
                                 (Linear)    (Quad)   (Total)
    R1        2.57622  -0.00003   0.00005  -0.00004   0.00001   2.57624
    R2        2.51216  -0.00002  -0.00012   0.00001  -0.00011   2.51205
    R3        2.04764   0.00000   0.00001   0.00000   0.00001   2.04765
    R4        2.72190  -0.00010  -0.00000  -0.00031  -0.00031   2.72159
    R5        2.03744   0.00000   0.00001  -0.00000   0.00000   2.03744
    R6        2.36080  -0.00002   0.00005  -0.00001   0.00005   2.36085
    R7        2.07636  -0.00000  -0.00001   0.00000  -0.00000   2.07635
    R8        1.87862   0.00008   0.00012   0.00013   0.00026   1.87887
    A1        2.17253   0.00000  -0.00008   0.00007  -0.00002   2.17252
    A2        2.13831   0.00000   0.00001  -0.00001   0.00001   2.13832
    A3        1.97234  -0.00000   0.00007  -0.00006   0.00001   1.97235
    A4        2.08636  -0.00002  -0.00002  -0.00002  -0.00005   2.08632
    A5        2.09356   0.00002   0.00005   0.00006   0.00011   2.09366
    A6        2.10326  -0.00001  -0.00003  -0.00003  -0.00006   2.10320
    A7        2.15528  -0.00003  -0.00001  -0.00005  -0.00006   2.15522
    A8        2.05326   0.00001   0.00000   0.00003   0.00004   2.05330
    A9        2.07464   0.00002   0.00000   0.00001   0.00002   2.07466
   A10        1.83987   0.00002  -0.00009   0.00009  -0.00000   1.83987
    D1        0.00000   0.00000   0.00000  -0.00000  -0.00000   0.00000
    D2        3.14159  -0.00000   0.00000   0.00000   0.00000   3.14159
    D3        3.14159  -0.00000   0.00000  -0.00000   0.00000   3.14159
    D4       -0.00000   0.00000   0.00000  -0.00000   0.00000   0.00000
    D5       -0.00000  -0.00000   0.00000  -0.00000   0.00000   0.00000
    D6        3.14159   0.00000   0.00000   0.00000   0.00000   3.14159
    D7       -0.00000  -0.00000   0.00000   0.00000   0.00000   0.00000
    D8        3.14159  -0.00000   0.00000  -0.00000   0.00000   3.14159
    D9        3.14159   0.00000   0.00000  -0.00000   0.00000   3.14159
   D10        0.00000  -0.00000   0.00000  -0.00000  -0.00000   0.00000
         Item               Value     Threshold  Converged?
 Maximum Force            0.000095     0.000450     YES
 RMS     Force            0.000026     0.000300     YES
 Maximum Displacement     0.000419     0.001800     YES
 RMS     Displacement     0.000145     0.001200     YES
 Predicted change in Energy=-2.808587D-08
 Optimization completed.
    -- Stationary point found.
                           ----------------------------
                           !   Optimized Parameters   !
                           ! (Angstroms and Degrees)  !
 --------------------------                            --------------------------
 ! Name  Definition              Value          Derivative Info.                !
 --------------------------------------------------------------------------------
 ! R1    R(1,2)                  1.3633         -DE/DX =    0.0                 !
 ! R2    R(1,4)                  1.3294         -DE/DX =    0.0                 !
 ! R3    R(1,7)                  1.0836         -DE/DX =    0.0                 !
 ! R4    R(2,3)                  1.4404         -DE/DX =   -0.0001              !
 ! R5    R(2,8)                  1.0782         -DE/DX =    0.0                 !
 ! R6    R(3,5)                  1.2493         -DE/DX =    0.0                 !
 ! R7    R(3,6)                  1.0988         -DE/DX =    0.0                 !
 ! R8    R(4,9)                  0.9941         -DE/DX =    0.0001              !
 ! A1    A(2,1,4)              124.4771         -DE/DX =    0.0                 !
 ! A2    A(2,1,7)              122.5161         -DE/DX =    0.0                 !
 ! A3    A(4,1,7)              113.0068         -DE/DX =    0.0                 !
 ! A4    A(1,2,3)              119.5399         -DE/DX =    0.0                 !
 ! A5    A(1,2,8)              119.952          -DE/DX =    0.0                 !
 ! A6    A(3,2,8)              120.5081         -DE/DX =    0.0                 !
 ! A7    A(2,3,5)              123.4884         -DE/DX =    0.0                 !
 ! A8    A(2,3,6)              117.6433         -DE/DX =    0.0                 !
 ! A9    A(5,3,6)              118.8683         -DE/DX =    0.0                 !
 ! A10   A(1,4,9)              105.4169         -DE/DX =    0.0                 !
 ! D1    D(4,1,2,3)              0.0            -DE/DX =    0.0                 !
 ! D2    D(4,1,2,8)            180.0            -DE/DX =    0.0                 !
 ! D3    D(7,1,2,3)            180.0            -DE/DX =    0.0                 !
 ! D4    D(7,1,2,8)              0.0            -DE/DX =    0.0                 !
 ! D5    D(2,1,4,9)              0.0            -DE/DX =    0.0                 !
 ! D6    D(7,1,4,9)            180.0            -DE/DX =    0.0                 !
 ! D7    D(1,2,3,5)              0.0            -DE/DX =    0.0                 !
 ! D8    D(1,2,3,6)            180.0            -DE/DX =    0.0                 !
 ! D9    D(8,2,3,5)            180.0            -DE/DX =    0.0                 !
 ! D10   D(8,2,3,6)              0.0            -DE/DX =    0.0                 !
 --------------------------------------------------------------------------------
 GradGradGradGradGradGradGradGradGradGradGradGradGradGradGradGradGradGrad

                          Input orientation:                          
 ---------------------------------------------------------------------
 Center     Atomic      Atomic             Coordinates (Angstroms)
 Number     Number       Type             X           Y           Z
 ---------------------------------------------------------------------
      1          6           0       -2.210363    3.890273    0.000000
      2          6           0       -2.352199    2.534392   -0.000000
      3          6           0       -1.179745    1.697727   -0.000000
      4          8           0       -1.042143    4.524703    0.000000
      5          8           0       -0.013438    2.145428   -0.000000
      6          1           0       -1.330164    0.609310   -0.000000
      7          1           0       -3.058511    4.564630    0.000000
      8          1           0       -3.337308    2.096203   -0.000000
      9          1           0       -0.352541    3.808654    0.000000
 ---------------------------------------------------------------------
                    Distance matrix (angstroms):
                    1          2          3          4          5
     1  C    0.000000
     2  C    1.363279   0.000000
     3  C    2.422691   1.440367   0.000000
     4  O    1.329376   2.382768   2.830322   0.000000
     5  O    2.805524   2.370885   1.249283   2.592138   0.000000
     6  H    3.396979   2.179564   1.098761   3.925971   2.023221
     7  H    1.083564   2.149591   3.427666   2.016763   3.889088
     8  H    2.118654   1.078169   2.194050   3.341466   3.324234
     9  H    1.859614   2.371155   2.267219   0.994121   1.697442
                    6          7          8          9
     6  H    0.000000
     7  H    4.316450   0.000000
     8  H    2.497894   2.484122   0.000000
     9  H    3.345377   2.809586   3.441122   0.000000
 Stoichiometry    C3H4O2
 Framework group  CS[SG(C3H4O2)]
 Deg. of freedom    15
 Full point group                 CS      NOp   2
 Largest Abelian subgroup         CS      NOp   2
 Largest concise Abelian subgroup C1      NOp   1
                         Standard orientation:                         
 ---------------------------------------------------------------------
 Center     Atomic      Atomic             Coordinates (Angstroms)
 Number     Number       Type             X           Y           Z
 ---------------------------------------------------------------------
      1          6           0       -1.184401    0.428800   -0.000000
      2          6           0        0.000000    1.103874    0.000000
      3          6           0        1.237497    0.366813    0.000000
      4          8           0       -1.295530   -0.895922   -0.000000
      5          8           0        1.296566   -0.881073    0.000000
      6          1           0        2.173559    0.942196    0.000000
      7          1           0       -2.142884    0.934194   -0.000000
      8          1           0        0.005084    2.182031    0.000000
      9          1           0       -0.362627   -1.239388   -0.000000
 ---------------------------------------------------------------------
 Rotational constants (GHZ):           9.7730960           5.1325247           3.3652176

 **********************************************************************

            Population analysis using the SCF density.

 **********************************************************************

 Orbital symmetries:
       Occupied  (A') (A') (A') (A') (A') (A') (A') (A') (A') (A')
                 (A') (A') (A') (A') (A") (A') (A") (A') (A")
       Virtual   (A") (A') (A") (A') (A') (A') (A') (A') (A') (A')
                 (A") (A') (A') (A") (A') (A') (A") (A') (A') (A')
                 (A') (A') (A') (A') (A") (A') (A") (A') (A') (A')
                 (A') (A') (A") (A") (A") (A") (A') (A") (A') (A')
                 (A') (A') (A") (A') (A') (A") (A') (A') (A') (A")
                 (A') (A") (A') (A') (A") (A') (A") (A") (A") (A')
                 (A') (A") (A') (A') (A') (A') (A') (A') (A') (A')
                 (A') (A') (A') (A') (A') (A')
 The electronic state is 1-A'.
 Alpha  occ. eigenvalues --  -20.60911 -20.56511 -11.34864 -11.34794 -11.23333
 Alpha  occ. eigenvalues --   -1.43018  -1.37517  -1.06532  -0.90062  -0.81966
 Alpha  occ. eigenvalues --   -0.71383  -0.66929  -0.63905  -0.61258  -0.59609
 Alpha  occ. eigenvalues --   -0.55653  -0.53006  -0.43148  -0.36155
 Alpha virt. eigenvalues --    0.08988   0.23969   0.25521   0.28507   0.30603
 Alpha virt. eigenvalues --    0.31174   0.39705   0.46718   0.55177   0.58056
 Alpha virt. eigenvalues --    0.72687   0.72700   0.76790   0.79063   0.80793
 Alpha virt. eigenvalues --    0.82882   0.88578   0.91127   0.97840   1.02467
[...]
   XY=              0.3993   XZ=              0.0000   YZ=              0.0000
 Traceless Quadrupole moment (field-independent basis, Debye-Ang):
   XX=             -0.0732   YY=              0.8389   ZZ=             -0.7657
   XY=              0.3993   XZ=              0.0000   YZ=              0.0000
 Octapole moment (field-independent basis, Debye-Ang**2):
  XXX=             -2.3970  YYY=             -4.0773  ZZZ=              0.0000  XYY=             -0.9425
  XXY=              9.0352  XXZ=             -0.0000  XZZ=              0.5061  YZZ=             -3.8663
  YYZ=              0.0000  XYZ=              0.0000
 Hexadecapole moment (field-independent basis, Debye-Ang**3):
 XXXX=           -255.0857 YYYY=           -146.0221 ZZZZ=            -26.8704 XXXY=             -2.7447
 XXXZ=              0.0000 YYYX=              0.3298 YYYZ=              0.0000 ZZZX=              0.0000
 ZZZY=              0.0000 XXYY=            -74.7413 XXZZ=            -49.1822 YYZZ=            -32.8862
 XXYZ=             -0.0000 YYXZ=              0.0000 ZZXY=             -0.2186
 N-N= 1.646151884767D+02 E-N=-9.540477522131D+02  KE= 2.656357756907D+02
  Exact polarizability:  52.462   2.121  41.830  -0.000  -0.000  15.906
 Approx polarizability:  40.576   2.093  37.976  -0.000  -0.000  17.038
 Calling FoFJK, ICntrl=  10100127 FMM=F ISym2X=0 I1Cent= 0 IOpClX= 0 NMat=1 NMatS=1 NMatT=0.
 -------------------------------------------------------------------
 Center     Atomic                   Forces (Hartrees/Bohr)
 Number     Number              X              Y              Z
 -------------------------------------------------------------------
      1        6          -0.002896279    0.001711930    0.000000000
      2        6          -0.000104862    0.005112182   -0.000000000
      3        6           0.000551796   -0.000647891    0.000000000
      4        8          -0.004720074    0.001777812   -0.000000000
      5        8           0.000076839    0.000512891   -0.000000000
      6        1          -0.000060892    0.000079855    0.000000000
      7        1           0.002540208   -0.001343993   -0.000000000
      8        1          -0.000055987   -0.004855457   -0.000000000
      9        1           0.004669249   -0.002347328   -0.000000000
 -------------------------------------------------------------------
 Cartesian Forces:  Max     0.005112182 RMS     0.002134869
 NDeriv=     21 NFrqRd=  0 NDerD0=      0 MskFDP=       0 MskDFD=       0 MskDF0=       0
 Re-enter D2Numr:  normal mode  21 step-down number 1
 Max difference between Dipole analytic and numerical normal mode 1st derivatives:
 I=     1 ID=    14 Difference=    1.3423474394D-05
 Max difference between Dipole analytic and numerical normal mode 2nd derivatives:
 I=     2 ID=     8 Difference=    1.5244305944D-03
 Recovering previously computed normal modes.
 Harmonic frequencies (cm**-1), IR intensities (KM/Mole), Raman scattering
 activities (A**4/AMU), depolarization ratios for plane and unpolarized
 incident light, reduced masses (AMU), force constants (mDyne/A),
 and normal coordinates:
                      1                      2                      3
                     A'                     A"                     A"
 Frequencies --    276.2302               276.9763               373.1802
 Red. masses --      7.0069                 2.7412                 2.5233
 Frc consts  --      0.3150                 0.1239                 0.2070
 IR Inten    --      4.9437                 4.9057                 5.1666
  Atom  AN      X      Y      Z        X      Y      Z        X      Y      Z
     1   6     0.07  -0.02  -0.00    -0.00   0.00  -0.08    -0.00  -0.00  -0.22
     2   6     0.00   0.14  -0.00    -0.00  -0.00  -0.14     0.00  -0.00   0.25
     3   6    -0.14  -0.02   0.00     0.00   0.00   0.23     0.00   0.00  -0.01
     4   8     0.43  -0.01   0.00    -0.00   0.00   0.14    -0.00  -0.00   0.11
     5   8    -0.42  -0.06  -0.00     0.00   0.00  -0.19     0.00   0.00  -0.07
     6   1     0.00  -0.27   0.00    -0.00   0.00   0.91     0.00   0.00  -0.34
     7   1    -0.03  -0.20  -0.00     0.00   0.00  -0.11     0.00   0.00  -0.78
     8   1     0.02   0.13  -0.00    -0.00  -0.00  -0.13    -0.00  -0.00  -0.04
     9   1     0.61   0.28  -0.00    -0.00  -0.00  -0.03    -0.00  -0.00   0.37
                      4                      5                      6
                     A'                     A"                     A"
 Frequencies --    515.8618               780.3675               894.8799
 Red. masses --      6.6861                 1.1340                 1.4627
 Frc consts  --      1.0483                 0.4069                 0.6902
 IR Inten    --     19.2934                38.1218                66.8898
  Atom  AN      X      Y      Z        X      Y      Z        X      Y      Z
     1   6    -0.27   0.18  -0.00     0.00  -0.00  -0.07     0.00  -0.00   0.15
     2   6    -0.19  -0.02   0.00    -0.00   0.00  -0.07    -0.00   0.00  -0.08
     3   6    -0.21  -0.19   0.00    -0.00  -0.00  -0.03    -0.00  -0.00   0.06
     4   8     0.22   0.18   0.00    -0.00   0.00   0.03    -0.00  -0.00  -0.08
     5   8     0.31  -0.19  -0.00     0.00  -0.00   0.01     0.00  -0.00  -0.04
     6   1    -0.37   0.06  -0.00    -0.00   0.00   0.00    -0.00  -0.00  -0.13
     7   1    -0.37   0.00  -0.00    -0.00  -0.00   0.06     0.00  -0.00  -0.46
     8   1     0.18  -0.03  -0.00     0.00   0.00   0.98     0.00   0.00   0.00
     9   1     0.32   0.39   0.00    -0.00  -0.00   0.18    -0.00  -0.00   0.85
                      7                      8                      9
                     A'                     A"                     A'
 Frequencies --    896.4876               998.5677              1024.9581
 Red. masses --      4.8932                 1.2410                 3.4417
 Frc consts  --      2.3170                 0.7291                 2.1303
 IR Inten    --      7.7475                39.3531                60.2067
  Atom  AN      X      Y      Z        X      Y      Z        X      Y      Z
     1   6     0.25  -0.02  -0.00     0.00  -0.00  -0.07    -0.19   0.06  -0.00
     2   6    -0.02   0.41   0.00     0.00  -0.00   0.06    -0.08   0.24  -0.00
     3   6    -0.26  -0.09  -0.00     0.00   0.00  -0.11     0.30  -0.02   0.00
     4   8    -0.07  -0.10   0.00    -0.00   0.00  -0.02    -0.01  -0.11  -0.00
     5   8     0.12  -0.10   0.00    -0.00   0.00   0.01     0.00  -0.09  -0.00
     6   1    -0.25  -0.09   0.00    -0.00   0.00   0.53     0.53  -0.39  -0.00
     7   1     0.15  -0.21   0.00     0.00   0.00   0.51    -0.36  -0.23   0.00
     8   1     0.02   0.41  -0.00    -0.00  -0.00  -0.18    -0.28   0.27  -0.00
     9   1    -0.28  -0.52  -0.00     0.00   0.00   0.64     0.06   0.10   0.00
                     10                     11                     12
                     A"                     A'                     A'
 Frequencies --   1049.6870              1136.2144              1309.9193
 Red. masses --      1.4164                 1.4753                 1.3066
 Frc consts  --      0.9195                 1.1221                 1.3210
 IR Inten    --     12.8795                16.5562               147.9524
  Atom  AN      X      Y      Z        X      Y      Z        X      Y      Z
     1   6    -0.00   0.00   0.09    -0.08   0.07  -0.00    -0.01   0.07   0.00
     2   6     0.00   0.00   0.02     0.08   0.02  -0.00     0.00   0.01  -0.00
     3   6     0.00  -0.00  -0.16    -0.03  -0.00   0.00    -0.03   0.00   0.00
     4   8    -0.00  -0.00   0.00    -0.01  -0.12  -0.00    -0.01  -0.12   0.00
     5   8     0.00  -0.00   0.04    -0.01   0.05  -0.00     0.01  -0.01   0.00
     6   1     0.00  -0.00   0.68    -0.07   0.08  -0.00    -0.02  -0.03  -0.00
     7   1    -0.00  -0.00  -0.66    -0.15  -0.05   0.00     0.37   0.79  -0.00
     8   1     0.00   0.00   0.12     0.96   0.02  -0.00    -0.24   0.01   0.00
     9   1     0.00   0.00  -0.24     0.05   0.03   0.00     0.21   0.33  -0.00
                     13                     14                     15
                     A'                     A'                     A'
 Frequencies --   1439.3449              1442.1038              1510.8982
 Red. masses --      1.4070                 1.6340                 2.0166
 Frc consts  --      1.7174                 2.0022                 2.7123
 IR Inten    --     10.3392                55.4257                46.1277
  Atom  AN      X      Y      Z        X      Y      Z        X      Y      Z
     1   6     0.00   0.14   0.00    -0.01  -0.12   0.00    -0.02   0.13   0.00
     2   6     0.00  -0.02  -0.00     0.08   0.06   0.00     0.22  -0.04   0.00
     3   6     0.07  -0.02  -0.00     0.02   0.08  -0.00    -0.11  -0.03  -0.00
     4   8     0.04  -0.05   0.00    -0.07   0.02  -0.00    -0.03  -0.06   0.00
     5   8    -0.04  -0.04  -0.00    -0.00  -0.11   0.00     0.02   0.05  -0.00
     6   1    -0.37   0.75   0.00    -0.27   0.56   0.00    -0.00  -0.26   0.00
     7   1    -0.09  -0.03  -0.00    -0.04  -0.17   0.00    -0.36  -0.50  -0.00
     8   1    -0.25  -0.01   0.00     0.01   0.07   0.00    -0.62  -0.04  -0.00
     9   1    -0.18  -0.41  -0.00     0.29   0.67   0.00     0.11   0.24  -0.00
                     16                     17                     18
                     A'                     A'                     A'
 Frequencies --   1683.2276              1736.7068              3088.2750
 Red. masses --      3.1203                 4.8814                 1.0884
 Frc consts  --      5.2087                 8.6746                 6.1161
 IR Inten    --    251.4086               182.4368               108.1389
  Atom  AN      X      Y      Z        X      Y      Z        X      Y      Z
     1   6    -0.18  -0.07   0.00     0.23   0.25   0.00    -0.00   0.00   0.00
     2   6     0.19   0.01  -0.00    -0.21  -0.15  -0.00     0.00   0.00  -0.00
     3   6    -0.09   0.27  -0.00    -0.03   0.33  -0.00    -0.08  -0.04   0.00
     4   8     0.05   0.03  -0.00    -0.04  -0.08  -0.00     0.00  -0.00   0.00
     5   8     0.02  -0.15  -0.00     0.01  -0.19  -0.00     0.00  -0.00   0.00
     6   1     0.17  -0.20   0.00     0.33  -0.31   0.00     0.86   0.50  -0.00
     7   1     0.00   0.36   0.00    -0.12  -0.52  -0.00     0.00  -0.00  -0.00
     8   1    -0.07   0.02   0.00     0.25  -0.19   0.00    -0.01  -0.04   0.00
     9   1    -0.23  -0.75   0.00     0.12   0.24   0.00    -0.03   0.02   0.00
                     19                     20                     21
                     A'                     A'                     A'
 Frequencies --   3261.3155              3321.1070              3323.8847
 Red. masses --      1.0881                 1.0826                 1.0853
 Frc consts  --      6.8187                 7.0356                 7.0648
 IR Inten    --     62.7281                64.0661                40.5911
  Atom  AN      X      Y      Z        X      Y      Z        X      Y      Z
     1   6    -0.07   0.03  -0.00    -0.01   0.01  -0.00     0.03  -0.02   0.00
     2   6     0.01  -0.01  -0.00    -0.01  -0.07  -0.00     0.00  -0.06   0.00
     3   6    -0.00   0.00   0.00    -0.00  -0.01   0.00    -0.01   0.01  -0.00
     4   8     0.02  -0.01   0.00    -0.04   0.01  -0.00     0.04  -0.01  -0.00
     5   8    -0.00  -0.00   0.00     0.00   0.00   0.00    -0.00  -0.00  -0.00
     6   1    -0.01  -0.01  -0.00     0.04   0.03  -0.00     0.01  -0.01   0.00
     7   1     0.80  -0.42   0.00     0.13  -0.08   0.00    -0.34   0.18  -0.00
     8   1    -0.00   0.16   0.00    -0.00   0.73   0.00     0.01   0.65  -0.00
     9   1    -0.35   0.17  -0.00     0.59  -0.29  -0.00    -0.58   0.30   0.00

 -------------------
 - Thermochemistry -
 -------------------
 Temperature   298.150 Kelvin.  Pressure   1.00000 Atm.
 Atom     1 has atomic number  6 and mass  12.00000
 Atom     2 has atomic number  6 and mass  12.00000
 Atom     3 has atomic number  6 and mass  12.00000
 Atom     4 has atomic number  8 and mass  15.99491
 Atom     5 has atomic number  8 and mass  15.99491
 Atom     6 has atomic number  1 and mass   1.00783
 Atom     7 has atomic number  1 and mass   1.00783
 Atom     8 has atomic number  1 and mass   1.00783
 Atom     9 has atomic number  1 and mass   1.00783
 Molecular mass:    72.02113 amu.
 Principal axes and moments of inertia in atomic units:
                           1         2         3
     Eigenvalues --   184.66422 351.62836 536.29258
           X            0.99999  -0.00361   0.00000
           Y            0.00361   0.99999   0.00000
           Z            0.00000  -0.00000   1.00000
 This molecule is an asymmetric top.
 Rotational symmetry number  1.
 Rotational temperatures (Kelvin)      0.46903     0.24632     0.16150
 Rotational constants (GHZ):           9.77310     5.13252     3.36522
 Zero-point vibrational energy     181474.7 (Joules/Mol)
                                   43.37348 (Kcal/Mol)
 Warning -- explicit consideration of   4 degrees of freedom as
           vibrations may cause significant error
 Vibrational temperatures:    397.43   398.51   536.92   742.21  1122.77
          (Kelvin)           1287.53  1289.85  1436.72  1474.69  1510.27
                             1634.76  1884.68  2070.90  2074.87  2173.85
                             2421.79  2498.73  4443.34  4692.31  4778.33
                             4782.33
 
 Zero-point correction=                           0.069120 (Hartree/Particle)
 Thermal correction to Energy=                    0.073751
 Thermal correction to Enthalpy=                  0.074695
 Thermal correction to Gibbs Free Energy=         0.041679
 Sum of electronic and zero-point Energies=           -266.328773
 Sum of electronic and thermal Energies=              -266.324143
 Sum of electronic and thermal Enthalpies=            -266.323198
 Sum of electronic and thermal Free Energies=         -266.356214
 
                     E (Thermal)             CV                S
                      KCal/Mol        Cal/Mol-Kelvin    Cal/Mol-Kelvin
 Total                   46.279             15.609             69.487
 Electronic               0.000              0.000              0.000
 Translational            0.889              2.981             38.740
 Rotational               0.889              2.981             25.058
 Vibrational             44.502              9.647              5.690
 Vibration     1          0.678              1.717              1.557
 Vibration     2          0.678              1.716              1.552
 Vibration     3          0.745              1.527              1.067
 Vibration     4          0.871              1.215              0.620
                       Q            Log10(Q)             Ln(Q)
 Total Bot       0.674297D-19        -19.171149        -44.143201
 Total V=0       0.418637D+13         12.621838         29.062856
 Vib (Bot)       0.420173D-31        -31.376572        -72.247227
 Vib (Bot)    1  0.697396D+00         -0.156521         -0.360402
 Vib (Bot)    2  0.695247D+00         -0.157861         -0.363488
 Vib (Bot)    3  0.486796D+00         -0.312653         -0.719911
 Vib (Bot)    4  0.314086D+00         -0.502951         -1.158087
 Vib (V=0)       0.260864D+01          0.416414          0.958829
 Vib (V=0)    1  0.135811D+01          0.132936          0.306098
 Vib (V=0)    2  0.135637D+01          0.132378          0.304811
 Vib (V=0)    3  0.119783D+01          0.078396          0.180514
 Vib (V=0)    4  0.109047D+01          0.037612          0.086605
 Electronic      0.100000D+01          0.000000          0.000000
 Translational   0.240239D+08          7.380644         16.994560
 Rotational      0.668005D+05          4.824780         11.109466
 ***** Axes restored to original set *****
 -------------------------------------------------------------------
 Center     Atomic                   Forces (Hartrees/Bohr)
 Number     Number              X              Y              Z
 -------------------------------------------------------------------
      1        6           0.000022614   -0.000016854   -0.000000000
      2        6           0.000065160   -0.000010165   -0.000000000
      3        6          -0.000053811    0.000034187    0.000000000
      4        8          -0.000074644    0.000039561    0.000000000
      5        8          -0.000021652    0.000012936    0.000000000
      6        1          -0.000006816    0.000001362    0.000000000
      7        1           0.000000776    0.000002336    0.000000000
      8        1           0.000005250   -0.000011915   -0.000000000
      9        1           0.000063124   -0.000051448   -0.000000000
 -------------------------------------------------------------------
 Cartesian Forces:  Max     0.000074644 RMS     0.000029713

 **********************************************************************

             Second-order Perturbative Anharmonic Analysis

 **********************************************************************

     ==================================================
                      Reference System
     ==================================================

 NOTE: The system is set in Eckart orientation for the anharmonic
       treatment.
 
 Atom           X                  Y                  Z
 ----------------------------------------------------------------
  C      -1.1872072532345    0.4718024203553   -0.0000000000000
  C      -0.0003750763620    1.1425928420024    0.0000000000000
  C       1.2344512441965    0.4010662119712   -0.0000000000000
  O      -1.3031207919792   -0.8525100419502   -0.0000000000000
  O       1.2890113739266   -0.8470249223494    0.0000000000000
  H       2.1725854080515    0.9730630841810    0.0000000000000
  H      -2.1438578233220    0.9806553201282   -0.0000000000000
  H       0.0086040666148    2.2207244521798    0.0000000000000
  H      -0.3714650827083   -1.1993441244258   -0.0000000000000
 ----------------------------------------------------------------

     ==================================================
               Analysis of the Rotor Symmetry
     ==================================================

 Framework Group : CS  
 Rotor Type      : Asymmetric Top
 Asymm. param.   : Kappa = -0.448396
 Inertia moments : X=   184.66422 , Y=   351.62836 , Z=   536.29258
 Representation  : IIIr Representation, Ix < Iy < Iz

 Axes Definition for the Symmetric-Top Representation
 ----------------------------------------------------
 Axis Z automatically chosen to be collinear with Z from Eckart orient.
 NOTE: In Vibro-rotational analysis, this will be referred to as the
       spectroscopic orientation.

     ==================================================
                   Data Source Definition
     ==================================================

 Main data sources
 -----------------
 Harmonic data taken from: current calculation
 Anharmonic data taken from: current calculation

     ==================================================
           Input Data Extraction and Preparation
     ==================================================

 Data for Harmonic Potential Energy Surface
 ------------------------------------------

 Definition of the model system: Active modes
 --------------------------------------------
 The 21 Active Modes are:
     1     2     3     4     5     6     7     8     9    10    11    12    13
    14    15    16    17    18    19    20    21

 Data for Anharmonic Potential Energy Surface
 --------------------------------------------
 ERROR: Missing anharmonic PES.
 Error termination via Lnk1e in /sw/contrib/gaussian/g16/A03/g16/l717.exe at Tue Oct 27 13:55:27 2020.
 Job cpu time:       0 days 17 hours 40 minutes 46.2 seconds.
 Elapsed time:       0 days  0 hours 39 minutes  8.2 seconds.
 File lengths (MBytes):  RWF=    688 Int=      0 D2E=      0 Chk=     44 Scr=      8
