 Entering Gaussian System, Link 0=g16
 Input=13.gjf
 Output=13.log
 Initial command:
 /sw/contrib/gaussian/g16/A03/g16/l1.exe "/gscratch/scrubbed/gds001/Gau-30276.inp" -scrdir="/gscratch/scrubbed/gds001/"
 Entering Link 1 = /sw/contrib/gaussian/g16/A03/g16/l1.exe PID=     30277.
  
 Copyright (c) 1988,1990,1992,1993,1995,1998,2003,2009,2016,
            Gaussian, Inc.  All Rights Reserved.
  
 This is part of the Gaussian(R) 16 program.  It is based on
 the Gaussian(R) 09 system (copyright 2009, Gaussian, Inc.),
 the Gaussian(R) 03 system (copyright 2003, Gaussian, Inc.),
 the Gaussian(R) 98 system (copyright 1998, Gaussian, Inc.),
 the Gaussian(R) 94 system (copyright 1995, Gaussian, Inc.),
 the Gaussian 92(TM) system (copyright 1992, Gaussian, Inc.),
 the Gaussian 90(TM) system (copyright 1990, Gaussian, Inc.),
 the Gaussian 88(TM) system (copyright 1988, Gaussian, Inc.),
 the Gaussian 86(TM) system (copyright 1986, Carnegie Mellon
 University), and the Gaussian 82(TM) system (copyright 1983,
 Carnegie Mellon University). Gaussian is a federally registered
 trademark of Gaussian, Inc.
  
 This software contains proprietary and confidential information,
 including trade secrets, belonging to Gaussian, Inc.
  
 This software is provided under written license and may be
 used, copied, transmitted, or stored only in accord with that
 written license.
  
 The following legend is applicable only to US Government
 contracts under FAR:
  
                    RESTRICTED RIGHTS LEGEND
  
 Use, reproduction and disclosure by the US Government is
 subject to restrictions as set forth in subparagraphs (a)
 and (c) of the Commercial Computer Software - Restricted
 Rights clause in FAR 52.227-19.
  
 Gaussian, Inc.
 340 Quinnipiac St., Bldg. 40, Wallingford CT 06492
  
  
 ---------------------------------------------------------------
 Warning -- This program may not be used in any manner that
 competes with the business of Gaussian, Inc. or will provide
 assistance to any competitor of Gaussian, Inc.  The licensee
 of this program is prohibited from giving any competitor of
 Gaussian, Inc. access to this program.  By using this program,
 the user acknowledges that Gaussian, Inc. is engaged in the
 business of creating and licensing software in the field of
 computational chemistry and represents and warrants to the
 licensee that it is not a competitor of Gaussian, Inc. and that
 it will not use this program in any manner prohibited above.
 ---------------------------------------------------------------
  

 Cite this work as:
 Gaussian 16, Revision A.03,
 M. J. Frisch, G. W. Trucks, H. B. Schlegel, G. E. Scuseria, 
 M. A. Robb, J. R. Cheeseman, G. Scalmani, V. Barone, 
 G. A. Petersson, H. Nakatsuji, X. Li, M. Caricato, A. V. Marenich, 
 J. Bloino, B. G. Janesko, R. Gomperts, B. Mennucci, H. P. Hratchian, 
 J. V. Ortiz, A. F. Izmaylov, J. L. Sonnenberg, D. Williams-Young, 
 F. Ding, F. Lipparini, F. Egidi, J. Goings, B. Peng, A. Petrone, 
 T. Henderson, D. Ranasinghe, V. G. Zakrzewski, J. Gao, N. Rega, 
 G. Zheng, W. Liang, M. Hada, M. Ehara, K. Toyota, R. Fukuda, 
 J. Hasegawa, M. Ishida, T. Nakajima, Y. Honda, O. Kitao, H. Nakai, 
 T. Vreven, K. Throssell, J. A. Montgomery, Jr., J. E. Peralta, 
 F. Ogliaro, M. J. Bearpark, J. J. Heyd, E. N. Brothers, K. N. Kudin, 
 V. N. Staroverov, T. A. Keith, R. Kobayashi, J. Normand, 
 K. Raghavachari, A. P. Rendell, J. C. Burant, S. S. Iyengar, 
 J. Tomasi, M. Cossi, J. M. Millam, M. Klene, C. Adamo, R. Cammi, 
 J. W. Ochterski, R. L. Martin, K. Morokuma, O. Farkas, 
 J. B. Foresman, and D. J. Fox, Gaussian, Inc., Wallingford CT, 2016.
 
 ******************************************
 Gaussian 16:  ES64L-G16RevA.03 25-Dec-2016
                27-Oct-2020 
 ******************************************
 %nprocshared=28
 Will use up to   28 processors via shared memory.
 %mem=41GB
 %chk=13.chk
 -------------------------------------------------------
 # MP2/6-31G** Opt=(Recalc=50) Freq=(vibrot, anharmonic)
 -------------------------------------------------------
 1/10=4,18=20,19=15,38=1,71=50,80=1/1,3;
 2/9=110,12=2,17=6,18=5,40=1/2;
 3/5=1,6=6,7=101,11=9,25=1,30=1,71=2,140=1/1,2,3;
 4//1;
 5/5=2,38=5/2;
 8/6=3,8=1,10=2,19=11,30=-1/1;
 9/15=3,16=-3/6;
 11/6=1,8=1,15=11,17=12,24=-1,27=1,28=-2,29=300,32=6,42=3/1,2,10;
 10/6=2,21=1/2;
 8/6=4,8=1,10=2,19=11,30=-1/11,4;
 10/5=1,20=4/2;
 11/12=2,14=11,16=1,17=2,28=-2,42=3/2,10,12;
 6/7=2,8=2,9=2,10=2/1;
 7/10=1,12=2,25=1,44=2/1,2,3,16;
 1/10=4,18=20,19=15,71=50,80=1/3(3);
 2/9=110/2;
 7/9=1,25=1,44=-1/16;
 99//99;
 2/9=110/2;
 3/5=1,6=6,7=101,11=9,25=1,30=1,71=2,140=1/1,2,3;
 4/5=5,16=3,69=1/1;
 5/5=2,38=5/2;
 8/6=3,8=1,10=2,19=11,30=-1/1;
 9/15=3,16=-3/6;
 11/6=1,8=1,15=11,17=12,24=-1,27=1,28=-2,29=300,32=6,42=3/1,2,10;
 10/6=2,21=1/2;
 8/6=4,8=1,10=2,19=11,30=-1/11,4;
 10/5=1,20=4/2;
 11/12=2,14=11,16=1,17=2,28=-2,42=3/2,10,12;
 7/10=1,12=2,25=1,44=2/1,2,3,16;
 1/18=20,19=15,71=50,80=1/3(-12);
 2/9=110/2;
 6/7=2,8=2,9=2,10=2/1;
 7/9=1,25=1,44=-1/16;
 99//99;
 -----
 H,F,F
 -----
 Symbolic Z-matrix:
 Charge =  0 Multiplicity = 1
 C                    -0.44342   3.54831  0. 
 C                    -0.31695   2.21767  0. 
 C                     0.98277   1.52723  -0.00001 
 O                     0.57531   4.46784  0. 
 O                     2.06371   2.10294  -0.00001 
 H                    -1.40737   4.04173   0. 
 H                     1.44195   4.00558  -0.00001 
 F                    -1.40271   1.41847  0. 
 F                     0.98076   0.18903  -0.00001 
 

 GradGradGradGradGradGradGradGradGradGradGradGradGradGradGradGradGradGrad
 Berny optimization.
 Initialization pass.
                           ----------------------------
                           !    Initial Parameters    !
                           ! (Angstroms and Degrees)  !
 --------------------------                            --------------------------
 ! Name  Definition              Value          Derivative Info.                !
 --------------------------------------------------------------------------------
 ! R1    R(1,2)                  1.3366         calculate D2E/DX2 analytically  !
 ! R2    R(1,4)                  1.3724         calculate D2E/DX2 analytically  !
 ! R3    R(1,6)                  1.0829         calculate D2E/DX2 analytically  !
 ! R4    R(2,3)                  1.4717         calculate D2E/DX2 analytically  !
 ! R5    R(2,8)                  1.3482         calculate D2E/DX2 analytically  !
 ! R6    R(3,5)                  1.2247         calculate D2E/DX2 analytically  !
 ! R7    R(3,9)                  1.3382         calculate D2E/DX2 analytically  !
 ! R8    R(4,7)                  0.9822         calculate D2E/DX2 analytically  !
 ! A1    A(2,1,4)              126.6415         calculate D2E/DX2 analytically  !
 ! A2    A(2,1,6)              122.5355         calculate D2E/DX2 analytically  !
 ! A3    A(4,1,6)              110.823          calculate D2E/DX2 analytically  !
 ! A4    A(1,2,3)              123.4072         calculate D2E/DX2 analytically  !
 ! A5    A(1,2,8)              120.9269         calculate D2E/DX2 analytically  !
 ! A6    A(3,2,8)              115.6659         calculate D2E/DX2 analytically  !
 ! A7    A(2,3,5)              123.9818         calculate D2E/DX2 analytically  !
 ! A8    A(2,3,9)              117.8923         calculate D2E/DX2 analytically  !
 ! A9    A(5,3,9)              118.1259         calculate D2E/DX2 analytically  !
 ! A10   A(1,4,7)              109.8542         calculate D2E/DX2 analytically  !
 ! D1    D(4,1,2,3)              0.0            calculate D2E/DX2 analytically  !
 ! D2    D(4,1,2,8)            180.0            calculate D2E/DX2 analytically  !
 ! D3    D(6,1,2,3)            180.0            calculate D2E/DX2 analytically  !
 ! D4    D(6,1,2,8)              0.0            calculate D2E/DX2 analytically  !
 ! D5    D(2,1,4,7)              0.0            calculate D2E/DX2 analytically  !
 ! D6    D(6,1,4,7)            180.0            calculate D2E/DX2 analytically  !
 ! D7    D(1,2,3,5)              0.0            calculate D2E/DX2 analytically  !
 ! D8    D(1,2,3,9)            180.0            calculate D2E/DX2 analytically  !
 ! D9    D(8,2,3,5)            180.0            calculate D2E/DX2 analytically  !
 ! D10   D(8,2,3,9)              0.0            calculate D2E/DX2 analytically  !
 --------------------------------------------------------------------------------
 Trust Radius=3.00D-01 FncErr=1.00D-07 GrdErr=1.00D-07 EigMax=2.50D+02 EigMin=1.00D-04
 Number of steps in this run=     38 maximum allowed number of steps=    100.
 GradGradGradGradGradGradGradGradGradGradGradGradGradGradGradGradGradGrad

                          Input orientation:                          
 ---------------------------------------------------------------------
 Center     Atomic      Atomic             Coordinates (Angstroms)
 Number     Number       Type             X           Y           Z
 ---------------------------------------------------------------------
      1          6           0       -0.443415    3.548307   -0.000001
      2          6           0       -0.316953    2.217668   -0.000004
      3          6           0        0.982771    1.527226   -0.000009
      4          8           0        0.575310    4.467844   -0.000002
      5          8           0        2.063710    2.102940   -0.000011
      6          1           0       -1.407373    4.041728    0.000003
      7          1           0        1.441951    4.005581   -0.000005
      8          9           0       -1.402713    1.418467   -0.000003
      9          9           0        0.980764    0.189025   -0.000012
 ---------------------------------------------------------------------
                    Distance matrix (angstroms):
                    1          2          3          4          5
     1  C    0.000000
     2  C    1.336634   0.000000
     3  C    2.473615   1.471732   0.000000
     4  O    1.372352   2.420624   2.968713   0.000000
     5  O    2.893918   2.383426   1.224694   2.794298   0.000000
     6  H    1.082903   2.125137   3.469223   2.027957   3.975841
     7  H    1.940027   2.508062   2.520533   0.982218   2.001656
     8  F    2.335909   1.348183   2.387962   3.634732   3.533354
     9  F    3.648706   2.408207   1.338202   4.297985   2.199054
                    6          7          8          9
     6  H    0.000000
     7  H    2.849553   0.000000
     8  F    2.623265   3.845162   0.000000
     9  F    4.532826   3.844319   2.681882   0.000000
 Stoichiometry    C3H2F2O2
 Framework group  C1[X(C3H2F2O2)]
 Deg. of freedom    21
 Full point group                 C1      NOp   1
 Largest Abelian subgroup         C1      NOp   1
 Largest concise Abelian subgroup C1      NOp   1
                         Standard orientation:                         
 ---------------------------------------------------------------------
 Center     Atomic      Atomic             Coordinates (Angstroms)
 Number     Number       Type             X           Y           Z
 ---------------------------------------------------------------------
      1          6           0        1.467478    0.534413    0.000005
      2          6           0        0.135774    0.649114    0.000002
      3          6           0       -0.776979   -0.505388   -0.000003
      4          8           0        2.188991   -0.632964    0.000004
      5          8           0       -0.404872   -1.672183   -0.000005
      6          1           0        2.126083    1.394017    0.000009
      7          1           0        1.578524   -1.402433    0.000001
      8          9           0       -0.455317    1.860811    0.000003
      9          9           0       -2.093038   -0.262950   -0.000006
 ---------------------------------------------------------------------
 Rotational constants (GHZ):           3.7804103           2.4478458           1.4857869
 Standard basis: 6-31G(d,p) (6D, 7F)
 There are   115 symmetry adapted cartesian basis functions of A   symmetry.
 There are   115 symmetry adapted basis functions of A   symmetry.
   115 basis functions,   210 primitive gaussians,   115 cartesian basis functions
    27 alpha electrons       27 beta electrons
       nuclear repulsion energy       299.2468027695 Hartrees.
 NAtoms=    9 NActive=    9 NUniq=    9 SFac= 1.00D+00 NAtFMM=   60 NAOKFM=F Big=F
 Integral buffers will be    131072 words long.
 Raffenetti 1 integral format.
 Two-electron integral symmetry is turned on.
 One-electron integrals computed using PRISM.
 NBasis=   115 RedAO= T EigKep=  1.51D-03  NBF=   115
 NBsUse=   115 1.00D-06 EigRej= -1.00D+00 NBFU=   115
 ExpMin= 1.61D-01 ExpMax= 7.00D+03 ExpMxC= 1.05D+03 IAcc=3 IRadAn=         5 AccDes= 0.00D+00
 Harris functional with IExCor=  205 and IRadAn=       5 diagonalized for initial guess.
 HarFok:  IExCor=  205 AccDes= 0.00D+00 IRadAn=         5 IDoV= 1 UseB2=F ITyADJ=14
 ICtDFT=  3500011 ScaDFX=  1.000000  1.000000  1.000000  1.000000
 FoFCou: FMM=F IPFlag=           0 FMFlag=      100000 FMFlg1=           0
         NFxFlg=           0 DoJE=T BraDBF=F KetDBF=T FulRan=T
         wScrn=  0.000000 ICntrl=       500 IOpCl=  0 I1Cent=   200000004 NGrid=           0
         NMat0=    1 NMatS0=      1 NMatT0=    0 NMatD0=    1 NMtDS0=    0 NMtDT0=    0
 Petite list used in FoFCou.
 Keep R1 ints in memory in canonical form, NReq=28126965.
 Requested convergence on RMS density matrix=1.00D-08 within 128 cycles.
 Requested convergence on MAX density matrix=1.00D-06.
 Requested convergence on             energy=1.00D-06.
 No special actions if energy rises.
 SCF Done:  E(RHF) =  -463.342330258     A.U. after   14 cycles
            NFock= 14  Conv=0.84D-08     -V/T= 2.0032
 ExpMin= 1.61D-01 ExpMax= 7.00D+03 ExpMxC= 1.05D+03 IAcc=3 IRadAn=         5 AccDes= 0.00D+00
 HarFok:  IExCor=  205 AccDes= 0.00D+00 IRadAn=         5 IDoV=-2 UseB2=F ITyADJ=14
 ICtDFT= 12500011 ScaDFX=  1.000000  1.000000  1.000000  1.000000
 Range of M.O.s used for correlation:     8   115
 NBasis=   115 NAE=    27 NBE=    27 NFC=     7 NFV=     0
 NROrb=    108 NOA=    20 NOB=    20 NVA=    88 NVB=    88

 **** Warning!!: The largest alpha MO coefficient is  0.10952742D+02

 Disk-based method using ON**2 memory for 20 occupieds at a time.
 Permanent disk used for amplitudes=     6989004 words.
 Estimated scratch disk usage=    57281538 words.
 Actual    scratch disk usage=    54135810 words.
 JobTyp=1 Pass  1:  I=   8 to  27 NPSUse= 28 ParTrn=T ParDer=T DoDerP=T.
 (rs|ai) integrals will be sorted in core.
 Spin components of T(2) and E(2):
     alpha-alpha T2 =       0.4217070055D-01 E2=     -0.1490862792D+00
     alpha-beta  T2 =       0.2225185784D+00 E2=     -0.7854153908D+00
     beta-beta   T2 =       0.4217070055D-01 E2=     -0.1490862792D+00
 ANorm=    0.1143179767D+01
 E2 =    -0.1083587949D+01 EUMP2 =    -0.46442591820686D+03
 G2DrvN: will do    10 centers at a time, making    1 passes.
 Calling FoFCou, ICntrl=  3107 FMM=F I1Cent=   0 AccDes= 0.00D+00.
 End of G2Drv F.D. properties file   721 does not exist.
 End of G2Drv F.D. properties file   722 does not exist.
 End of G2Drv F.D. properties file   788 does not exist.
          IDoAtm=111111111
          Differentiating once with respect to electric field.
                with respect to dipole field.
          Differentiating once with respect to nuclear coordinates.
 Keep R1 ints in memory in canonical form, NReq=28128191.
          There are    30 degrees of freedom in the 1st order CPHF.  IDoFFX=6 NUNeed=    30.
     27 vectors produced by pass  0 Test12= 7.92D-15 3.33D-09 XBig12= 1.46D+01 2.81D+00.
 AX will form    27 AO Fock derivatives at one time.
     27 vectors produced by pass  1 Test12= 7.92D-15 3.33D-09 XBig12= 7.31D-01 1.59D-01.
     27 vectors produced by pass  2 Test12= 7.92D-15 3.33D-09 XBig12= 3.56D-02 4.54D-02.
     27 vectors produced by pass  3 Test12= 7.92D-15 3.33D-09 XBig12= 8.89D-04 8.01D-03.
     27 vectors produced by pass  4 Test12= 7.92D-15 3.33D-09 XBig12= 1.21D-05 6.87D-04.
     27 vectors produced by pass  5 Test12= 7.92D-15 3.33D-09 XBig12= 6.40D-08 4.12D-05.
     27 vectors produced by pass  6 Test12= 7.92D-15 3.33D-09 XBig12= 2.74D-10 2.44D-06.
     11 vectors produced by pass  7 Test12= 7.92D-15 3.33D-09 XBig12= 1.37D-12 1.58D-07.
      2 vectors produced by pass  8 Test12= 7.92D-15 3.33D-09 XBig12= 6.93D-15 1.00D-08.
 InvSVY:  IOpt=1 It=  1 EMax= 1.55D-15
 Solved reduced A of dimension   202 with    30 vectors.
 End of Minotr F.D. properties file   721 does not exist.
 End of Minotr F.D. properties file   722 does not exist.
 End of Minotr F.D. properties file   788 does not exist.
 MDV=  5502926848.
 Form MO integral derivatives with frozen-active canonical formalism.
 Discarding MO integrals.
 Reordered first order wavefunction length =     11290752
 In DefCFB: NBatch=  1 ICI= 27 ICA= 88 LFMax= 44
            Large arrays: LIAPS=   125690400 LIARS=    28690200 words.
 Semi-Direct transformation.
 ModeAB=           2 MOrb=            27 LenV=    5502496036
 LASXX=     16980084 LTotXX=    16980084 LenRXX=    16980084
 LTotAB=    17471052 MaxLAS=    20710350 LenRXY=    20710350
 NonZer=    33960168 LenScr=    51380224 LnRSAI=           0
 LnScr1=           0 LExtra=           0 Total=     89070658
 MaxDsk=          -1 SrtSym=           F ITran=            4
 JobTyp=0 Pass  1:  I=   1 to  27.
 (rs|ai) integrals will be sorted in core.
 SymMOI:  orbitals are not symmetric.
 Spin components of T(2) and E(2):
     alpha-alpha T2 =       0.4217070055D-01 E2=     -0.1490862792D+00
     alpha-beta  T2 =       0.2225185784D+00 E2=     -0.7854153908D+00
     beta-beta   T2 =       0.4217070055D-01 E2=     -0.1490862792D+00
 ANorm=    0.1616700331D+01
 E2 =    -0.1083587949D+01 EUMP2 =    -0.46442591820686D+03
          IDoAtm=111111111
          Differentiating once with respect to electric field.
                with respect to dipole field.
          Differentiating once with respect to nuclear coordinates.
          There are     1 degrees of freedom in the 1st order CPHF.  IDoFFX=0 NUNeed=     1.
 LinEq1:  Iter=  0 NonCon=     1 RMS=6.94D-03 Max=1.15D-01 NDo=     1
 LinEq1:  Iter=  1 NonCon=     1 RMS=2.53D-03 Max=4.23D-02 NDo=     1
 LinEq1:  Iter=  2 NonCon=     1 RMS=7.13D-04 Max=1.17D-02 NDo=     1
 LinEq1:  Iter=  3 NonCon=     1 RMS=3.03D-04 Max=5.03D-03 NDo=     1
 LinEq1:  Iter=  4 NonCon=     1 RMS=1.02D-04 Max=1.94D-03 NDo=     1
 LinEq1:  Iter=  5 NonCon=     1 RMS=3.66D-05 Max=6.48D-04 NDo=     1
 LinEq1:  Iter=  6 NonCon=     1 RMS=1.42D-05 Max=4.30D-04 NDo=     1
 LinEq1:  Iter=  7 NonCon=     1 RMS=4.72D-06 Max=5.37D-05 NDo=     1
 LinEq1:  Iter=  8 NonCon=     1 RMS=1.33D-06 Max=1.52D-05 NDo=     1
 LinEq1:  Iter=  9 NonCon=     1 RMS=3.52D-07 Max=5.00D-06 NDo=     1
 LinEq1:  Iter= 10 NonCon=     1 RMS=1.42D-07 Max=2.61D-06 NDo=     1
 LinEq1:  Iter= 11 NonCon=     1 RMS=3.51D-08 Max=3.88D-07 NDo=     1
 LinEq1:  Iter= 12 NonCon=     1 RMS=9.07D-09 Max=1.31D-07 NDo=     1
 LinEq1:  Iter= 13 NonCon=     1 RMS=2.51D-09 Max=2.57D-08 NDo=     1
 LinEq1:  Iter= 14 NonCon=     1 RMS=7.44D-10 Max=6.51D-09 NDo=     1
 LinEq1:  Iter= 15 NonCon=     1 RMS=2.40D-10 Max=2.49D-09 NDo=     1
 LinEq1:  Iter= 16 NonCon=     0 RMS=7.44D-11 Max=7.63D-10 NDo=     1
 Linear equations converged to 1.000D-10 1.000D-09 after    16 iterations.
 End of Minotr F.D. properties file   721 does not exist.
 End of Minotr F.D. properties file   722 does not exist.
 End of Minotr F.D. properties file   788 does not exist.
 Symmetrizing basis deriv contribution to polar:
 IMax=3 JMax=2 DiffMx= 0.00D+00
 G2DrvN: will do    10 centers at a time, making    1 passes.
 Calling FoFCou, ICntrl=  3107 FMM=F I1Cent=   0 AccDes= 0.00D+00.
 End of G2Drv F.D. properties file   721 does not exist.
 End of G2Drv F.D. properties file   722 does not exist.
 End of G2Drv F.D. properties file   788 does not exist.
 R2 and R3 integrals will be kept in memory, NReq=    45315570.
 DD1Dir will call FoFMem   1 times, MxPair=       756
 NAB=   378 NAA=     0 NBB=     0.
 Discarding MO integrals.

 **********************************************************************

            Population analysis using the SCF density.

 **********************************************************************

 Orbital symmetries:
       Occupied  (A) (A) (A) (A) (A) (A) (A) (A) (A) (A) (A) (A)
                 (A) (A) (A) (A) (A) (A) (A) (A) (A) (A) (A) (A)
                 (A) (A) (A)
       Virtual   (A) (A) (A) (A) (A) (A) (A) (A) (A) (A) (A) (A)
                 (A) (A) (A) (A) (A) (A) (A) (A) (A) (A) (A) (A)
                 (A) (A) (A) (A) (A) (A) (A) (A) (A) (A) (A) (A)
                 (A) (A) (A) (A) (A) (A) (A) (A) (A) (A) (A) (A)
                 (A) (A) (A) (A) (A) (A) (A) (A) (A) (A) (A) (A)
                 (A) (A) (A) (A) (A) (A) (A) (A) (A) (A) (A) (A)
                 (A) (A) (A) (A) (A) (A) (A) (A) (A) (A) (A) (A)
                 (A) (A) (A) (A)
 The electronic state is 1-A.
 Alpha  occ. eigenvalues --  -26.35958 -26.33798 -20.63607 -20.60575 -11.46431
 Alpha  occ. eigenvalues --  -11.36922 -11.35918  -1.67869  -1.64542  -1.43927
 Alpha  occ. eigenvalues --   -1.41929  -1.09874  -0.95233  -0.85764  -0.79582
 Alpha  occ. eigenvalues --   -0.77942  -0.74315  -0.72895  -0.71036  -0.68552
 Alpha  occ. eigenvalues --   -0.66335  -0.62702  -0.60729  -0.60046  -0.55293
 Alpha  occ. eigenvalues --   -0.50477  -0.39185
 Alpha virt. eigenvalues --    0.07247   0.22318   0.25135   0.25852   0.30804
 Alpha virt. eigenvalues --    0.38303   0.42331   0.50518   0.53574   0.57705
 Alpha virt. eigenvalues --    0.68155   0.71823   0.76400   0.76725   0.77617
 Alpha virt. eigenvalues --    0.82916   0.87317   0.88344   0.89519   0.98374
 Alpha virt. eigenvalues --    1.03535   1.10976   1.12164   1.19105   1.19425
 Alpha virt. eigenvalues --    1.25558   1.26227   1.27003   1.39491   1.41600
 Alpha virt. eigenvalues --    1.42875   1.48680   1.48836   1.50210   1.59473
 Alpha virt. eigenvalues --    1.62005   1.64016   1.66134   1.70472   1.71824
 Alpha virt. eigenvalues --    1.79664   1.83246   1.84838   1.91218   1.99096
 Alpha virt. eigenvalues --    1.99816   2.02685   2.05774   2.09780   2.10230
 Alpha virt. eigenvalues --    2.10419   2.16857   2.17292   2.18476   2.23699
 Alpha virt. eigenvalues --    2.25377   2.32117   2.34451   2.37890   2.48711
 Alpha virt. eigenvalues --    2.53751   2.60420   2.61296   2.65322   2.69612
 Alpha virt. eigenvalues --    2.77631   2.79012   2.89262   2.90725   2.91747
 Alpha virt. eigenvalues --    2.95048   3.04768   3.14042   3.17524   3.32170
 Alpha virt. eigenvalues --    3.34485   3.39413   3.50081   3.59692   3.79388
 Alpha virt. eigenvalues --    3.93631   4.31141   4.39651   4.50595   4.71873
 Alpha virt. eigenvalues --    4.85413   5.03248   6.08259
          Condensed to atoms (all electrons):
               1          2          3          4          5          6
     1  C    4.615176   0.539809  -0.061127   0.285663   0.004486   0.411381
     2  C    0.539809   4.869905   0.382407  -0.041448  -0.075437  -0.049408
     3  C   -0.061127   0.382407   4.040700  -0.001831   0.535254   0.001579
     4  O    0.285663  -0.041448  -0.001831   8.124480  -0.012647  -0.031482
     5  O    0.004486  -0.075437   0.535254  -0.012647   8.153020  -0.000007
     6  H    0.411381  -0.049408   0.001579  -0.031482  -0.000007   0.453322
     7  H   -0.025138  -0.006501   0.000275   0.305202   0.025452   0.003275
     8  F   -0.031167   0.231220  -0.026854   0.000576   0.000824   0.000376
     9  F    0.001847  -0.047367   0.288366  -0.000007  -0.057071  -0.000010
               7          8          9
     1  C   -0.025138  -0.031167   0.001847
     2  C   -0.006501   0.231220  -0.047367
     3  C    0.000275  -0.026854   0.288366
     4  O    0.305202   0.000576  -0.000007
     5  O    0.025452   0.000824  -0.057071
     6  H    0.003275   0.000376  -0.000010
     7  H    0.287000   0.000020   0.000128
     8  F    0.000020   9.202561   0.000580
     9  F    0.000128   0.000580   9.151399
 Mulliken charges:
               1
     1  C    0.259070
     2  C    0.196820
     3  C    0.841233
     4  O   -0.628507
     5  O   -0.573876
     6  H    0.210974
     7  H    0.410287
     8  F   -0.378136
     9  F   -0.337865
 Sum of Mulliken charges =  -0.00000
 Mulliken charges with hydrogens summed into heavy atoms:
               1
     1  C    0.470043
     2  C    0.196820
     3  C    0.841233
     4  O   -0.218220
     5  O   -0.573876
     8  F   -0.378136
     9  F   -0.337865
 APT charges:
               1
     1  C    0.479708
     2  C    0.060871
     3  C    1.241741
     4  O   -0.626650
     5  O   -0.595292
     6  H    0.089630
     7  H    0.331316
     8  F   -0.425853
     9  F   -0.555471
 Sum of APT charges =  -0.00000
 APT charges with hydrogens summed into heavy atoms:
               1
     1  C    0.569338
     2  C    0.060871
     3  C    1.241741
     4  O   -0.295334
     5  O   -0.595292
     8  F   -0.425853
     9  F   -0.555471
 Electronic spatial extent (au):  <R**2>=            700.7183
 Charge=             -0.0000 electrons
 Dipole moment (field-independent basis, Debye):
    X=              1.5176    Y=              1.3254    Z=              0.0000  Tot=              2.0149
 Quadrupole moment (field-independent basis, Debye-Ang):
   XX=            -40.4109   YY=            -40.9173   ZZ=            -36.6994
   XY=              1.9300   XZ=             -0.0000   YZ=             -0.0000
 Traceless Quadrupole moment (field-independent basis, Debye-Ang):
   XX=             -1.0684   YY=             -1.5747   ZZ=              2.6432
   XY=              1.9300   XZ=             -0.0000   YZ=             -0.0000
 Octapole moment (field-independent basis, Debye-Ang**2):
  XXX=            -15.3265  YYY=              5.1301  ZZZ=             -0.0000  XYY=              7.3892
  XXY=              9.3377  XXZ=              0.0000  XZZ=             -5.8750  YZZ=              0.7038
  YYZ=              0.0000  XYZ=              0.0001
 Hexadecapole moment (field-independent basis, Debye-Ang**3):
 XXXX=           -467.6565 YYYY=           -291.6126 ZZZZ=            -28.8379 XXXY=             14.6892
 XXXZ=             -0.0006 YYYX=            -12.1219 YYYZ=             -0.0004 ZZZX=             -0.0005
 ZZZY=             -0.0003 XXYY=           -105.2461 XXZZ=            -76.7075 YYZZ=            -51.0113
 XXYZ=             -0.0000 YYXZ=             -0.0002 ZZXY=             -1.6382
 N-N= 2.992468027695D+02 E-N=-1.695803818051D+03  KE= 4.618542945245D+02
  Exact polarizability:  52.743   0.140  40.839   0.000   0.000  17.754
 Approx polarizability:  42.590  -1.897  35.788   0.000   0.000  18.865
 Calling FoFJK, ICntrl=  10100127 FMM=F ISym2X=0 I1Cent= 0 IOpClX= 0 NMat=1 NMatS=1 NMatT=0.
 ***** Axes restored to original set *****
 -------------------------------------------------------------------
 Center     Atomic                   Forces (Hartrees/Bohr)
 Number     Number              X              Y              Z
 -------------------------------------------------------------------
      1        6           0.017998928    0.035292134    0.000000024
      2        6           0.014917228   -0.028160708   -0.000000101
      3        6           0.022417603    0.019050827   -0.000000017
      4        8          -0.009648766   -0.016625006   -0.000000008
      5        8          -0.014390265    0.002052610    0.000000042
      6        1          -0.000191287   -0.005116672   -0.000000010
      7        1          -0.008414339   -0.002521371    0.000000018
      8        9          -0.007469717   -0.001477868    0.000000018
      9        9          -0.015219384   -0.002493946    0.000000035
 -------------------------------------------------------------------
 Cartesian Forces:  Max     0.035292134 RMS     0.012809886
 FormGI is forming the generalized inverse of G from B-inverse, IUseBI=4.

 GradGradGradGradGradGradGradGradGradGradGradGradGradGradGradGradGradGrad
 Berny optimization.
 Internal  Forces:  Max     0.026237546 RMS     0.009345639
 Search for a local minimum.
 Step number   1 out of a maximum of   38
 All quantities printed in internal units (Hartrees-Bohrs-Radians)
 Mixed Optimization -- RFO/linear search
 Second derivative matrix not updated -- analytic derivatives used.
 ITU=  0
     Eigenvalues ---    0.00952   0.01445   0.02347   0.03371   0.05501
     Eigenvalues ---    0.08579   0.11746   0.16811   0.18218   0.19171
     Eigenvalues ---    0.21088   0.23162   0.30139   0.34662   0.38196
     Eigenvalues ---    0.43123   0.44568   0.48253   0.49046   0.67413
     Eigenvalues ---    0.82838
 RFO step:  Lambda=-7.61372693D-03 EMin= 9.52429012D-03
 Linear search not attempted -- first point.
 Iteration  1 RMS(Cart)=  0.05155923 RMS(Int)=  0.00097455
 Iteration  2 RMS(Cart)=  0.00114480 RMS(Int)=  0.00000017
 Iteration  3 RMS(Cart)=  0.00000035 RMS(Int)=  0.00000001
 Variable       Old X    -DE/DX   Delta X   Delta X   Delta X     New X
                                 (Linear)    (Quad)   (Total)
    R1        2.52587   0.01100   0.00000   0.03053   0.03053   2.55640
    R2        2.59337  -0.02624   0.00000  -0.06986  -0.06986   2.52351
    R3        2.04639  -0.00216   0.00000  -0.00359  -0.00359   2.04280
    R4        2.78117  -0.01508   0.00000  -0.04662  -0.04662   2.73455
    R5        2.54770   0.00689   0.00000   0.01107   0.01107   2.55877
    R6        2.31434  -0.01174   0.00000  -0.01642  -0.01642   2.29792
    R7        2.52884   0.00252   0.00000   0.01029   0.01029   2.53912
    R8        1.85612  -0.00624   0.00000  -0.00658  -0.00658   1.84954
    A1        2.21031  -0.00813   0.00000  -0.02511  -0.02511   2.18520
    A2        2.13865  -0.00068   0.00000  -0.03325  -0.03325   2.10540
    A3        1.93423   0.00882   0.00000   0.05837   0.05837   1.99259
    A4        2.15386  -0.00905   0.00000  -0.02963  -0.02963   2.12423
    A5        2.11057   0.00040   0.00000  -0.01139  -0.01139   2.09918
    A6        2.01875   0.00865   0.00000   0.04102   0.04102   2.05977
    A7        2.16389  -0.00041   0.00000   0.01878   0.01878   2.18267
    A8        2.05761  -0.01904   0.00000  -0.07705  -0.07705   1.98055
    A9        2.06169   0.01944   0.00000   0.05828   0.05828   2.11996
   A10        1.91732  -0.01148   0.00000  -0.03888  -0.03888   1.87844
    D1       -0.00000   0.00000   0.00000   0.00000   0.00000   0.00000
    D2        3.14159   0.00000   0.00000   0.00000   0.00000   3.14159
    D3        3.14159   0.00000   0.00000   0.00000   0.00000   3.14159
    D4        0.00000   0.00000   0.00000   0.00000  -0.00000   0.00000
    D5       -0.00000   0.00000   0.00000   0.00000   0.00000   0.00000
    D6        3.14159   0.00000   0.00000   0.00000   0.00000  -3.14159
    D7        0.00000  -0.00000   0.00000  -0.00000  -0.00000  -0.00000
    D8        3.14159   0.00000   0.00000   0.00000   0.00000   3.14159
    D9        3.14159  -0.00000   0.00000  -0.00000  -0.00000   3.14159
   D10       -0.00000   0.00000   0.00000   0.00000   0.00000   0.00000
         Item               Value     Threshold  Converged?
 Maximum Force            0.026238     0.000450     NO 
 RMS     Force            0.009346     0.000300     NO 
 Maximum Displacement     0.169545     0.001800     NO 
 RMS     Displacement     0.051413     0.001200     NO 
 Predicted change in Energy=-3.911820D-03
 GradGradGradGradGradGradGradGradGradGradGradGradGradGradGradGradGradGrad

                          Input orientation:                          
 ---------------------------------------------------------------------
 Center     Atomic      Atomic             Coordinates (Angstroms)
 Number     Number       Type             X           Y           Z
 ---------------------------------------------------------------------
      1          6           0       -0.427868    3.559092   -0.000001
      2          6           0       -0.298361    2.212517   -0.000004
      3          6           0        0.999848    1.573266   -0.000009
      4          8           0        0.584593    4.429826   -0.000002
      5          8           0        2.066196    2.157710   -0.000011
      6          1           0       -1.406499    4.018281    0.000003
      7          1           0        1.417515    3.915861   -0.000005
      8          9           0       -1.397019    1.421076   -0.000003
      9          9           0        0.935648    0.231155   -0.000012
 ---------------------------------------------------------------------
                    Distance matrix (angstroms):
                    1          2          3          4          5
     1  C    0.000000
     2  C    1.352788   0.000000
     3  C    2.445787   1.447062   0.000000
     4  O    1.335386   2.386643   2.886585   0.000000
     5  O    2.860809   2.365192   1.216007   2.712501   0.000000
     6  H    1.081006   2.118668   3.430540   2.033178   3.939713
     7  H    1.879554   2.417770   2.379537   0.978734   1.874002
     8  F    2.347417   1.354042   2.401694   3.602689   3.540691
     9  F    3.596434   2.334218   1.343646   4.213321   2.233775
                    6          7          8          9
     6  H    0.000000
     7  H    2.825870   0.000000
     8  F    2.597223   3.761058   0.000000
     9  F    4.452861   3.716081   2.618635   0.000000
 Stoichiometry    C3H2F2O2
 Framework group  C1[X(C3H2F2O2)]
 Deg. of freedom    21
 Full point group                 C1      NOp   1
 Largest Abelian subgroup         C1      NOp   1
 Largest concise Abelian subgroup C1      NOp   1
                         Standard orientation:                         
 ---------------------------------------------------------------------
 Center     Atomic      Atomic             Coordinates (Angstroms)
 Number     Number       Type             X           Y           Z
 ---------------------------------------------------------------------
      1          6           0        1.440803    0.576191    0.000005
      2          6           0        0.089453    0.638549    0.000002
      3          6           0       -0.727081   -0.556131   -0.000003
      4          8           0        2.159495   -0.549303    0.000004
      5          8           0       -0.299425   -1.694456   -0.000005
      6          1           0        2.033863    1.479990    0.000009
      7          1           0        1.532832   -1.301109    0.000001
      8          9           0       -0.538546    1.838151    0.000003
      9          9           0       -2.046600   -0.302647   -0.000006
 ---------------------------------------------------------------------
 Rotational constants (GHZ):           3.7958064           2.5437239           1.5230598
 Standard basis: 6-31G(d,p) (6D, 7F)
 There are   115 symmetry adapted cartesian basis functions of A   symmetry.
 There are   115 symmetry adapted basis functions of A   symmetry.
   115 basis functions,   210 primitive gaussians,   115 cartesian basis functions
    27 alpha electrons       27 beta electrons
       nuclear repulsion energy       302.0040856056 Hartrees.
 NAtoms=    9 NActive=    9 NUniq=    9 SFac= 1.00D+00 NAtFMM=   60 NAOKFM=F Big=F
 Integral buffers will be    131072 words long.
 Raffenetti 1 integral format.
 Two-electron integral symmetry is turned on.
 One-electron integrals computed using PRISM.
 NBasis=   115 RedAO= T EigKep=  1.57D-03  NBF=   115
 NBsUse=   115 1.00D-06 EigRej= -1.00D+00 NBFU=   115
 Initial guess from the checkpoint file:  "13.chk"
 B after Tr=    -0.000000    0.000000    0.000000
         Rot=    0.999812   -0.000000    0.000000   -0.019373 Ang=  -2.22 deg.
 ExpMin= 1.61D-01 ExpMax= 7.00D+03 ExpMxC= 1.05D+03 IAcc=2 IRadAn=         4 AccDes= 0.00D+00
 Harris functional with IExCor=  205 and IRadAn=       4 diagonalized for initial guess.
 HarFok:  IExCor=  205 AccDes= 0.00D+00 IRadAn=         4 IDoV= 1 UseB2=F ITyADJ=14
 ICtDFT=  3500011 ScaDFX=  1.000000  1.000000  1.000000  1.000000
 FoFCou: FMM=F IPFlag=           0 FMFlag=      100000 FMFlg1=           0
         NFxFlg=           0 DoJE=T BraDBF=F KetDBF=T FulRan=T
         wScrn=  0.000000 ICntrl=       500 IOpCl=  0 I1Cent=   200000004 NGrid=           0
         NMat0=    1 NMatS0=      1 NMatT0=    0 NMatD0=    1 NMtDS0=    0 NMtDT0=    0
 Petite list used in FoFCou.
 Keep R1 ints in memory in canonical form, NReq=28127623.
 Requested convergence on RMS density matrix=1.00D-08 within 128 cycles.
 Requested convergence on MAX density matrix=1.00D-06.
 Requested convergence on             energy=1.00D-06.
 No special actions if energy rises.
 SCF Done:  E(RHF) =  -463.346856076     A.U. after   12 cycles
            NFock= 12  Conv=0.99D-08     -V/T= 2.0029
 ExpMin= 1.61D-01 ExpMax= 7.00D+03 ExpMxC= 1.05D+03 IAcc=3 IRadAn=         5 AccDes= 0.00D+00
 HarFok:  IExCor=  205 AccDes= 0.00D+00 IRadAn=         5 IDoV=-2 UseB2=F ITyADJ=14
 ICtDFT= 12500011 ScaDFX=  1.000000  1.000000  1.000000  1.000000
 Range of M.O.s used for correlation:     8   115
 NBasis=   115 NAE=    27 NBE=    27 NFC=     7 NFV=     0
 NROrb=    108 NOA=    20 NOB=    20 NVA=    88 NVB=    88

 **** Warning!!: The largest alpha MO coefficient is  0.11036203D+02

 Fully direct method using O(ONN) memory.
 JobTyp=1 Pass  1:  I=   8 to  27 NPSUse= 28 ParTrn=T ParDer=T DoDerP=T.
 Spin components of T(2) and E(2):
     alpha-alpha T2 =       0.4212615933D-01 E2=     -0.1493674966D+00
     alpha-beta  T2 =       0.2209887241D+00 E2=     -0.7840797780D+00
     beta-beta   T2 =       0.4212615933D-01 E2=     -0.1493674966D+00
 ANorm=    0.1142471463D+01
 E2 =    -0.1082814771D+01 EUMP2 =    -0.46442967084725D+03
          IDoAtm=111111111
          Differentiating once with respect to electric field.
                with respect to dipole field.
          Differentiating once with respect to nuclear coordinates.
 Keep R1 ints in memory in canonical form, NReq=28132396.
          There are     1 degrees of freedom in the 1st order CPHF.  IDoFFX=0 NUNeed=     1.
 LinEq1:  Iter=  0 NonCon=     1 RMS=6.97D-03 Max=1.16D-01 NDo=     1
 AX will form     1 AO Fock derivatives at one time.
 LinEq1:  Iter=  1 NonCon=     1 RMS=2.52D-03 Max=4.41D-02 NDo=     1
 LinEq1:  Iter=  2 NonCon=     1 RMS=7.06D-04 Max=1.12D-02 NDo=     1
 LinEq1:  Iter=  3 NonCon=     1 RMS=3.01D-04 Max=5.26D-03 NDo=     1
 LinEq1:  Iter=  4 NonCon=     1 RMS=9.79D-05 Max=1.74D-03 NDo=     1
 LinEq1:  Iter=  5 NonCon=     1 RMS=3.67D-05 Max=7.34D-04 NDo=     1
 LinEq1:  Iter=  6 NonCon=     1 RMS=1.44D-05 Max=4.19D-04 NDo=     1
 LinEq1:  Iter=  7 NonCon=     1 RMS=4.71D-06 Max=4.85D-05 NDo=     1
 LinEq1:  Iter=  8 NonCon=     1 RMS=1.32D-06 Max=1.59D-05 NDo=     1
 LinEq1:  Iter=  9 NonCon=     1 RMS=3.37D-07 Max=4.35D-06 NDo=     1
 LinEq1:  Iter= 10 NonCon=     1 RMS=1.34D-07 Max=2.48D-06 NDo=     1
 LinEq1:  Iter= 11 NonCon=     1 RMS=3.42D-08 Max=3.66D-07 NDo=     1
 LinEq1:  Iter= 12 NonCon=     1 RMS=9.62D-09 Max=1.56D-07 NDo=     1
 LinEq1:  Iter= 13 NonCon=     1 RMS=2.44D-09 Max=2.44D-08 NDo=     1
 LinEq1:  Iter= 14 NonCon=     1 RMS=6.80D-10 Max=5.59D-09 NDo=     1
 LinEq1:  Iter= 15 NonCon=     1 RMS=2.25D-10 Max=2.30D-09 NDo=     1
 LinEq1:  Iter= 16 NonCon=     0 RMS=6.67D-11 Max=5.98D-10 NDo=     1
 Linear equations converged to 1.000D-10 1.000D-09 after    16 iterations.
 End of Minotr F.D. properties file   721 does not exist.
 End of Minotr F.D. properties file   722 does not exist.
 End of Minotr F.D. properties file   788 does not exist.
 Symmetrizing basis deriv contribution to polar:
 IMax=3 JMax=2 DiffMx= 0.00D+00
 Calling FoFJK, ICntrl=  10002127 FMM=F ISym2X=0 I1Cent= 0 IOpClX= 0 NMat=1 NMatS=1 NMatT=0.
 ***** Axes restored to original set *****
 -------------------------------------------------------------------
 Center     Atomic                   Forces (Hartrees/Bohr)
 Number     Number              X              Y              Z
 -------------------------------------------------------------------
      1        6          -0.002105292   -0.000129908    0.000000005
      2        6          -0.000277015   -0.001084584   -0.000000002
      3        6          -0.000042567   -0.000295359   -0.000000002
      4        8           0.001534117    0.002036150   -0.000000000
      5        8           0.000874398    0.000905235    0.000000000
      6        1          -0.000151928   -0.000205290    0.000000000
      7        1           0.000701844    0.000099624   -0.000000002
      8        9          -0.000458616    0.000152357    0.000000002
      9        9          -0.000074941   -0.001478225   -0.000000002
 -------------------------------------------------------------------
 Cartesian Forces:  Max     0.002105292 RMS     0.000790376

 GradGradGradGradGradGradGradGradGradGradGradGradGradGradGradGradGradGrad
 Berny optimization.
 Using GEDIIS/GDIIS optimizer.
 FormGI is forming the generalized inverse of G from B-inverse, IUseBI=4.
 Internal  Forces:  Max     0.003087885 RMS     0.000880881
 Search for a local minimum.
 Step number   2 out of a maximum of   38
 All quantities printed in internal units (Hartrees-Bohrs-Radians)
 Mixed Optimization -- En-DIIS/RFO-DIIS
 Update second derivatives using D2CorX and points    1    2
 DE= -3.75D-03 DEPred=-3.91D-03 R= 9.59D-01
 TightC=F SS=  1.41D+00  RLast= 1.66D-01 DXNew= 5.0454D-01 4.9812D-01
 Trust test= 9.59D-01 RLast= 1.66D-01 DXMaxT set to 4.98D-01
 ITU=  1  0
 Use linear search instead of GDIIS.
     Eigenvalues ---    0.00952   0.01445   0.02347   0.03370   0.05501
     Eigenvalues ---    0.08579   0.11722   0.16932   0.18194   0.19187
     Eigenvalues ---    0.21078   0.23175   0.30166   0.36105   0.38239
     Eigenvalues ---    0.42987   0.44632   0.48113   0.49820   0.67347
     Eigenvalues ---    0.83353
 RFO step:  Lambda=-3.85012138D-05 EMin= 9.52410468D-03
 Quartic linear search produced a step of -0.03307.
 Iteration  1 RMS(Cart)=  0.00583418 RMS(Int)=  0.00000907
 Iteration  2 RMS(Cart)=  0.00001535 RMS(Int)=  0.00000000
 Iteration  3 RMS(Cart)=  0.00000000 RMS(Int)=  0.00000000
 Variable       Old X    -DE/DX   Delta X   Delta X   Delta X     New X
                                 (Linear)    (Quad)   (Total)
    R1        2.55640   0.00179  -0.00101   0.00315   0.00214   2.55854
    R2        2.52351   0.00309   0.00231   0.00415   0.00646   2.52997
    R3        2.04280   0.00005   0.00012  -0.00014  -0.00003   2.04278
    R4        2.73455   0.00106   0.00154   0.00103   0.00257   2.73713
    R5        2.55877   0.00028  -0.00037   0.00095   0.00058   2.55935
    R6        2.29792   0.00120   0.00054   0.00002   0.00056   2.29848
    R7        2.53912   0.00148  -0.00034   0.00336   0.00302   2.54214
    R8        1.84954   0.00054   0.00022   0.00019   0.00041   1.84995
    A1        2.18520   0.00100   0.00083   0.00310   0.00393   2.18913
    A2        2.10540  -0.00076   0.00110  -0.00483  -0.00373   2.10166
    A3        1.99259  -0.00024  -0.00193   0.00173  -0.00020   1.99240
    A4        2.12423   0.00058   0.00098   0.00106   0.00203   2.12627
    A5        2.09918  -0.00079   0.00038  -0.00457  -0.00420   2.09499
    A6        2.05977   0.00021  -0.00136   0.00352   0.00216   2.06193
    A7        2.18267  -0.00057  -0.00062  -0.00190  -0.00252   2.18015
    A8        1.98055   0.00028   0.00255  -0.00179   0.00076   1.98131
    A9        2.11996   0.00029  -0.00193   0.00369   0.00176   2.12172
   A10        1.87844   0.00084   0.00129   0.00043   0.00171   1.88015
    D1       -0.00000   0.00000   0.00000   0.00000   0.00000   0.00000
    D2        3.14159  -0.00000   0.00000  -0.00000   0.00000   3.14159
    D3        3.14159   0.00000   0.00000   0.00000   0.00000   3.14159
    D4        0.00000  -0.00000   0.00000  -0.00000  -0.00000  -0.00000
    D5        0.00000  -0.00000  -0.00000  -0.00000  -0.00000  -0.00000
    D6       -3.14159  -0.00000  -0.00000  -0.00000  -0.00000   3.14159
    D7       -0.00000   0.00000   0.00000   0.00000   0.00000  -0.00000
    D8        3.14159  -0.00000  -0.00000   0.00000   0.00000   3.14159
    D9        3.14159   0.00000   0.00000   0.00000   0.00000   3.14159
   D10       -0.00000  -0.00000  -0.00000   0.00000   0.00000   0.00000
         Item               Value     Threshold  Converged?
 Maximum Force            0.003088     0.000450     NO 
 RMS     Force            0.000881     0.000300     NO 
 Maximum Displacement     0.020503     0.001800     NO 
 RMS     Displacement     0.005843     0.001200     NO 
 Predicted change in Energy=-2.383683D-05
 GradGradGradGradGradGradGradGradGradGradGradGradGradGradGradGradGradGrad

                          Input orientation:                          
 ---------------------------------------------------------------------
 Center     Atomic      Atomic             Coordinates (Angstroms)
 Number     Number       Type             X           Y           Z
 ---------------------------------------------------------------------
      1          6           0       -0.427447    3.558785   -0.000001
      2          6           0       -0.297576    2.211107   -0.000004
      3          6           0        1.000672    1.568857   -0.000009
      4          8           0        0.583999    4.435922   -0.000002
      5          8           0        2.066886    2.154161   -0.000011
      6          1           0       -1.407859    4.014125    0.000003
      7          1           0        1.420089    3.926711   -0.000005
      8          9           0       -1.399648    1.423898   -0.000003
      9          9           0        0.934936    0.225220   -0.000012
 ---------------------------------------------------------------------
                    Distance matrix (angstroms):
                    1          2          3          4          5
     1  C    0.000000
     2  C    1.353921   0.000000
     3  C    2.449354   1.448424   0.000000
     4  O    1.338802   2.393110   2.897185   0.000000
     5  O    2.862632   2.365148   1.216304   2.721284   0.000000
     6  H    1.080992   2.117452   3.432252   2.036028   3.941233
     7  H    1.883815   2.427689   2.394867   0.978950   1.886870
     8  F    2.345829   1.354348   2.404693   3.606541   3.542618
     9  F    3.601214   2.337271   1.345244   4.225301   2.236544
                    6          7          8          9
     6  H    0.000000
     7  H    2.829299   0.000000
     8  F    2.590240   3.770277   0.000000
     9  F    4.454715   3.733151   2.624331   0.000000
 Stoichiometry    C3H2F2O2
 Framework group  C1[X(C3H2F2O2)]
 Deg. of freedom    21
 Full point group                 C1      NOp   1
 Largest Abelian subgroup         C1      NOp   1
 Largest concise Abelian subgroup C1      NOp   1
                         Standard orientation:                         
 ---------------------------------------------------------------------
 Center     Atomic      Atomic             Coordinates (Angstroms)
 Number     Number       Type             X           Y           Z
 ---------------------------------------------------------------------
      1          6           0        1.441599    0.574147    0.000005
      2          6           0        0.089162    0.637502    0.000002
      3          6           0       -0.731407   -0.556064   -0.000003
      4          8           0        2.165774   -0.551891    0.000004
      5          8           0       -0.303890   -1.694758   -0.000005
      6          1           0        2.031905    1.479731    0.000009
      7          1           0        1.542698   -1.306953    0.000001
      8          9           0       -0.533096    1.840438    0.000003
      9          9           0       -2.051992   -0.299671   -0.000006
 ---------------------------------------------------------------------
 Rotational constants (GHZ):           3.7912981           2.5321352           1.5181752
 Standard basis: 6-31G(d,p) (6D, 7F)
 There are   115 symmetry adapted cartesian basis functions of A   symmetry.
 There are   115 symmetry adapted basis functions of A   symmetry.
   115 basis functions,   210 primitive gaussians,   115 cartesian basis functions
    27 alpha electrons       27 beta electrons
       nuclear repulsion energy       301.6039531268 Hartrees.
 NAtoms=    9 NActive=    9 NUniq=    9 SFac= 1.00D+00 NAtFMM=   60 NAOKFM=F Big=F
 Integral buffers will be    131072 words long.
 Raffenetti 1 integral format.
 Two-electron integral symmetry is turned on.
 One-electron integrals computed using PRISM.
 NBasis=   115 RedAO= T EigKep=  1.58D-03  NBF=   115
 NBsUse=   115 1.00D-06 EigRej= -1.00D+00 NBFU=   115
 Initial guess from the checkpoint file:  "13.chk"
 B after Tr=     0.000000   -0.000000    0.000000
         Rot=    1.000000   -0.000000   -0.000000    0.000824 Ang=   0.09 deg.
 ExpMin= 1.61D-01 ExpMax= 7.00D+03 ExpMxC= 1.05D+03 IAcc=2 IRadAn=         4 AccDes= 0.00D+00
 Harris functional with IExCor=  205 and IRadAn=       4 diagonalized for initial guess.
 HarFok:  IExCor=  205 AccDes= 0.00D+00 IRadAn=         4 IDoV= 1 UseB2=F ITyADJ=14
 ICtDFT=  3500011 ScaDFX=  1.000000  1.000000  1.000000  1.000000
 FoFCou: FMM=F IPFlag=           0 FMFlag=      100000 FMFlg1=           0
         NFxFlg=           0 DoJE=T BraDBF=F KetDBF=T FulRan=T
         wScrn=  0.000000 ICntrl=       500 IOpCl=  0 I1Cent=   200000004 NGrid=           0
         NMat0=    1 NMatS0=      1 NMatT0=    0 NMatD0=    1 NMtDS0=    0 NMtDT0=    0
 Petite list used in FoFCou.
 Keep R1 ints in memory in canonical form, NReq=28127623.
 Requested convergence on RMS density matrix=1.00D-08 within 128 cycles.
 Requested convergence on MAX density matrix=1.00D-06.
 Requested convergence on             energy=1.00D-06.
 No special actions if energy rises.
 SCF Done:  E(RHF) =  -463.346515187     A.U. after   11 cycles
            NFock= 11  Conv=0.32D-08     -V/T= 2.0030
 ExpMin= 1.61D-01 ExpMax= 7.00D+03 ExpMxC= 1.05D+03 IAcc=3 IRadAn=         5 AccDes= 0.00D+00
 HarFok:  IExCor=  205 AccDes= 0.00D+00 IRadAn=         5 IDoV=-2 UseB2=F ITyADJ=14
 ICtDFT= 12500011 ScaDFX=  1.000000  1.000000  1.000000  1.000000
 Range of M.O.s used for correlation:     8   115
 NBasis=   115 NAE=    27 NBE=    27 NFC=     7 NFV=     0
 NROrb=    108 NOA=    20 NOB=    20 NVA=    88 NVB=    88

 **** Warning!!: The largest alpha MO coefficient is  0.11014411D+02

 Fully direct method using O(ONN) memory.
 JobTyp=1 Pass  1:  I=   8 to  27 NPSUse= 28 ParTrn=T ParDer=T DoDerP=T.
 Spin components of T(2) and E(2):
     alpha-alpha T2 =       0.4216467883D-01 E2=     -0.1493804490D+00
     alpha-beta  T2 =       0.2213205920D+00 E2=     -0.7844162938D+00
     beta-beta   T2 =       0.4216467883D-01 E2=     -0.1493804490D+00
 ANorm=    0.1142650406D+01
 E2 =    -0.1083177192D+01 EUMP2 =    -0.46442969237858D+03
          IDoAtm=111111111
          Differentiating once with respect to electric field.
                with respect to dipole field.
          Differentiating once with respect to nuclear coordinates.
 Keep R1 ints in memory in canonical form, NReq=28132396.
          There are     1 degrees of freedom in the 1st order CPHF.  IDoFFX=0 NUNeed=     1.
 LinEq1:  Iter=  0 NonCon=     1 RMS=6.98D-03 Max=1.16D-01 NDo=     1
 AX will form     1 AO Fock derivatives at one time.
 LinEq1:  Iter=  1 NonCon=     1 RMS=2.53D-03 Max=4.41D-02 NDo=     1
 LinEq1:  Iter=  2 NonCon=     1 RMS=7.09D-04 Max=1.12D-02 NDo=     1
 LinEq1:  Iter=  3 NonCon=     1 RMS=3.03D-04 Max=5.28D-03 NDo=     1
 LinEq1:  Iter=  4 NonCon=     1 RMS=9.87D-05 Max=1.75D-03 NDo=     1
 LinEq1:  Iter=  5 NonCon=     1 RMS=3.70D-05 Max=7.43D-04 NDo=     1
 LinEq1:  Iter=  6 NonCon=     1 RMS=1.45D-05 Max=4.21D-04 NDo=     1
 LinEq1:  Iter=  7 NonCon=     1 RMS=4.75D-06 Max=4.90D-05 NDo=     1
 LinEq1:  Iter=  8 NonCon=     1 RMS=1.33D-06 Max=1.57D-05 NDo=     1
 LinEq1:  Iter=  9 NonCon=     1 RMS=3.40D-07 Max=4.39D-06 NDo=     1
 LinEq1:  Iter= 10 NonCon=     1 RMS=1.35D-07 Max=2.49D-06 NDo=     1
 LinEq1:  Iter= 11 NonCon=     1 RMS=3.45D-08 Max=3.69D-07 NDo=     1
 LinEq1:  Iter= 12 NonCon=     1 RMS=9.69D-09 Max=1.55D-07 NDo=     1
 LinEq1:  Iter= 13 NonCon=     1 RMS=2.46D-09 Max=2.46D-08 NDo=     1
 LinEq1:  Iter= 14 NonCon=     1 RMS=6.88D-10 Max=5.68D-09 NDo=     1
 LinEq1:  Iter= 15 NonCon=     1 RMS=2.28D-10 Max=2.19D-09 NDo=     1
 LinEq1:  Iter= 16 NonCon=     0 RMS=6.65D-11 Max=6.91D-10 NDo=     1
 Linear equations converged to 1.000D-10 1.000D-09 after    16 iterations.
 End of Minotr F.D. properties file   721 does not exist.
 End of Minotr F.D. properties file   722 does not exist.
 End of Minotr F.D. properties file   788 does not exist.
 Symmetrizing basis deriv contribution to polar:
 IMax=3 JMax=2 DiffMx= 0.00D+00
 Calling FoFJK, ICntrl=  10002127 FMM=F ISym2X=0 I1Cent= 0 IOpClX= 0 NMat=1 NMatS=1 NMatT=0.
 ***** Axes restored to original set *****
 -------------------------------------------------------------------
 Center     Atomic                   Forces (Hartrees/Bohr)
 Number     Number              X              Y              Z
 -------------------------------------------------------------------
      1        6           0.000173111    0.000166816   -0.000000000
      2        6           0.000018291    0.000076276    0.000000001
      3        6          -0.000013364    0.000036164   -0.000000002
      4        8          -0.000155907   -0.000270920   -0.000000000
      5        8           0.000033958    0.000055976    0.000000001
      6        1           0.000013328    0.000043135    0.000000000
      7        1          -0.000083600   -0.000018210   -0.000000000
      8        9           0.000014251   -0.000014123   -0.000000000
      9        9          -0.000000069   -0.000075113    0.000000000
 -------------------------------------------------------------------
 Cartesian Forces:  Max     0.000270920 RMS     0.000082289

 GradGradGradGradGradGradGradGradGradGradGradGradGradGradGradGradGradGrad
 Berny optimization.
 Using GEDIIS/GDIIS optimizer.
 FormGI is forming the generalized inverse of G from B-inverse, IUseBI=4.
 Internal  Forces:  Max     0.000370371 RMS     0.000096761
 Search for a local minimum.
 Step number   3 out of a maximum of   38
 All quantities printed in internal units (Hartrees-Bohrs-Radians)
 Mixed Optimization -- En-DIIS/RFO-DIIS
 Swapping is turned off.
 Update second derivatives using D2CorX and points    1    2    3
 DE= -2.15D-05 DEPred=-2.38D-05 R= 9.03D-01
 TightC=F SS=  1.41D+00  RLast= 1.15D-02 DXNew= 8.3774D-01 3.4424D-02
 Trust test= 9.03D-01 RLast= 1.15D-02 DXMaxT set to 4.98D-01
 ITU=  1  1  0
     Eigenvalues ---    0.00952   0.01445   0.02347   0.03370   0.05501
     Eigenvalues ---    0.08579   0.11708   0.16929   0.18284   0.19230
     Eigenvalues ---    0.21050   0.23745   0.30155   0.36989   0.38251
     Eigenvalues ---    0.42340   0.45046   0.48065   0.51687   0.68308
     Eigenvalues ---    0.82702
 En-DIIS/RFO-DIIS/Sim-DIIS IScMMF=       -3 using points:     3    2
 RFO step:  Lambda=-6.36402505D-07.
 DidBck=F Rises=F RFO-DIIS coefs:    0.91272    0.08728
 Iteration  1 RMS(Cart)=  0.00092063 RMS(Int)=  0.00000028
 Iteration  2 RMS(Cart)=  0.00000034 RMS(Int)=  0.00000000
 Variable       Old X    -DE/DX   Delta X   Delta X   Delta X     New X
                                 (Linear)    (Quad)   (Total)
    R1        2.55854  -0.00007  -0.00019   0.00023   0.00004   2.55858
    R2        2.52997  -0.00037  -0.00056  -0.00015  -0.00071   2.52926
    R3        2.04278   0.00001   0.00000   0.00002   0.00002   2.04280
    R4        2.73713   0.00001  -0.00022   0.00024   0.00002   2.73714
    R5        2.55935  -0.00000  -0.00005   0.00003  -0.00002   2.55933
    R6        2.29848   0.00006  -0.00005   0.00021   0.00016   2.29864
    R7        2.54214   0.00008  -0.00026   0.00040   0.00013   2.54228
    R8        1.84995  -0.00006  -0.00004   0.00002  -0.00001   1.84994
    A1        2.18913  -0.00021  -0.00034  -0.00036  -0.00071   2.18842
    A2        2.10166   0.00015   0.00033   0.00028   0.00061   2.10227
    A3        1.99240   0.00006   0.00002   0.00008   0.00010   1.99249
    A4        2.12627  -0.00012  -0.00018  -0.00019  -0.00037   2.12590
    A5        2.09499   0.00008   0.00037  -0.00001   0.00036   2.09534
    A6        2.06193   0.00003  -0.00019   0.00020   0.00001   2.06194
    A7        2.18015  -0.00005   0.00022  -0.00033  -0.00011   2.18004
    A8        1.98131   0.00003  -0.00007   0.00028   0.00022   1.98153
    A9        2.12172   0.00002  -0.00015   0.00005  -0.00010   2.12162
   A10        1.88015  -0.00011  -0.00015  -0.00012  -0.00027   1.87989
    D1       -0.00000   0.00000   0.00000   0.00000   0.00000   0.00000
    D2        3.14159   0.00000   0.00000   0.00000   0.00000   3.14159
    D3        3.14159   0.00000  -0.00000   0.00000   0.00000  -3.14159
    D4       -0.00000   0.00000   0.00000   0.00000   0.00000   0.00000
    D5       -0.00000   0.00000   0.00000   0.00000   0.00000   0.00000
    D6        3.14159   0.00000   0.00000   0.00000   0.00000   3.14159
    D7       -0.00000   0.00000   0.00000   0.00000   0.00000   0.00000
    D8       -3.14159  -0.00000  -0.00000  -0.00000  -0.00000   3.14159
    D9        3.14159   0.00000  -0.00000   0.00000   0.00000  -3.14159
   D10        0.00000  -0.00000  -0.00000  -0.00000  -0.00000  -0.00000
         Item               Value     Threshold  Converged?
 Maximum Force            0.000370     0.000450     YES
 RMS     Force            0.000097     0.000300     YES
 Maximum Displacement     0.003338     0.001800     NO 
 RMS     Displacement     0.000921     0.001200     YES
 Predicted change in Energy=-3.182018D-07
 GradGradGradGradGradGradGradGradGradGradGradGradGradGradGradGradGradGrad

                          Input orientation:                          
 ---------------------------------------------------------------------
 Center     Atomic      Atomic             Coordinates (Angstroms)
 Number     Number       Type             X           Y           Z
 ---------------------------------------------------------------------
      1          6           0       -0.427607    3.558921   -0.000001
      2          6           0       -0.297828    2.211212   -0.000004
      3          6           0        1.000618    1.569342   -0.000009
      4          8           0        0.584235    4.435025   -0.000002
      5          8           0        2.066667    2.155119   -0.000011
      6          1           0       -1.407720    4.014931    0.000003
      7          1           0        1.419788    3.924945   -0.000005
      8          9           0       -1.399665    1.423691   -0.000003
      9          9           0        0.935565    0.225600   -0.000012
 ---------------------------------------------------------------------
                    Distance matrix (angstroms):
                    1          2          3          4          5
     1  C    0.000000
     2  C    1.353943   0.000000
     3  C    2.449133   1.448433   0.000000
     4  O    1.338425   2.392359   2.895775   0.000000
     5  O    2.862178   2.365160   1.216386   2.719481   0.000000
     6  H    1.081002   2.117843   3.432345   2.035771   3.940845
     7  H    1.883306   2.426332   2.392607   0.978944   1.884340
     8  F    2.346083   1.354339   2.404698   3.606105   3.542661
     9  F    3.601286   2.337501   1.345315   4.224061   2.236612
                    6          7          8          9
     6  H    0.000000
     7  H    2.828939   0.000000
     8  F    2.591252   3.769030   0.000000
     9  F    4.455335   3.730901   2.624637   0.000000
 Stoichiometry    C3H2F2O2
 Framework group  C1[X(C3H2F2O2)]
 Deg. of freedom    21
 Full point group                 C1      NOp   1
 Largest Abelian subgroup         C1      NOp   1
 Largest concise Abelian subgroup C1      NOp   1
                         Standard orientation:                         
 ---------------------------------------------------------------------
 Center     Atomic      Atomic             Coordinates (Angstroms)
 Number     Number       Type             X           Y           Z
 ---------------------------------------------------------------------
      1          6           0        1.441689    0.574288    0.000005
      2          6           0        0.089236    0.637796    0.000002
      3          6           0       -0.731036   -0.555985   -0.000003
      4          8           0        2.164737   -0.552027    0.000004
      5          8           0       -0.303077   -1.694601   -0.000005
      6          1           0        2.032654    1.479455    0.000009
      7          1           0        1.540843   -1.306406    0.000001
      8          9           0       -0.533313    1.840571    0.000003
      9          9           0       -2.051811   -0.300196   -0.000006
 ---------------------------------------------------------------------
 Rotational constants (GHZ):           3.7909532           2.5333439           1.5185542
 Standard basis: 6-31G(d,p) (6D, 7F)
 There are   115 symmetry adapted cartesian basis functions of A   symmetry.
 There are   115 symmetry adapted basis functions of A   symmetry.
   115 basis functions,   210 primitive gaussians,   115 cartesian basis functions
    27 alpha electrons       27 beta electrons
       nuclear repulsion energy       301.6290165827 Hartrees.
 NAtoms=    9 NActive=    9 NUniq=    9 SFac= 1.00D+00 NAtFMM=   60 NAOKFM=F Big=F
 Integral buffers will be    131072 words long.
 Raffenetti 1 integral format.
 Two-electron integral symmetry is turned on.
 One-electron integrals computed using PRISM.
 NBasis=   115 RedAO= T EigKep=  1.58D-03  NBF=   115
 NBsUse=   115 1.00D-06 EigRej= -1.00D+00 NBFU=   115
 Initial guess from the checkpoint file:  "13.chk"
 B after Tr=    -0.000000    0.000000   -0.000000
         Rot=    1.000000    0.000000   -0.000000   -0.000046 Ang=  -0.01 deg.
 Keep R1 ints in memory in canonical form, NReq=28127623.
 Requested convergence on RMS density matrix=1.00D-08 within 128 cycles.
 Requested convergence on MAX density matrix=1.00D-06.
 Requested convergence on             energy=1.00D-06.
 No special actions if energy rises.
 SCF Done:  E(RHF) =  -463.346508461     A.U. after    9 cycles
            NFock=  9  Conv=0.39D-08     -V/T= 2.0030
 ExpMin= 1.61D-01 ExpMax= 7.00D+03 ExpMxC= 1.05D+03 IAcc=3 IRadAn=         5 AccDes= 0.00D+00
 HarFok:  IExCor=  205 AccDes= 0.00D+00 IRadAn=         5 IDoV=-2 UseB2=F ITyADJ=14
 ICtDFT= 12500011 ScaDFX=  1.000000  1.000000  1.000000  1.000000
 Range of M.O.s used for correlation:     8   115
 NBasis=   115 NAE=    27 NBE=    27 NFC=     7 NFV=     0
 NROrb=    108 NOA=    20 NOB=    20 NVA=    88 NVB=    88

 **** Warning!!: The largest alpha MO coefficient is  0.11016188D+02

 Fully direct method using O(ONN) memory.
 JobTyp=1 Pass  1:  I=   8 to  27 NPSUse= 28 ParTrn=T ParDer=T DoDerP=T.
 Spin components of T(2) and E(2):
     alpha-alpha T2 =       0.4216585054D-01 E2=     -0.1493857691D+00
     alpha-beta  T2 =       0.2213117338D+00 E2=     -0.7844126866D+00
     beta-beta   T2 =       0.4216585054D-01 E2=     -0.1493857691D+00
 ANorm=    0.1142647555D+01
 E2 =    -0.1083184225D+01 EUMP2 =    -0.46442969268600D+03
          IDoAtm=111111111
          Differentiating once with respect to electric field.
                with respect to dipole field.
          Differentiating once with respect to nuclear coordinates.
 Keep R1 ints in memory in canonical form, NReq=28132396.
          There are     1 degrees of freedom in the 1st order CPHF.  IDoFFX=0 NUNeed=     1.
 LinEq1:  Iter=  0 NonCon=     1 RMS=6.98D-03 Max=1.16D-01 NDo=     1
 AX will form     1 AO Fock derivatives at one time.
 LinEq1:  Iter=  1 NonCon=     1 RMS=2.53D-03 Max=4.41D-02 NDo=     1
 LinEq1:  Iter=  2 NonCon=     1 RMS=7.09D-04 Max=1.12D-02 NDo=     1
 LinEq1:  Iter=  3 NonCon=     1 RMS=3.03D-04 Max=5.28D-03 NDo=     1
 LinEq1:  Iter=  4 NonCon=     1 RMS=9.87D-05 Max=1.75D-03 NDo=     1
 LinEq1:  Iter=  5 NonCon=     1 RMS=3.70D-05 Max=7.42D-04 NDo=     1
 LinEq1:  Iter=  6 NonCon=     1 RMS=1.45D-05 Max=4.21D-04 NDo=     1
 LinEq1:  Iter=  7 NonCon=     1 RMS=4.75D-06 Max=4.90D-05 NDo=     1
 LinEq1:  Iter=  8 NonCon=     1 RMS=1.33D-06 Max=1.58D-05 NDo=     1
 LinEq1:  Iter=  9 NonCon=     1 RMS=3.40D-07 Max=4.39D-06 NDo=     1
 LinEq1:  Iter= 10 NonCon=     1 RMS=1.35D-07 Max=2.49D-06 NDo=     1
 LinEq1:  Iter= 11 NonCon=     1 RMS=3.45D-08 Max=3.69D-07 NDo=     1
 LinEq1:  Iter= 12 NonCon=     1 RMS=9.70D-09 Max=1.55D-07 NDo=     1
 LinEq1:  Iter= 13 NonCon=     1 RMS=2.47D-09 Max=2.47D-08 NDo=     1
 LinEq1:  Iter= 14 NonCon=     1 RMS=6.89D-10 Max=5.69D-09 NDo=     1
 LinEq1:  Iter= 15 NonCon=     1 RMS=2.28D-10 Max=2.22D-09 NDo=     1
 LinEq1:  Iter= 16 NonCon=     0 RMS=6.66D-11 Max=6.80D-10 NDo=     1
 Linear equations converged to 1.000D-10 1.000D-09 after    16 iterations.
 End of Minotr F.D. properties file   721 does not exist.
 End of Minotr F.D. properties file   722 does not exist.
 End of Minotr F.D. properties file   788 does not exist.
 Symmetrizing basis deriv contribution to polar:
 IMax=3 JMax=2 DiffMx= 0.00D+00
 Calling FoFJK, ICntrl=  10002127 FMM=F ISym2X=0 I1Cent= 0 IOpClX= 0 NMat=1 NMatS=1 NMatT=0.
 ***** Axes restored to original set *****
 -------------------------------------------------------------------
 Center     Atomic                   Forces (Hartrees/Bohr)
 Number     Number              X              Y              Z
 -------------------------------------------------------------------
      1        6           0.000010369    0.000006819    0.000000001
      2        6           0.000017764   -0.000019260   -0.000000001
      3        6          -0.000005421    0.000011141    0.000000001
      4        8          -0.000016760    0.000001351    0.000000000
      5        8          -0.000004561   -0.000009018   -0.000000000
      6        1           0.000000605    0.000000946   -0.000000001
      7        1           0.000005793    0.000000437   -0.000000000
      8        9           0.000003170   -0.000003519    0.000000000
      9        9          -0.000010958    0.000011105   -0.000000000
 -------------------------------------------------------------------
 Cartesian Forces:  Max     0.000019260 RMS     0.000007888

 GradGradGradGradGradGradGradGradGradGradGradGradGradGradGradGradGradGrad
 Berny optimization.
 Using GEDIIS/GDIIS optimizer.
 FormGI is forming the generalized inverse of G from B-inverse, IUseBI=4.
 Internal  Forces:  Max     0.000024635 RMS     0.000010436
 Search for a local minimum.
 Step number   4 out of a maximum of   38
 All quantities printed in internal units (Hartrees-Bohrs-Radians)
 Mixed Optimization -- En-DIIS/RFO-DIIS
 Swapping is turned off.
 Update second derivatives using D2CorX and points    1    2    3    4
 DE= -3.07D-07 DEPred=-3.18D-07 R= 9.66D-01
 Trust test= 9.66D-01 RLast= 1.36D-03 DXMaxT set to 4.98D-01
 ITU=  0  1  1  0
     Eigenvalues ---    0.00952   0.01445   0.02347   0.03370   0.05501
     Eigenvalues ---    0.08579   0.11626   0.17026   0.18320   0.19294
     Eigenvalues ---    0.21166   0.24184   0.31891   0.36412   0.38326
     Eigenvalues ---    0.42682   0.44761   0.48020   0.51096   0.68977
     Eigenvalues ---    0.82931
 En-DIIS/RFO-DIIS/Sim-DIIS IScMMF=       -3 using points:     4    3    2
 RFO step:  Lambda=-8.07389219D-09.
 DidBck=F Rises=F RFO-DIIS coefs:    0.86201    0.12412    0.01387
 Iteration  1 RMS(Cart)=  0.00010120 RMS(Int)=  0.00000001
 Iteration  2 RMS(Cart)=  0.00000001 RMS(Int)=  0.00000001
 Variable       Old X    -DE/DX   Delta X   Delta X   Delta X     New X
                                 (Linear)    (Quad)   (Total)
    R1        2.55858   0.00001  -0.00004   0.00004   0.00000   2.55858
    R2        2.52926  -0.00001   0.00001  -0.00003  -0.00002   2.52924
    R3        2.04280  -0.00000  -0.00000   0.00000   0.00000   2.04280
    R4        2.73714  -0.00002  -0.00004  -0.00002  -0.00006   2.73708
    R5        2.55933  -0.00000  -0.00001   0.00001   0.00000   2.55933
    R6        2.29864  -0.00001  -0.00003   0.00001  -0.00002   2.29862
    R7        2.54228  -0.00001  -0.00006   0.00005  -0.00001   2.54227
    R8        1.84994   0.00000  -0.00000   0.00001   0.00000   1.84994
    A1        2.18842   0.00002   0.00004  -0.00000   0.00004   2.18846
    A2        2.10227  -0.00001  -0.00003   0.00002  -0.00001   2.10226
    A3        1.99249  -0.00001  -0.00001  -0.00002  -0.00003   1.99247
    A4        2.12590   0.00002   0.00002   0.00003   0.00005   2.12596
    A5        2.09534  -0.00000   0.00001  -0.00002  -0.00001   2.09534
    A6        2.06194  -0.00002  -0.00003  -0.00001  -0.00005   2.06189
    A7        2.18004   0.00002   0.00005   0.00002   0.00007   2.18011
    A8        1.98153  -0.00002  -0.00004  -0.00006  -0.00010   1.98143
    A9        2.12162   0.00001  -0.00001   0.00004   0.00003   2.12165
   A10        1.87989   0.00001   0.00001   0.00003   0.00004   1.87993
    D1       -0.00000   0.00000   0.00000   0.00000   0.00000   0.00000
    D2        3.14159  -0.00000  -0.00000  -0.00000   0.00000   3.14159
    D3       -3.14159  -0.00000  -0.00000  -0.00000  -0.00000   3.14159
    D4        0.00000  -0.00000  -0.00000  -0.00000  -0.00000   0.00000
    D5        0.00000  -0.00000   0.00000   0.00000  -0.00000  -0.00000
    D6        3.14159   0.00000  -0.00000   0.00000   0.00000   3.14159
    D7        0.00000  -0.00000  -0.00000  -0.00000  -0.00000   0.00000
    D8        3.14159   0.00000   0.00000  -0.00000   0.00000  -3.14159
    D9       -3.14159  -0.00000  -0.00000  -0.00000   0.00000  -3.14159
   D10       -0.00000   0.00000   0.00000   0.00000   0.00000   0.00000
         Item               Value     Threshold  Converged?
 Maximum Force            0.000025     0.000450     YES
 RMS     Force            0.000010     0.000300     YES
 Maximum Displacement     0.000291     0.001800     YES
 RMS     Displacement     0.000101     0.001200     YES
 Predicted change in Energy=-4.569182D-09
 Optimization completed.
    -- Stationary point found.
                           ----------------------------
                           !   Optimized Parameters   !
                           ! (Angstroms and Degrees)  !
 --------------------------                            --------------------------
 ! Name  Definition              Value          Derivative Info.                !
 --------------------------------------------------------------------------------
 ! R1    R(1,2)                  1.3539         -DE/DX =    0.0                 !
 ! R2    R(1,4)                  1.3384         -DE/DX =    0.0                 !
 ! R3    R(1,6)                  1.081          -DE/DX =    0.0                 !
 ! R4    R(2,3)                  1.4484         -DE/DX =    0.0                 !
 ! R5    R(2,8)                  1.3543         -DE/DX =    0.0                 !
 ! R6    R(3,5)                  1.2164         -DE/DX =    0.0                 !
 ! R7    R(3,9)                  1.3453         -DE/DX =    0.0                 !
 ! R8    R(4,7)                  0.9789         -DE/DX =    0.0                 !
 ! A1    A(2,1,4)              125.3873         -DE/DX =    0.0                 !
 ! A2    A(2,1,6)              120.4512         -DE/DX =    0.0                 !
 ! A3    A(4,1,6)              114.1615         -DE/DX =    0.0                 !
 ! A4    A(1,2,3)              121.8053         -DE/DX =    0.0                 !
 ! A5    A(1,2,8)              120.0543         -DE/DX =    0.0                 !
 ! A6    A(3,2,8)              118.1404         -DE/DX =    0.0                 !
 ! A7    A(2,3,5)              124.907          -DE/DX =    0.0                 !
 ! A8    A(2,3,9)              113.5333         -DE/DX =    0.0                 !
 ! A9    A(5,3,9)              121.5597         -DE/DX =    0.0                 !
 ! A10   A(1,4,7)              107.7095         -DE/DX =    0.0                 !
 ! D1    D(4,1,2,3)              0.0            -DE/DX =    0.0                 !
 ! D2    D(4,1,2,8)            180.0            -DE/DX =    0.0                 !
 ! D3    D(6,1,2,3)            180.0            -DE/DX =    0.0                 !
 ! D4    D(6,1,2,8)              0.0            -DE/DX =    0.0                 !
 ! D5    D(2,1,4,7)              0.0            -DE/DX =    0.0                 !
 ! D6    D(6,1,4,7)            180.0            -DE/DX =    0.0                 !
 ! D7    D(1,2,3,5)              0.0            -DE/DX =    0.0                 !
 ! D8    D(1,2,3,9)           -180.0            -DE/DX =    0.0                 !
 ! D9    D(8,2,3,5)           -180.0            -DE/DX =    0.0                 !
 ! D10   D(8,2,3,9)              0.0            -DE/DX =    0.0                 !
 --------------------------------------------------------------------------------
 GradGradGradGradGradGradGradGradGradGradGradGradGradGradGradGradGradGrad

                          Input orientation:                          
 ---------------------------------------------------------------------
 Center     Atomic      Atomic             Coordinates (Angstroms)
 Number     Number       Type             X           Y           Z
 ---------------------------------------------------------------------
      1          6           0       -0.427607    3.558921   -0.000001
      2          6           0       -0.297828    2.211212   -0.000004
      3          6           0        1.000618    1.569342   -0.000009
      4          8           0        0.584235    4.435025   -0.000002
      5          8           0        2.066667    2.155119   -0.000011
      6          1           0       -1.407720    4.014931    0.000003
      7          1           0        1.419788    3.924945   -0.000005
      8          9           0       -1.399665    1.423691   -0.000003
      9          9           0        0.935565    0.225600   -0.000012
 ---------------------------------------------------------------------
                    Distance matrix (angstroms):
                    1          2          3          4          5
     1  C    0.000000
     2  C    1.353943   0.000000
     3  C    2.449133   1.448433   0.000000
     4  O    1.338425   2.392359   2.895775   0.000000
     5  O    2.862178   2.365160   1.216386   2.719481   0.000000
     6  H    1.081002   2.117843   3.432345   2.035771   3.940845
     7  H    1.883306   2.426332   2.392607   0.978944   1.884340
     8  F    2.346083   1.354339   2.404698   3.606105   3.542661
     9  F    3.601286   2.337501   1.345315   4.224061   2.236612
                    6          7          8          9
     6  H    0.000000
     7  H    2.828939   0.000000
     8  F    2.591252   3.769030   0.000000
     9  F    4.455335   3.730901   2.624637   0.000000
 Stoichiometry    C3H2F2O2
 Framework group  C1[X(C3H2F2O2)]
 Deg. of freedom    21
 Full point group                 C1      NOp   1
 Largest Abelian subgroup         C1      NOp   1
 Largest concise Abelian subgroup C1      NOp   1
                         Standard orientation:                         
 ---------------------------------------------------------------------
 Center     Atomic      Atomic             Coordinates (Angstroms)
 Number     Number       Type             X           Y           Z
 ---------------------------------------------------------------------
      1          6           0        1.441689    0.574288    0.000005
      2          6           0        0.089236    0.637796    0.000002
      3          6           0       -0.731036   -0.555985   -0.000003
      4          8           0        2.164737   -0.552027    0.000004
      5          8           0       -0.303077   -1.694601   -0.000005
      6          1           0        2.032654    1.479455    0.000009
      7          1           0        1.540843   -1.306406    0.000001
      8          9           0       -0.533313    1.840571    0.000003
      9          9           0       -2.051811   -0.300196   -0.000006
 ---------------------------------------------------------------------
 Rotational constants (GHZ):           3.7909532           2.5333439           1.5185542

 **********************************************************************

            Population analysis using the SCF density.

 **********************************************************************

 Orbital symmetries:
       Occupied  (A) (A) (A) (A) (A) (A) (A) (A) (A) (A) (A) (A)
                 (A) (A) (A) (A) (A) (A) (A) (A) (A) (A) (A) (A)
                 (A) (A) (A)
       Virtual   (A) (A) (A) (A) (A) (A) (A) (A) (A) (A) (A) (A)
                 (A) (A) (A) (A) (A) (A) (A) (A) (A) (A) (A) (A)
                 (A) (A) (A) (A) (A) (A) (A) (A) (A) (A) (A) (A)
                 (A) (A) (A) (A) (A) (A) (A) (A) (A) (A) (A) (A)
                 (A) (A) (A) (A) (A) (A) (A) (A) (A) (A) (A) (A)
                 (A) (A) (A) (A) (A) (A) (A) (A) (A) (A) (A) (A)
                 (A) (A) (A) (A) (A) (A) (A) (A) (A) (A) (A) (A)
                 (A) (A) (A) (A)
 The electronic state is 1-A.
 Alpha  occ. eigenvalues --  -26.35564 -26.33371 -20.64094 -20.60958 -11.46251
 Alpha  occ. eigenvalues --  -11.37210 -11.35064  -1.67349  -1.63777  -1.45897
 Alpha  occ. eigenvalues --   -1.43181  -1.09651  -0.95393  -0.86075  -0.79349
 Alpha  occ. eigenvalues --   -0.77796  -0.74077  -0.72994  -0.70444  -0.68984
 Alpha  occ. eigenvalues --   -0.66516  -0.63357  -0.61798  -0.60339  -0.56127
 Alpha  occ. eigenvalues --   -0.50686  -0.38584
 Alpha virt. eigenvalues --    0.07282   0.23344   0.25718   0.26120   0.30998
 Alpha virt. eigenvalues --    0.38673   0.43233   0.51145   0.53753   0.57587
 Alpha virt. eigenvalues --    0.68265   0.72142   0.76511   0.77301   0.77739
 Alpha virt. eigenvalues --    0.82812   0.87079   0.88576   0.89338   0.97189
 Alpha virt. eigenvalues --    1.02825   1.10830   1.12022   1.18626   1.20185
 Alpha virt. eigenvalues --    1.25346   1.25527   1.27248   1.39421   1.42095
 Alpha virt. eigenvalues --    1.43124   1.48829   1.49719   1.50350   1.59002
 Alpha virt. eigenvalues --    1.63233   1.64068   1.65963   1.70714   1.72505
 Alpha virt. eigenvalues --    1.81328   1.82228   1.86712   1.92455   1.99583
 Alpha virt. eigenvalues --    2.00055   2.02164   2.05371   2.09356   2.10538
 Alpha virt. eigenvalues --    2.10882   2.17377   2.17656   2.19134   2.21557
 Alpha virt. eigenvalues --    2.25927   2.31384   2.35138   2.39218   2.49319
 Alpha virt. eigenvalues --    2.54849   2.60430   2.62687   2.66709   2.71562
 Alpha virt. eigenvalues --    2.77708   2.78530   2.90507   2.92599   2.94210
 Alpha virt. eigenvalues --    2.99159   3.05289   3.14200   3.20149   3.32495
 Alpha virt. eigenvalues --    3.35012   3.40755   3.51225   3.60264   3.81783
 Alpha virt. eigenvalues --    3.93375   4.32517   4.41802   4.53406   4.74510
 Alpha virt. eigenvalues --    4.85539   5.04148   6.07286
          Condensed to atoms (all electrons):
               1          2          3          4          5          6
     1  C    4.605500   0.536988  -0.063190   0.293317   0.004724   0.409053
     2  C    0.536988   4.890752   0.394141  -0.043561  -0.076480  -0.049285
     3  C   -0.063190   0.394141   4.027375  -0.001613   0.530487   0.001765
     4  O    0.293317  -0.043561  -0.001613   8.101684  -0.017360  -0.029833
     5  O    0.004724  -0.076480   0.530487  -0.017360   8.161541  -0.000039
     6  H    0.409053  -0.049285   0.001765  -0.029833  -0.000039   0.454141
     7  H   -0.027603  -0.006533  -0.000335   0.307287   0.031141   0.003256
     8  F   -0.031892   0.234990  -0.027105   0.000637   0.000756   0.000793
     9  F    0.002059  -0.055035   0.283179  -0.000010  -0.047915  -0.000016
               7          8          9
     1  C   -0.027603  -0.031892   0.002059
     2  C   -0.006533   0.234990  -0.055035
[...]
 XXXX=           -450.3175 YYYY=           -289.7287 ZZZZ=            -28.9820 XXXY=              7.8358
 XXXZ=             -0.0005 YYYX=             -9.8198 YYYZ=             -0.0004 ZZZX=             -0.0005
 ZZZY=             -0.0003 XXYY=           -104.4024 XXZZ=            -74.8413 YYZZ=            -50.9176
 XXYZ=             -0.0000 YYXZ=             -0.0001 ZZXY=             -2.0716
 N-N= 3.016719281731D+02 E-N=-1.700611120586D+03  KE= 4.627918915098D+02
  Exact polarizability:  52.893   0.975  40.975   0.000   0.000  17.733
 Approx polarizability:  42.884  -1.415  35.672   0.000   0.000  18.901
 Calling FoFJK, ICntrl=  10100127 FMM=F ISym2X=0 I1Cent= 0 IOpClX= 0 NMat=1 NMatS=1 NMatT=0.
 -------------------------------------------------------------------
 Center     Atomic                   Forces (Hartrees/Bohr)
 Number     Number              X              Y              Z
 -------------------------------------------------------------------
      1        6           0.000111202    0.000679298    0.000000003
      2        6           0.000284770    0.000191300    0.000000000
      3        6          -0.000013747   -0.000830440   -0.000000001
      4        8           0.005723071    0.007398344    0.000000032
      5        8          -0.000194567    0.000551618    0.000000001
      6        1          -0.000206381   -0.000355008   -0.000000002
      7        1          -0.005696573   -0.007696346   -0.000000033
      8        9           0.000044714   -0.000057657    0.000000000
      9        9          -0.000052489    0.000118890   -0.000000000
 -------------------------------------------------------------------
 Cartesian Forces:  Max     0.007696346 RMS     0.002589065
 NDeriv=     21 NFrqRd=  0 NDerD0=      0 MskFDP=       0 MskDFD=       0 MskDF0=       0
 Re-enter D2Numr:  normal mode  21 step-down number 1
 Max difference between Dipole analytic and numerical normal mode 1st derivatives:
 I=     1 ID=     7 Difference=    2.5192263528D-05
 Max difference between Dipole analytic and numerical normal mode 2nd derivatives:
 I=     2 ID=     1 Difference=    1.0242680692D-03
 Recovering previously computed normal modes.
 Harmonic frequencies (cm**-1), IR intensities (KM/Mole), Raman scattering
 activities (A**4/AMU), depolarization ratios for plane and unpolarized
 incident light, reduced masses (AMU), force constants (mDyne/A),
 and normal coordinates:
                      1                      2                      3
                      A                      A                      A
 Frequencies --    105.4013               226.4628               301.3878
 Red. masses --     14.7364                 9.5904                11.3794
 Frc consts  --      0.0965                 0.2898                 0.6090
 IR Inten    --      0.0308                 4.9957                 3.1361
  Atom  AN      X      Y      Z        X      Y      Z        X      Y      Z
     1   6    -0.00  -0.00   0.17     0.06   0.08   0.00    -0.08  -0.04  -0.00
     2   6     0.00   0.00  -0.17     0.06  -0.17  -0.00    -0.09  -0.07  -0.00
     3   6     0.00   0.00  -0.14    -0.06  -0.11  -0.00    -0.24  -0.04  -0.00
     4   8    -0.00  -0.00   0.32     0.36   0.25   0.00     0.27   0.20   0.00
     5   8     0.00   0.00  -0.54    -0.33  -0.19  -0.00    -0.10   0.02  -0.00
     6   1    -0.00  -0.00   0.37    -0.15   0.21   0.00    -0.32   0.12  -0.00
     7   1     0.00   0.00  -0.03     0.61   0.07   0.00     0.51   0.02   0.00
     8   9     0.00   0.00  -0.29    -0.09  -0.25  -0.00     0.43   0.21   0.00
     9   9    -0.00  -0.00   0.55    -0.00   0.30   0.00    -0.32  -0.31  -0.00
                      4                      5                      6
                      A                      A                      A
 Frequencies --    327.6970               345.8304               469.1805
 Red. masses --     11.2928                 2.8501                11.1540
 Frc consts  --      0.7145                 0.2008                 1.4466
 IR Inten    --      2.6941                 0.2562                 1.4107
  Atom  AN      X      Y      Z        X      Y      Z        X      Y      Z
     1   6    -0.00  -0.00   0.27    -0.00  -0.00   0.28     0.11  -0.25  -0.00
     2   6    -0.00  -0.00   0.70     0.00   0.00  -0.19     0.05  -0.00   0.00
     3   6    -0.00  -0.00   0.22     0.00   0.00  -0.07    -0.15   0.24   0.00
     4   8     0.00   0.00  -0.27     0.00   0.00  -0.15     0.35  -0.19   0.00
     5   8     0.00   0.00  -0.13    -0.00  -0.00   0.11     0.21   0.42   0.00
     6   1    -0.00  -0.00   0.12    -0.00  -0.00   0.80     0.11  -0.25  -0.00
     7   1     0.00   0.00  -0.40     0.00   0.00  -0.45     0.42  -0.24   0.00
     8   9     0.00   0.00  -0.36     0.00   0.00  -0.03    -0.25  -0.17  -0.00
     9   9     0.00   0.00  -0.05    -0.00  -0.00   0.02    -0.26   0.00  -0.00
                      7                      8                      9
                      A                      A                      A
 Frequencies --    573.1445               641.2948               714.2614
 Red. masses --      9.3558                 7.5669                 3.3803
 Frc consts  --      1.8108                 1.8335                 1.0161
 IR Inten    --     14.4873                13.0831                 2.5196
  Atom  AN      X      Y      Z        X      Y      Z        X      Y      Z
     1   6    -0.34  -0.15  -0.00    -0.17  -0.26  -0.00     0.00   0.00  -0.03
     2   6    -0.26  -0.24  -0.00    -0.19   0.12  -0.00     0.00   0.00  -0.16
     3   6    -0.06  -0.13  -0.00     0.06  -0.10  -0.00    -0.00  -0.00   0.40
     4   8    -0.07   0.11   0.00     0.24  -0.11   0.00    -0.00  -0.00   0.06
     5   8     0.41   0.03   0.00    -0.02  -0.15  -0.00     0.00   0.00  -0.10
     6   1    -0.61   0.03  -0.00    -0.15  -0.28  -0.00    -0.00  -0.00   0.08
     7   1     0.12  -0.05   0.00     0.57  -0.36   0.00     0.00   0.00  -0.89
     8   9     0.17  -0.09   0.00    -0.18   0.36   0.00    -0.00  -0.00   0.01
     9   9    -0.01   0.31   0.00     0.16   0.04   0.00     0.00   0.00  -0.07
                     10                     11                     12
                      A                      A                      A
 Frequencies --    726.4734               814.7599               958.7170
 Red. masses --      1.6351                10.0513                 1.2735
 Frc consts  --      0.5084                 3.9313                 0.6897
 IR Inten    --    114.2589                 7.8934                50.8395
  Atom  AN      X      Y      Z        X      Y      Z        X      Y      Z
     1   6    -0.00  -0.00   0.11    -0.29  -0.19  -0.00     0.00   0.00  -0.15
     2   6     0.00   0.00  -0.10    -0.12  -0.07  -0.00    -0.00  -0.00   0.04
     3   6    -0.00  -0.00   0.14     0.05   0.30   0.00    -0.00  -0.00   0.04
     4   8     0.00   0.00  -0.08    -0.01   0.09   0.00    -0.00  -0.00   0.00
     5   8     0.00   0.00  -0.06    -0.27   0.30   0.00     0.00   0.00  -0.01
     6   1     0.00   0.00  -0.14    -0.56  -0.02  -0.00    -0.00  -0.00   0.94
     7   1    -0.00  -0.00   0.96     0.23  -0.12   0.00    -0.00  -0.00   0.30
     8   9     0.00   0.00  -0.00     0.09  -0.18  -0.00     0.00   0.00  -0.01
     9   9     0.00   0.00  -0.02     0.39  -0.17   0.00     0.00   0.00  -0.01
                     13                     14                     15
                      A                      A                      A
 Frequencies --   1163.0204              1270.4950              1314.6263
 Red. masses --      4.5722                 2.2417                 2.7068
 Frc consts  --      3.6438                 2.1319                 2.7562
 IR Inten    --    247.1809               161.9477               182.0258
  Atom  AN      X      Y      Z        X      Y      Z        X      Y      Z
     1   6    -0.12  -0.14  -0.00     0.08  -0.12  -0.00    -0.07   0.19   0.00
     2   6     0.04   0.24   0.00     0.06  -0.12  -0.00    -0.16   0.17   0.00
     3   6     0.35   0.08   0.00    -0.11  -0.03  -0.00    -0.13  -0.07  -0.00
     4   8    -0.08   0.11   0.00    -0.10   0.16   0.00     0.05  -0.08  -0.00
     5   8    -0.02  -0.08  -0.00     0.01   0.03   0.00     0.01   0.01   0.00
     6   1     0.23  -0.38  -0.00     0.70  -0.54   0.00     0.76  -0.35   0.00
     7   1     0.59  -0.40   0.00     0.32  -0.15   0.00     0.31  -0.25   0.00
     8   9     0.04  -0.10  -0.00    -0.03   0.05   0.00     0.06  -0.09  -0.00
     9   9    -0.17   0.01  -0.00     0.04  -0.00   0.00     0.06  -0.00   0.00
                     16                     17                     18
                      A                      A                      A
 Frequencies --   1438.2336              1469.4563              1736.4284
 Red. masses --      1.3806                 6.2221                 5.2245
 Frc consts  --      1.6826                 7.9159                 9.2814
 IR Inten    --     77.9657               256.4078               141.2723
  Atom  AN      X      Y      Z        X      Y      Z        X      Y      Z
     1   6    -0.01   0.09   0.00     0.00  -0.22  -0.00     0.42  -0.09   0.00
     2   6     0.10  -0.05   0.00     0.24   0.42   0.00    -0.39   0.06  -0.00
     3   6    -0.02  -0.04  -0.00    -0.36  -0.08  -0.00    -0.01   0.13   0.00
     4   8    -0.06  -0.05  -0.00    -0.04   0.08   0.00    -0.08   0.04  -0.00
     5   8     0.00   0.03   0.00     0.06  -0.09  -0.00     0.02  -0.08  -0.00
     6   1    -0.29   0.29  -0.00    -0.69   0.22  -0.00    -0.34   0.49   0.00
     7   1     0.68  -0.58   0.00    -0.05   0.09   0.00     0.38  -0.35   0.00
     8   9    -0.01   0.02   0.00     0.02  -0.09  -0.00     0.03  -0.04  -0.00
     9   9     0.00  -0.00   0.00     0.08  -0.00   0.00     0.02   0.00   0.00
                     19                     20                     21
                      A                      A                      A
 Frequencies --   1831.9748              3305.9556              3637.3831
 Red. masses --     11.3815                 1.0940                 1.0655
 Frc consts  --     22.5055                 7.0449                 8.3060
 IR Inten    --    142.6823                 3.3899               103.5645
  Atom  AN      X      Y      Z        X      Y      Z        X      Y      Z
     1   6    -0.17   0.12  -0.00    -0.05  -0.07  -0.00    -0.00  -0.01  -0.00
     2   6     0.11  -0.15  -0.00     0.01  -0.00   0.00    -0.00  -0.00  -0.00
     3   6    -0.21   0.72   0.00     0.00  -0.00  -0.00     0.00   0.01   0.00
     4   8     0.03  -0.05  -0.00     0.00   0.00   0.00    -0.04  -0.05  -0.00
     5   8     0.15  -0.44  -0.00    -0.00   0.00   0.00     0.00  -0.00  -0.00
     6   1     0.20  -0.14   0.00     0.55   0.83   0.00     0.02   0.04   0.00
     7   1     0.15  -0.23  -0.00    -0.03  -0.03  -0.00     0.59   0.80   0.00
     8   9    -0.01   0.02   0.00    -0.00   0.00  -0.00    -0.00   0.00   0.00
     9   9     0.02  -0.02  -0.00    -0.00   0.00  -0.00     0.00  -0.00  -0.00

 -------------------
 - Thermochemistry -
 -------------------
 Temperature   298.150 Kelvin.  Pressure   1.00000 Atm.
 Atom     1 has atomic number  6 and mass  12.00000
 Atom     2 has atomic number  6 and mass  12.00000
 Atom     3 has atomic number  6 and mass  12.00000
 Atom     4 has atomic number  8 and mass  15.99491
 Atom     5 has atomic number  8 and mass  15.99491
 Atom     6 has atomic number  1 and mass   1.00783
 Atom     7 has atomic number  1 and mass   1.00783
 Atom     8 has atomic number  9 and mass  18.99840
 Atom     9 has atomic number  9 and mass  18.99840
 Molecular mass:   108.00229 amu.
 Principal axes and moments of inertia in atomic units:
                           1         2         3
     Eigenvalues --   476.06528 712.394881188.46016
           X            0.99982   0.01919  -0.00000
           Y           -0.01919   0.99982  -0.00000
           Z            0.00000   0.00000   1.00000
 This molecule is an asymmetric top.
 Rotational symmetry number  1.
 Warning -- assumption of classical behavior for rotation
           may cause significant error
 Rotational temperatures (Kelvin)      0.18194     0.12158     0.07288
 Rotational constants (GHZ):           3.79095     2.53334     1.51855
 Zero-point vibrational energy     139796.7 (Joules/Mol)
                                   33.41221 (Kcal/Mol)
 Warning -- explicit consideration of   7 degrees of freedom as
           vibrations may cause significant error
 Vibrational temperatures:    151.65   325.83   433.63   471.48   497.57
          (Kelvin)            675.05   824.63   922.68  1027.66  1045.23
                             1172.26  1379.38  1673.33  1827.96  1891.45
                             2069.30  2114.22  2498.33  2635.80  4756.53
                             5233.38
 
 Zero-point correction=                           0.053246 (Hartree/Particle)
 Thermal correction to Energy=                    0.059440
 Thermal correction to Enthalpy=                  0.060385
 Thermal correction to Gibbs Free Energy=         0.022756
 Sum of electronic and zero-point Energies=           -464.376447
 Sum of electronic and thermal Energies=              -464.370252
 Sum of electronic and thermal Enthalpies=            -464.369308
 Sum of electronic and thermal Free Energies=         -464.406937
 
                     E (Thermal)             CV                S
                      KCal/Mol        Cal/Mol-Kelvin    Cal/Mol-Kelvin
 Total                   37.299             21.334             79.197
 Electronic               0.000              0.000              0.000
 Translational            0.889              2.981             39.947
 Rotational               0.889              2.981             27.491
 Vibrational             35.522             15.372             11.759
 Vibration     1          0.605              1.945              3.352
 Vibration     2          0.650              1.801              1.907
 Vibration     3          0.693              1.671              1.409
 Vibration     4          0.711              1.620              1.271
 Vibration     5          0.724              1.584              1.185
 Vibration     6          0.826              1.318              0.740
 Vibration     7          0.929              1.089              0.498
                       Q            Log10(Q)             Ln(Q)
 Total Bot       0.341324D-10        -10.466834        -24.100775
 Total V=0       0.105801D+15         14.024491         32.292584
 Vib (Bot)       0.340433D-23        -23.467968        -54.036994
 Vib (Bot)    1  0.194502D+01          0.288924          0.665272
 Vib (Bot)    2  0.871052D+00         -0.059956         -0.138053
 Vib (Bot)    3  0.630509D+00         -0.200309         -0.461228
 Vib (Bot)    4  0.570985D+00         -0.243376         -0.560393
 Vib (Bot)    5  0.534934D+00         -0.271700         -0.625612
 Vib (Bot)    6  0.359756D+00         -0.443992         -1.022330
 Vib (Bot)    7  0.267693D+00         -0.572363         -1.317915
 Vib (V=0)       0.105525D+02          1.023356          2.356365
 Vib (V=0)    1  0.250826D+01          0.399372          0.919589
 Vib (V=0)    2  0.150436D+01          0.177351          0.408365
 Vib (V=0)    3  0.130470D+01          0.115511          0.265973
 Vib (V=0)    4  0.125896D+01          0.100013          0.230288
 Vib (V=0)    5  0.123223D+01          0.090690          0.208822
 Vib (V=0)    6  0.111597D+01          0.047654          0.109728
 Vib (V=0)    7  0.106715D+01          0.028226          0.064992
 Electronic      0.100000D+01          0.000000          0.000000
 Translational   0.441167D+08          7.644603         17.602350
 Rotational      0.227264D+06          5.356532         12.333870
 ***** Axes restored to original set *****
 -------------------------------------------------------------------
 Center     Atomic                   Forces (Hartrees/Bohr)
 Number     Number              X              Y              Z
 -------------------------------------------------------------------
      1        6           0.000010360    0.000006817    0.000000001
      2        6           0.000017755   -0.000019244   -0.000000001
      3        6          -0.000005392    0.000011170    0.000000001
      4        8          -0.000016763    0.000001353    0.000000000
      5        8          -0.000004570   -0.000009023   -0.000000000
      6        1           0.000000612    0.000000942   -0.000000001
      7        1           0.000005800    0.000000433   -0.000000000
      8        9           0.000003163   -0.000003528    0.000000000
      9        9          -0.000010965    0.000011079   -0.000000000
 -------------------------------------------------------------------
 Cartesian Forces:  Max     0.000019244 RMS     0.000007885

 **********************************************************************

             Second-order Perturbative Anharmonic Analysis

 **********************************************************************

     ==================================================
                      Reference System
     ==================================================

 NOTE: The system is set in Eckart orientation for the anharmonic
       treatment.
 
 Atom           X                  Y                  Z
 ----------------------------------------------------------------
  C       1.4874502899458    0.5901865895974    0.0000000002371
  C       0.1340276647123    0.6277282328799    0.0000000016202
  C      -0.6631835822276   -0.5815745134089   -0.0000000017695
  O       2.2319797135318   -0.5220445280496   -0.0000000011023
  O      -0.2134517295402   -1.7117678495231    0.0000000009689
  H       2.0609349605324    1.5065278035981    0.0000000128526
  H       1.6226788300870   -1.2882583523084   -0.0000000014883
  F      -0.5114891003251    1.8183340416447   -0.0000000008249
  F      -1.9886238223958   -0.3511803652216    0.0000000002789
 ----------------------------------------------------------------

     ==================================================
               Analysis of the Rotor Symmetry
     ==================================================

 Framework Group : C1  
 Rotor Type      : Asymmetric Top
 Asymm. param.   : Kappa = -0.106856
 Inertia moments : X=   476.06528 , Y=   712.39488 , Z=  1188.46016
 Representation  : IIIr Representation, Ix < Iy < Iz

 Axes Definition for the Symmetric-Top Representation
 ----------------------------------------------------
 Axis Z automatically chosen to be collinear with Z from Eckart orient.
 NOTE: In Vibro-rotational analysis, this will be referred to as the
       spectroscopic orientation.

     ==================================================
                   Data Source Definition
     ==================================================

 Main data sources
 -----------------
 Harmonic data taken from: current calculation
 Anharmonic data taken from: current calculation

     ==================================================
           Input Data Extraction and Preparation
     ==================================================

 Data for Harmonic Potential Energy Surface
 ------------------------------------------

 Definition of the model system: Active modes
 --------------------------------------------
 The 21 Active Modes are:
     1     2     3     4     5     6     7     8     9    10    11    12    13
    14    15    16    17    18    19    20    21

 Data for Anharmonic Potential Energy Surface
 --------------------------------------------
 ERROR: Missing anharmonic PES.
 Error termination via Lnk1e in /sw/contrib/gaussian/g16/A03/g16/l717.exe at Tue Oct 27 14:26:20 2020.
 Job cpu time:       1 days  6 hours 52 minutes 24.4 seconds.
 Elapsed time:       0 days  1 hours  7 minutes 54.8 seconds.
 File lengths (MBytes):  RWF=   1460 Int=      0 D2E=      0 Chk=     48 Scr=      8
