 argument  1 = 13C.nw
 


============================== echo of input deck ==============================
echo
start 13C
title "F,H,F Chelate"
charge 0

geometry
 zmatrix
  O
  C  1  R1
  C  2  R2  1  A1
  C  3  R3  2  A2  1  D0
  O  4  R4  3  A3  2  D0
  H  1  R5  2  A4  3  D0
  F  2  R6  3  A5  4  D180
  H  3  R7  2  A6  1  D180
  F  4  R8  3  A7  2  D180
  variables
    R1  1.329
    R2  1.363
    A1  124.5
    R3  1.440
    A2  119.5
    R4  1.249
    A3  123.5
    R5  0.994
    A4  105.4
    R6  1.385
    A5  122.5
    R7  1.078
    A6  120.0
    R8  1.399
    A7  117.6
  constants
    D0  0.000
    D180 180.0
 end
end

basis spherical
 * library aug-cc-pVDZ
end

set lindep:n_dep 0

set cphf:maxsub 95
set cphf:maxiter 999
set int:acc_std 1d-16
set fock:densityscreen f

scf
 maxiter 99
 vectors input atomic
 thresh 1d-9
 tol2e 1d-15
end

mp2
 freeze atomic
 tight
end

driver
 clear
 maxiter 99
 tight
end

set "mp2:aotol2e fock" 1d-15
set mp2:aotol2e 1d-15
set mp2:backtol 1d-15


task mp2 optimize
task mp2 frequencies


================================================================================


                                         
                                         
 
 
             Northwest Computational Chemistry Package (NWChem) 7.0.0
             --------------------------------------------------------
 
 
                    Environmental Molecular Sciences Laboratory
                       Pacific Northwest National Laboratory
                                Richland, WA 99352
 
                              Copyright (c) 1994-2020
                       Pacific Northwest National Laboratory
                            Battelle Memorial Institute
 
             NWChem is an open-source computational chemistry package
                        distributed under the terms of the
                      Educational Community License (ECL) 2.0
             A copy of the license is included with this distribution
                              in the LICENSE.TXT file
 
                                  ACKNOWLEDGMENT
                                  --------------

            This software and its documentation were developed at the
            EMSL at Pacific Northwest National Laboratory, a multiprogram
            national laboratory, operated for the U.S. Department of Energy
            by Battelle under Contract Number DE-AC05-76RL01830. Support
            for this work was provided by the Department of Energy Office
            of Biological and Environmental Research, Office of Basic
            Energy Sciences, and the Office of Advanced Scientific Computing.


           Job information
           ---------------

    hostname        = compute-0-25.local
    program         = /scratch/nwchem.277679
    date            = Sun Apr  4 16:03:57 2021

    compiled        = Wed_Mar_31_13:42:43_2021
    source          = /home/edo/nwchem-7.0.1
    nwchem branch   = 7.0.1
    nwchem revision = de46fdf
    ga revision     = 5.7.1
    use scalapack   = T
    input           = 13C.nw
    prefix          = 13C.
    data base       = ./13C.db
    status          = startup
    nproc           =       11
    time left       =     -1s



           Memory information
           ------------------

    heap     =  215205461 doubles =   1641.9 Mbytes
    stack    =  215205455 doubles =   1641.9 Mbytes
    global   =  122974549 doubles =    938.2 Mbytes (distinct from heap & stack)
    total    =  553385465 doubles =   4222.0 Mbytes
    verify   = yes
    hardfail = no 


           Directory information
           ---------------------
 
  0 permanent = .
  0 scratch   = /scratch
 
 
 
 
                                NWChem Input Module
                                -------------------
 
 
                                   F,H,F Chelate
                                   -------------

 Scaling coordinates for geometry "geometry" by  1.889725989
 (inverse scale =  0.529177249)

 CS  symmetry detected
 
 
                             Geometry "geometry" -> ""
                             -------------------------
 
 Output coordinates in angstroms (scale by  1.889725989 to convert to a.u.)
 
  No.       Tag          Charge          X              Y              Z
 ---- ---------------- ---------- -------------- -------------- --------------
    1 O                    8.0000    -1.21513077    -1.30544217     0.00000000
    2 C                    6.0000     0.10848016    -1.18588003     0.00000000
    3 C                    6.0000     0.77630625     0.00230233     0.00000000
    4 C                    6.0000     0.03117442     1.23452737     0.00000000
    5 O                    8.0000    -1.21678545     1.28548978     0.00000000
    6 H                    1.0000    -1.56423666    -0.37476442     0.00000000
    7 F                    9.0000     0.76214339    -2.40692441     0.00000000
    8 H                    1.0000     1.85423440     0.01474861     0.00000000
    9 F                    9.0000     0.75669740     2.43069517     0.00000000
 
      Atomic Mass 
      ----------- 
 
      O                 15.994910
      C                 12.000000
      H                  1.007825
      F                 18.998400
 

 Effective nuclear repulsion energy (a.u.)     293.8955179572

            Nuclear Dipole moment (a.u.) 
            ----------------------------
        X                 Y               Z
 ---------------- ---------------- ----------------
    -0.0000000000    -0.0000000000     0.0000000000
 
      Symmetry information
      --------------------
 
 Group name             Cs        
 Group number              2
 Group order               2
 No. of unique centers     9
 
      Symmetry unique atoms
 
     1    2    3    4    5    6    7    8    9
 


                                Z-matrix (user)
                                -------- 

 Units are Angstrom for bonds and degrees for angles

  Constants are marked with an asterisk (*).

  Constrained variables are marked with a plus sign (+).

 
      Type          Name      I     J     K     L     M      Value
      ----------- --------  ----- ----- ----- ----- ----- ----------
    1 Stretch      R1          2     1                       1.32900
    2 Stretch      R2          3     2                       1.36300
    3 Bend         A1          3     2     1               124.50000
    4 Stretch      R3          4     3                       1.44000
    5 Bend         A2          4     3     2               119.50000
    6*Torsion      D0          4     3     2     1           0.00000
    7 Stretch      R4          5     4                       1.24900
    8 Bend         A3          5     4     3               123.50000
    9*Torsion      D0          5     4     3     2           0.00000
   10 Stretch      R5          6     1                       0.99400
   11 Bend         A4          6     1     2               105.40000
   12*Torsion      D0          6     1     2     3           0.00000
   13 Stretch      R6          7     2                       1.38500
   14 Bend         A5          7     2     3               122.50000
   15*Torsion      D180        7     2     3     4         180.00000
   16 Stretch      R7          8     3                       1.07800
   17 Bend         A6          8     3     2               120.00000
   18*Torsion      D180        8     3     2     1         180.00000
   19 Stretch      R8          9     4                       1.39900
   20 Bend         A7          9     4     3               117.60000
   21*Torsion      D180        9     4     3     2         180.00000
 
 
            XYZ format geometry
            -------------------
     9
 geometry
 O                    -1.21513077    -1.30544217     0.00000000
 C                     0.10848016    -1.18588003     0.00000000
 C                     0.77630625     0.00230233     0.00000000
 C                     0.03117442     1.23452737     0.00000000
 O                    -1.21678545     1.28548978     0.00000000
 H                    -1.56423666    -0.37476442     0.00000000
 F                     0.76214339    -2.40692441     0.00000000
 H                     1.85423440     0.01474861     0.00000000
 F                     0.75669740     2.43069517     0.00000000
 
 ==============================================================================
                                internuclear distances
 ------------------------------------------------------------------------------
       center one      |      center two      | atomic units |  angstroms
 ------------------------------------------------------------------------------
    2 C                |   1 O                |     2.51145  |     1.32900
    3 C                |   2 C                |     2.57570  |     1.36300
    4 C                |   3 C                |     2.72121  |     1.44000
    5 O                |   4 C                |     2.36027  |     1.24900
    6 H                |   1 O                |     1.87839  |     0.99400
    7 F                |   2 C                |     2.61727  |     1.38500
    8 H                |   3 C                |     2.03712  |     1.07800
    9 F                |   4 C                |     2.64373  |     1.39900
 ------------------------------------------------------------------------------
                         number of included internuclear distances:          8
 ==============================================================================



 ==============================================================================
                                 internuclear angles
 ------------------------------------------------------------------------------
        center 1       |       center 2       |       center 3       |  degrees
 ------------------------------------------------------------------------------
    2 C                |   1 O                |   6 H                |   105.40
    1 O                |   2 C                |   3 C                |   124.50
    1 O                |   2 C                |   7 F                |   113.00
    3 C                |   2 C                |   7 F                |   122.50
    2 C                |   3 C                |   4 C                |   119.50
    2 C                |   3 C                |   8 H                |   120.00
    4 C                |   3 C                |   8 H                |   120.50
    3 C                |   4 C                |   5 O                |   123.50
    3 C                |   4 C                |   9 F                |   117.60
    5 O                |   4 C                |   9 F                |   118.90
 ------------------------------------------------------------------------------
                            number of included internuclear angles:         10
 ==============================================================================





 Summary of "ao basis" -> "" (spherical)
 ------------------------------------------------------------------------------
       Tag                 Description            Shells   Functions and Types
 ---------------- ------------------------------  ------  ---------------------
 *                        aug-cc-pVDZ                 on all atoms 


 
  Deleted DRIVER restart files 
 
 
 
                           NWChem Geometry Optimization
                           ----------------------------
 
 
 
 
                                   F,H,F Chelate
 
 
 maximum gradient threshold         (gmax) =   0.000015
 rms gradient threshold             (grms) =   0.000010
 maximum cartesian step threshold   (xmax) =   0.000060
 rms cartesian step threshold       (xrms) =   0.000040
 fixed trust radius                (trust) =   0.300000
 maximum step size to saddle      (sadstp) =   0.100000
 energy precision                  (eprec) =   1.0D-07
 maximum number of steps          (nptopt) =   99
 initial hessian option           (inhess) =    0
 line search option               (linopt) =    1
 hessian update option            (modupd) =    1
 saddle point option              (modsad) =    0
 initial eigen-mode to follow     (moddir) =    0
 initial variable to follow       (vardir) =    0
 follow first negative mode     (firstneg) =    T
 apply conjugacy                    (opcg) =    F
 source of zmatrix                         =   user    


          -------------------
          Energy Minimization
          -------------------

 
 Names of Z-matrix variables 
    1 R1           2 R2           3 A1           4 R3           5 A2      
    6 D0           7 R4           8 A3           9 D0          10 R5      
   11 A4          12 D0          13 R6          14 A5          15 D180    
   16 R7          17 A6          18 D180        19 R8          20 A7      
   21 D180    
 
 Variables with the same non-blank name are constrained to be equal
 
     variables named       D0 =     6    9   12 
     variables named     D180 =    15   18   21 

 Number of frozen variables =    6
           Frozen variables =    6    9   12   15   18   21
 
 Using diagonal initial Hessian 
 Scaling for Hessian diagonals: bonds = 1.00  angles = 0.25  torsions = 0.10

          --------
          Step   0
          --------
 
 
                         Geometry "geometry" -> "geometry"
                         ---------------------------------
 
 Output coordinates in angstroms (scale by  1.889725989 to convert to a.u.)
 
  No.       Tag          Charge          X              Y              Z
 ---- ---------------- ---------- -------------- -------------- --------------
    1 O                    8.0000    -1.21513077    -1.30544217     0.00000000
    2 C                    6.0000     0.10848016    -1.18588003     0.00000000
    3 C                    6.0000     0.77630625     0.00230233     0.00000000
    4 C                    6.0000     0.03117442     1.23452737     0.00000000
    5 O                    8.0000    -1.21678545     1.28548978     0.00000000
    6 H                    1.0000    -1.56423666    -0.37476442     0.00000000
    7 F                    9.0000     0.76214339    -2.40692441     0.00000000
    8 H                    1.0000     1.85423440     0.01474861     0.00000000
    9 F                    9.0000     0.75669740     2.43069517     0.00000000
 
      Atomic Mass 
      ----------- 
 
      O                 15.994910
      C                 12.000000
      H                  1.007825
      F                 18.998400
 

 Effective nuclear repulsion energy (a.u.)     293.8955179572

            Nuclear Dipole moment (a.u.) 
            ----------------------------
        X                 Y               Z
 ---------------- ---------------- ----------------
    -0.0000000000    -0.0000000000     0.0000000000
 
      Symmetry information
      --------------------
 
 Group name             Cs        
 Group number              2
 Group order               2
 No. of unique centers     9
 
      Symmetry unique atoms
 
     1    2    3    4    5    6    7    8    9
 
                      Basis "ao basis" -> "ao basis" (spherical)
                      -----
  O (Oxygen)
  ----------
            Exponent  Coefficients 
       -------------- ---------------------------------------------------------
  1 S  1.17200000E+04  0.000710
  1 S  1.75900000E+03  0.005470
  1 S  4.00800000E+02  0.027837
  1 S  1.13700000E+02  0.104800
  1 S  3.70300000E+01  0.283062
  1 S  1.32700000E+01  0.448719
  1 S  5.02500000E+00  0.270952
  1 S  1.01300000E+00  0.015458
 
  2 S  1.17200000E+04 -0.000160
  2 S  1.75900000E+03 -0.001263
  2 S  4.00800000E+02 -0.006267
  2 S  1.13700000E+02 -0.025716
  2 S  3.70300000E+01 -0.070924
  2 S  1.32700000E+01 -0.165411
  2 S  5.02500000E+00 -0.116955
  2 S  1.01300000E+00  0.557368
 
  3 S  3.02300000E-01  1.000000
 
  4 S  7.89600000E-02  1.000000
 
  5 P  1.77000000E+01  0.043018
  5 P  3.85400000E+00  0.228913
  5 P  1.04600000E+00  0.508728
 
  6 P  2.75300000E-01  1.000000
 
  7 P  6.85600000E-02  1.000000
 
  8 D  1.18500000E+00  1.000000
 
  9 D  3.32000000E-01  1.000000
 
  C (Carbon)
  ----------
            Exponent  Coefficients 
       -------------- ---------------------------------------------------------
  1 S  6.66500000E+03  0.000692
  1 S  1.00000000E+03  0.005329
  1 S  2.28000000E+02  0.027077
  1 S  6.47100000E+01  0.101718
  1 S  2.10600000E+01  0.274740
  1 S  7.49500000E+00  0.448564
  1 S  2.79700000E+00  0.285074
  1 S  5.21500000E-01  0.015204
 
  2 S  6.66500000E+03 -0.000146
  2 S  1.00000000E+03 -0.001154
  2 S  2.28000000E+02 -0.005725
  2 S  6.47100000E+01 -0.023312
  2 S  2.10600000E+01 -0.063955
  2 S  7.49500000E+00 -0.149981
  2 S  2.79700000E+00 -0.127262
  2 S  5.21500000E-01  0.544529
 
  3 S  1.59600000E-01  1.000000
 
  4 S  4.69000000E-02  1.000000
 
  5 P  9.43900000E+00  0.038109
  5 P  2.00200000E+00  0.209480
  5 P  5.45600000E-01  0.508557
 
  6 P  1.51700000E-01  1.000000
 
  7 P  4.04100000E-02  1.000000
 
  8 D  5.50000000E-01  1.000000
 
  9 D  1.51000000E-01  1.000000
 
  H (Hydrogen)
  ------------
            Exponent  Coefficients 
       -------------- ---------------------------------------------------------
  1 S  1.30100000E+01  0.019685
  1 S  1.96200000E+00  0.137977
  1 S  4.44600000E-01  0.478148
 
  2 S  1.22000000E-01  1.000000
 
  3 S  2.97400000E-02  1.000000
 
  4 P  7.27000000E-01  1.000000
 
  5 P  1.41000000E-01  1.000000
 
  F (Fluorine)
  ------------
            Exponent  Coefficients 
       -------------- ---------------------------------------------------------
  1 S  1.47100000E+04  0.000721
  1 S  2.20700000E+03  0.005553
  1 S  5.02800000E+02  0.028267
  1 S  1.42600000E+02  0.106444
  1 S  4.64700000E+01  0.286814
  1 S  1.67000000E+01  0.448641
  1 S  6.35600000E+00  0.264761
  1 S  1.31600000E+00  0.015333
 
  2 S  1.47100000E+04 -0.000165
  2 S  2.20700000E+03 -0.001308
  2 S  5.02800000E+02 -0.006495
  2 S  1.42600000E+02 -0.026691
  2 S  4.64700000E+01 -0.073690
  2 S  1.67000000E+01 -0.170776
  2 S  6.35600000E+00 -0.112327
  2 S  1.31600000E+00  0.562814
 
  3 S  3.89700000E-01  1.000000
 
  4 S  9.86300000E-02  1.000000
 
  5 P  2.26700000E+01  0.044878
  5 P  4.97700000E+00  0.235718
  5 P  1.34700000E+00  0.508521
 
  6 P  3.47100000E-01  1.000000
 
  7 P  8.50200000E-02  1.000000
 
  8 D  1.64000000E+00  1.000000
 
  9 D  4.64000000E-01  1.000000
 


 Summary of "ao basis" -> "ao basis" (spherical)
 ------------------------------------------------------------------------------
       Tag                 Description            Shells   Functions and Types
 ---------------- ------------------------------  ------  ---------------------
 O                        aug-cc-pVDZ                9       23   4s3p2d
 C                        aug-cc-pVDZ                9       23   4s3p2d
 H                        aug-cc-pVDZ                5        9   3s2p
 F                        aug-cc-pVDZ                9       23   4s3p2d


                                 NWChem SCF Module
                                 -----------------
 
 
                                   F,H,F Chelate
 
 

  ao basis        = "ao basis"
  functions       =   179
  atoms           =     9
  closed shells   =    27
  open shells     =     0
  charge          =   0.00
  wavefunction    = RHF 
  input vectors   = atomic
  output vectors  = ./13C.movecs
  use symmetry    = T
  symmetry adapt  = T


 Summary of "ao basis" -> "ao basis" (spherical)
 ------------------------------------------------------------------------------
       Tag                 Description            Shells   Functions and Types
 ---------------- ------------------------------  ------  ---------------------
 O                        aug-cc-pVDZ                9       23   4s3p2d
 C                        aug-cc-pVDZ                9       23   4s3p2d
 H                        aug-cc-pVDZ                5        9   3s2p
 F                        aug-cc-pVDZ                9       23   4s3p2d


      Symmetry analysis of basis
      --------------------------
 
        a'        126
        a"         53
 

int_init: setting std/high accuracies to  1.0D-16  1.0D-32

 Forming initial guess at       1.1s


 Forcing the number of linearly dependent vectors to be  0
 
      Superposition of Atomic Density Guess
      -------------------------------------
 
 Sum of atomic energies:        -462.31053347
 
      Non-variational initial energy
      ------------------------------

 Total energy =    -464.989339
 1-e energy   =   -1221.366167
 2-e energy   =     462.481310
 HOMO         =      -0.291454
 LUMO         =      -0.007645
 
 
      Symmetry analysis of molecular orbitals - initial
      -------------------------------------------------
 
  Numbering of irreducible representations: 
 
     1 a'          2 a"      
 
  Orbital symmetries:
 
     1 a'          2 a'          3 a'          4 a'          5 a'      
     6 a'          7 a'          8 a'          9 a'         10 a'      
    11 a'         12 a'         13 a'         14 a'         15 a'      
    16 a'         17 a"         18 a'         19 a"         20 a'      
    21 a'         22 a"         23 a'         24 a"         25 a'      
    26 a'         27 a"         28 a"         29 a'         30 a'      
    31 a'         32 a'         33 a"         34 a'         35 a'      
    36 a"         37 a"      
 

 Starting SCF solution at       3.2s



 ----------------------------------------------
         Quadratically convergent ROHF

 Convergence threshold     :          1.000E-09
 Maximum no. of iterations :           99
 Final Fock-matrix accuracy:          1.000E-15
 ----------------------------------------------

 Warning: symmetry breaking in RHF:   3.174281734393186E-014

              iter       energy          gnorm     gmax       time
             ----- ------------------- --------- --------- --------
                 1     -463.2202966189  1.85D+00  2.66D-01      5.2
 Warning: symmetry breaking in RHF:   3.962813187604894E-014
 Warning: symmetry breaking in RHF:   3.662043843133327E-014
                 2     -463.3951909245  4.72D-01  5.34D-02      9.7
 Warning: symmetry breaking in RHF:   3.460922563514250E-014
                 3     -463.4165062106  2.11D-02  5.31D-03     17.6
 Warning: symmetry breaking in RHF:   3.461347651957923E-014
                 4     -463.4165994435  3.55D-04  5.16D-05     29.5
 Warning: symmetry breaking in RHF:   3.461417498426606E-014
                 5     -463.4165994570  8.75D-08  1.78D-08     47.9
 Warning: symmetry breaking in RHF:   3.461417527144890E-014
                 6     -463.4165994570  6.90D-11  2.29D-11     63.6


       Final RHF  results 
       ------------------ 

         Total SCF energy =   -463.416599456956
      One-electron energy =  -1222.530447692113
      Two-electron energy =    465.218330277956
 Nuclear repulsion energy =    293.895517957201

        Time for solution =     60.6s


 
       Symmetry analysis of molecular orbitals - final
       -----------------------------------------------
 
  Numbering of irreducible representations: 
 
     1 a'          2 a"      
 
  Orbital symmetries:
 
     1 a'          2 a'          3 a'          4 a'          5 a'      
     6 a'          7 a'          8 a'          9 a'         10 a'      
    11 a'         12 a'         13 a'         14 a'         15 a'      
    16 a'         17 a"         18 a'         19 a"         20 a'      
    21 a'         22 a'         23 a"         24 a'         25 a"      
    26 a'         27 a"         28 a'         29 a'         30 a"      
    31 a'         32 a"         33 a'         34 a'         35 a'      
    36 a"         37 a"      
 
             Final eigenvalues
             -----------------

              1      
    1  -26.3873
    2  -26.3652
    3  -20.6622
    4  -20.6131
    5  -11.4876
    6  -11.4791
    7  -11.2894
    8   -1.6821
    9   -1.6593
   10   -1.4825
   11   -1.4252
   12   -1.1201
   13   -0.9433
   14   -0.8832
   15   -0.7979
   16   -0.7733
   17   -0.7500
   18   -0.7328
   19   -0.7247
   20   -0.7207
   21   -0.6974
   22   -0.6429
   23   -0.6261
   24   -0.6112
   25   -0.5645
   26   -0.5163
   27   -0.4096
   28    0.0311
   29    0.0527
   30    0.0595
   31    0.0717
   32    0.0903
   33    0.0975
   34    0.1129
   35    0.1207
   36    0.1243
   37    0.1322
 
                       ROHF Final Molecular Orbital Analysis
                       -------------------------------------
 
 Vector   10  Occ=2.000000D+00  E=-1.482514D+00  Symmetry=a'
              MO Center= -9.3D-01, -1.0D+00,  1.1D-17, r^2= 1.1D+00
   Bfn.  Coefficient  Atom+Function         Bfn.  Coefficient  Atom+Function  
  ----- ------------  ---------------      ----- ------------  ---------------
     3      0.433186  1 O  s                  2      0.391182  1 O  s          
   116      0.163554  6 H  s          
 
 Vector   11  Occ=2.000000D+00  E=-1.425244D+00  Symmetry=a'
              MO Center= -8.5D-01,  1.1D+00, -7.4D-34, r^2= 1.2D+00
   Bfn.  Coefficient  Atom+Function         Bfn.  Coefficient  Atom+Function  
  ----- ------------  ---------------      ----- ------------  ---------------
    95      0.425735  5 O  s                 94      0.383226  5 O  s          
    72      0.223671  4 C  s                 71      0.189914  4 C  s          
    55     -0.186125  3 C  py                74     -0.186277  4 C  px         
    26     -0.179259  2 C  s                  3     -0.150516  1 O  s          
 
 Vector   12  Occ=2.000000D+00  E=-1.120113D+00  Symmetry=a'
              MO Center=  3.9D-01, -1.8D-01,  4.9D-17, r^2= 1.6D+00
   Bfn.  Coefficient  Atom+Function         Bfn.  Coefficient  Atom+Function  
  ----- ------------  ---------------      ----- ------------  ---------------
    48      0.318656  3 C  s                 25      0.212047  2 C  s          
    50     -0.175575  3 C  s                 26      0.172599  2 C  s          
    49      0.163714  3 C  s          
 
 Vector   13  Occ=2.000000D+00  E=-9.432767D-01  Symmetry=a'
              MO Center=  1.8D-01, -3.7D-01,  2.9D-17, r^2= 3.8D+00
   Bfn.  Coefficient  Atom+Function         Bfn.  Coefficient  Atom+Function  
  ----- ------------  ---------------      ----- ------------  ---------------
    26      0.289697  2 C  s                 25      0.262552  2 C  s          
   130      0.224147  7 F  py                72     -0.220178  4 C  s          
    52     -0.203727  3 C  py                27     -0.201884  2 C  s          
    71     -0.202073  4 C  s                  5      0.172029  1 O  px         
   162      0.172597  9 F  py         
 
 Vector   14  Occ=2.000000D+00  E=-8.831995D-01  Symmetry=a'
              MO Center= -1.2D-01,  1.9D-02,  1.6D-31, r^2= 4.4D+00
   Bfn.  Coefficient  Atom+Function         Bfn.  Coefficient  Atom+Function  
  ----- ------------  ---------------      ----- ------------  ---------------
   162      0.225989  9 F  py               129      0.202208  7 F  px         
   116      0.198447  6 H  s                 29      0.196946  2 C  py         
     5     -0.195683  1 O  px                71     -0.195568  4 C  s          
     6      0.193580  1 O  py                28      0.153400  2 C  px         
 
 Vector   15  Occ=2.000000D+00  E=-7.979060D-01  Symmetry=a'
              MO Center=  1.7D-01, -2.8D-01, -2.9D-17, r^2= 4.8D+00
   Bfn.  Coefficient  Atom+Function         Bfn.  Coefficient  Atom+Function  
  ----- ------------  ---------------      ----- ------------  ---------------
   130      0.311182  7 F  py                28      0.241020  2 C  px         
   161     -0.241642  9 F  px                 5     -0.239001  1 O  px         
    75      0.227674  4 C  py               133      0.210386  7 F  py         
    50      0.197683  3 C  s                162     -0.182090  9 F  py         
    27     -0.164533  2 C  s                164     -0.157055  9 F  px         
 
 Vector   16  Occ=2.000000D+00  E=-7.733136D-01  Symmetry=a'
              MO Center=  2.5D-01, -2.4D-02,  9.7D-33, r^2= 4.5D+00
   Bfn.  Coefficient  Atom+Function         Bfn.  Coefficient  Atom+Function  
  ----- ------------  ---------------      ----- ------------  ---------------
   161      0.295988  9 F  px                29     -0.239969  2 C  py         
   129     -0.214422  7 F  px               130      0.205933  7 F  py         
   164      0.200816  9 F  px                52      0.157862  3 C  py         
    97     -0.158647  5 O  px         
 
 Vector   17  Occ=2.000000D+00  E=-7.500069D-01  Symmetry=a"
              MO Center=  5.1D-01, -1.9D+00, -8.6D-16, r^2= 1.8D+00
   Bfn.  Coefficient  Atom+Function         Bfn.  Coefficient  Atom+Function  
  ----- ------------  ---------------      ----- ------------  ---------------
   131      0.564591  7 F  pz               134      0.383302  7 F  pz         
    30      0.195596  2 C  pz                 7      0.162630  1 O  pz         
 
 Vector   18  Occ=2.000000D+00  E=-7.328422D-01  Symmetry=a'
              MO Center= -5.1D-02,  1.5D-01,  2.3D-16, r^2= 4.0D+00
   Bfn.  Coefficient  Atom+Function         Bfn.  Coefficient  Atom+Function  
  ----- ------------  ---------------      ----- ------------  ---------------
    72      0.287208  4 C  s                 50      0.273365  3 C  s          
    97      0.248540  5 O  px               130      0.244341  7 F  py         
   149     -0.243641  8 H  s                 27     -0.236691  2 C  s          
    95     -0.225546  5 O  s                148     -0.208887  8 H  s          
    51     -0.193008  3 C  px                98     -0.168708  5 O  py         
 
 Vector   19  Occ=2.000000D+00  E=-7.246821D-01  Symmetry=a"
              MO Center=  5.7D-01,  2.0D+00, -4.9D-16, r^2= 1.9D+00
   Bfn.  Coefficient  Atom+Function         Bfn.  Coefficient  Atom+Function  
  ----- ------------  ---------------      ----- ------------  ---------------
   163      0.579547  9 F  pz               166      0.396252  9 F  pz         
    76      0.184802  4 C  pz               131     -0.151096  7 F  pz         
 
 Vector   20  Occ=2.000000D+00  E=-7.206618D-01  Symmetry=a'
              MO Center= -4.5D-02,  7.0D-01,  1.1D-16, r^2= 4.3D+00
   Bfn.  Coefficient  Atom+Function         Bfn.  Coefficient  Atom+Function  
  ----- ------------  ---------------      ----- ------------  ---------------
    50      0.370053  3 C  s                162     -0.355616  9 F  py         
    73     -0.259207  4 C  s                  6      0.243461  1 O  py         
   165     -0.244171  9 F  py                97     -0.209110  5 O  px         
    27     -0.190291  2 C  s                 74      0.184528  4 C  px         
   148     -0.177930  8 H  s                  3     -0.162413  1 O  s          
 
 Vector   21  Occ=2.000000D+00  E=-6.974366D-01  Symmetry=a'
              MO Center=  3.7D-01, -1.4D+00,  2.3D-17, r^2= 3.9D+00
   Bfn.  Coefficient  Atom+Function         Bfn.  Coefficient  Atom+Function  
  ----- ------------  ---------------      ----- ------------  ---------------
   129      0.519892  7 F  px               132      0.365560  7 F  px         
   161      0.240884  9 F  px                 6     -0.199792  1 O  py         
   130      0.186398  7 F  py               164      0.165944  9 F  px         
   149      0.164491  8 H  s                116     -0.159357  6 H  s          
 
 Vector   22  Occ=2.000000D+00  E=-6.428999D-01  Symmetry=a'
              MO Center=  1.5D-01,  8.8D-01,  1.2D-17, r^2= 4.0D+00
   Bfn.  Coefficient  Atom+Function         Bfn.  Coefficient  Atom+Function  
  ----- ------------  ---------------      ----- ------------  ---------------
   161      0.367263  9 F  px               164      0.264339  9 F  px         
    97      0.251372  5 O  px               162     -0.240351  9 F  py         
    52     -0.223697  3 C  py                74     -0.211497  4 C  px         
   130     -0.174554  7 F  py               165     -0.174722  9 F  py         
   129     -0.157337  7 F  px         
 
 Vector   23  Occ=2.000000D+00  E=-6.260961D-01  Symmetry=a"
              MO Center= -6.0D-01, -1.1D+00,  5.3D-17, r^2= 2.4D+00
   Bfn.  Coefficient  Atom+Function         Bfn.  Coefficient  Atom+Function  
  ----- ------------  ---------------      ----- ------------  ---------------
     7      0.488274  1 O  pz                10      0.363008  1 O  pz         
   131     -0.283399  7 F  pz               134     -0.201153  7 F  pz         
    30      0.181521  2 C  pz         
 
 Vector   24  Occ=2.000000D+00  E=-6.112077D-01  Symmetry=a'
              MO Center= -1.5D-01, -4.5D-01,  1.0D-16, r^2= 3.2D+00
   Bfn.  Coefficient  Atom+Function         Bfn.  Coefficient  Atom+Function  
  ----- ------------  ---------------      ----- ------------  ---------------
     6      0.338814  1 O  py                51      0.303808  3 C  px         
   148      0.271867  8 H  s                149      0.262654  8 H  s          
     9      0.216214  1 O  py                 5      0.211033  1 O  px         
    97      0.190479  5 O  px                28     -0.169235  2 C  px         
     3     -0.162858  1 O  s                 26     -0.158240  2 C  s          
 
 Vector   25  Occ=2.000000D+00  E=-5.644842D-01  Symmetry=a"
              MO Center= -6.9D-01,  1.1D+00, -2.5D-17, r^2= 2.2D+00
   Bfn.  Coefficient  Atom+Function         Bfn.  Coefficient  Atom+Function  
  ----- ------------  ---------------      ----- ------------  ---------------
    99      0.452209  5 O  pz               102      0.338583  5 O  pz         
    76      0.256298  4 C  pz               163     -0.253101  9 F  pz         
     7     -0.221569  1 O  pz               166     -0.184187  9 F  pz         
    10     -0.167400  1 O  pz         
 
 Vector   26  Occ=2.000000D+00  E=-5.162636D-01  Symmetry=a'
              MO Center= -8.2D-01,  1.1D+00,  1.0D-16, r^2= 2.0D+00
   Bfn.  Coefficient  Atom+Function         Bfn.  Coefficient  Atom+Function  
  ----- ------------  ---------------      ----- ------------  ---------------
    98      0.560414  5 O  py               101      0.440525  5 O  py         
    72      0.191529  4 C  s                  6      0.170784  1 O  py         
 
 Vector   27  Occ=2.000000D+00  E=-4.095782D-01  Symmetry=a"
              MO Center=  1.8D-01, -1.9D-01,  1.5D-17, r^2= 2.4D+00
   Bfn.  Coefficient  Atom+Function         Bfn.  Coefficient  Atom+Function  
  ----- ------------  ---------------      ----- ------------  ---------------
    53      0.427710  3 C  pz                56      0.327308  3 C  pz         
    30      0.244618  2 C  pz                 7     -0.235909  1 O  pz         
    99     -0.233160  5 O  pz                10     -0.188179  1 O  pz         
   102     -0.182840  5 O  pz         
 
 Vector   28  Occ=0.000000D+00  E= 3.111866D-02  Symmetry=a'
              MO Center=  2.1D+00, -2.3D-01, -2.6D-17, r^2= 1.8D+01
   Bfn.  Coefficient  Atom+Function         Bfn.  Coefficient  Atom+Function  
  ----- ------------  ---------------      ----- ------------  ---------------
    50     -8.495451  3 C  s                 27      8.340051  2 C  s          
    73      7.253284  4 C  s                 57      4.531182  3 C  px         
   150     -4.542739  8 H  s                 35      1.705864  2 C  py         
    81     -1.460500  4 C  py                 4     -1.081226  1 O  s          
   118     -0.971145  6 H  s                 96     -0.883056  5 O  s          
 
 Vector   29  Occ=0.000000D+00  E= 5.269786D-02  Symmetry=a'
              MO Center= -1.7D+00, -4.4D-01, -3.7D-18, r^2= 2.0D+01
   Bfn.  Coefficient  Atom+Function         Bfn.  Coefficient  Atom+Function  
  ----- ------------  ---------------      ----- ------------  ---------------
    50      4.484416  3 C  s                118      3.750320  6 H  s          
    27     -3.187739  2 C  s                 73     -2.870126  4 C  s          
   150     -2.369013  8 H  s                149     -1.082105  8 H  s          
    96      0.902302  5 O  s                  4      0.883656  1 O  s          
    11      0.869241  1 O  px                34      0.846505  2 C  px         
 
 Vector   30  Occ=0.000000D+00  E= 5.951220D-02  Symmetry=a"
              MO Center=  3.2D-02,  1.1D-01,  3.7D-15, r^2= 3.6D+00
   Bfn.  Coefficient  Atom+Function         Bfn.  Coefficient  Atom+Function  
  ----- ------------  ---------------      ----- ------------  ---------------
    36      0.572200  2 C  pz                33      0.457840  2 C  pz         
    30      0.417794  2 C  pz                82     -0.391868  4 C  pz         
    79     -0.377339  4 C  pz                76     -0.355158  4 C  pz         
    59     -0.316928  3 C  pz               105      0.305429  5 O  pz         
    99      0.237262  5 O  pz                13     -0.234720  1 O  pz         
 
 Vector   31  Occ=0.000000D+00  E= 7.167116D-02  Symmetry=a'
              MO Center=  4.1D-01, -1.6D-01, -3.6D-16, r^2= 2.2D+01
   Bfn.  Coefficient  Atom+Function         Bfn.  Coefficient  Atom+Function  
  ----- ------------  ---------------      ----- ------------  ---------------
    27     12.989111  2 C  s                 73    -10.352506  4 C  s          
    58      5.294677  3 C  py                35      3.807434  2 C  py         
    50     -2.909765  3 C  s                 81      2.902957  4 C  py         
     4     -2.020957  1 O  s                 34      1.705193  2 C  px         
    80     -1.538490  4 C  px                96      1.400764  5 O  s          
 
 Vector   32  Occ=0.000000D+00  E= 9.027086D-02  Symmetry=a"
              MO Center= -1.1D-01, -2.5D-01, -2.0D-18, r^2= 1.4D+01
   Bfn.  Coefficient  Atom+Function         Bfn.  Coefficient  Atom+Function  
  ----- ------------  ---------------      ----- ------------  ---------------
    36      1.943693  2 C  pz                82      1.555781  4 C  pz         
    59     -1.349939  3 C  pz                13     -0.554988  1 O  pz         
   105     -0.460309  5 O  pz               137     -0.296113  7 F  pz         
   169     -0.218264  9 F  pz                79     -0.150967  4 C  pz         
 
 Vector   33  Occ=0.000000D+00  E= 9.746182D-02  Symmetry=a'
              MO Center= -1.7D-01,  4.3D-01, -1.6D-16, r^2= 2.3D+01
   Bfn.  Coefficient  Atom+Function         Bfn.  Coefficient  Atom+Function  
  ----- ------------  ---------------      ----- ------------  ---------------
    50     21.916107  3 C  s                 73    -11.257879  4 C  s          
    27    -10.670375  2 C  s                 57     -5.161893  3 C  px         
    35     -4.398109  2 C  py                81      4.294362  4 C  py         
   150      1.795016  8 H  s                118     -1.729354  6 H  s          
     4      1.562333  1 O  s                 80     -1.418863  4 C  px         
 
 Vector   34  Occ=0.000000D+00  E= 1.129446D-01  Symmetry=a'
              MO Center= -8.6D-02, -1.4D-01,  6.3D-16, r^2= 2.0D+01
   Bfn.  Coefficient  Atom+Function         Bfn.  Coefficient  Atom+Function  
  ----- ------------  ---------------      ----- ------------  ---------------
    34      3.528873  2 C  px                 4      2.796409  1 O  s          
    50     -2.734477  3 C  s                 80     -2.594855  4 C  px         
    96     -2.578407  5 O  s                 27      1.403823  2 C  s          
    73      1.328778  4 C  s                128     -1.024273  7 F  s          
   160      0.924012  9 F  s                 58      0.856200  3 C  py         
 
 Vector   35  Occ=0.000000D+00  E= 1.206530D-01  Symmetry=a'
              MO Center=  4.5D-02,  9.3D-04, -1.9D-16, r^2= 1.4D+01
   Bfn.  Coefficient  Atom+Function         Bfn.  Coefficient  Atom+Function  
  ----- ------------  ---------------      ----- ------------  ---------------
    50     15.678615  3 C  s                 27    -12.506126  2 C  s          
    73    -11.630040  4 C  s                  4      3.348120  1 O  s          
    35     -2.924383  2 C  py                81      2.781919  4 C  py         
    96      2.581280  5 O  s                 80     -1.722124  4 C  px         
   150      1.627720  8 H  s                118      1.576697  6 H  s          
 
 Vector   36  Occ=0.000000D+00  E= 1.243044D-01  Symmetry=a"
              MO Center=  2.5D-01,  3.4D-01, -2.8D-16, r^2= 1.6D+01
   Bfn.  Coefficient  Atom+Function         Bfn.  Coefficient  Atom+Function  
  ----- ------------  ---------------      ----- ------------  ---------------
    82      2.382956  4 C  pz                36     -1.788685  2 C  pz         
   105     -0.526274  5 O  pz                13      0.409071  1 O  pz         
    59     -0.398245  3 C  pz               169     -0.391190  9 F  pz         
   137      0.304332  7 F  pz         
 
 Vector   37  Occ=0.000000D+00  E= 1.321831D-01  Symmetry=a"
              MO Center=  1.2D+00, -4.3D-02, -1.8D-16, r^2= 1.3D+01
   Bfn.  Coefficient  Atom+Function         Bfn.  Coefficient  Atom+Function  
  ----- ------------  ---------------      ----- ------------  ---------------
    59      4.202883  3 C  pz                36     -2.584430  2 C  pz         
    82     -2.146379  4 C  pz               105      0.357946  5 O  pz         
    13      0.311266  1 O  pz               137      0.259913  7 F  pz         
    79     -0.246271  4 C  pz               169      0.185599  9 F  pz         
   156     -0.181125  8 H  pz         
 
 Vector   38  Occ=0.000000D+00  E= 1.439989D-01  Symmetry=a'
              MO Center=  9.2D-02, -9.9D-02, -2.0D-15, r^2= 2.1D+01
   Bfn.  Coefficient  Atom+Function         Bfn.  Coefficient  Atom+Function  
  ----- ------------  ---------------      ----- ------------  ---------------
    73      7.051975  4 C  s                 57      6.825366  3 C  px         
    27      6.640186  2 C  s                 34     -5.307369  2 C  px         
     4     -4.216400  1 O  s                118     -4.208730  6 H  s          
    80     -4.041383  4 C  px                96     -3.294477  5 O  s          
   150     -2.512223  8 H  s                149     -2.367822  8 H  s          
 
 Vector   39  Occ=0.000000D+00  E= 1.523775D-01  Symmetry=a'
              MO Center=  2.0D+00, -1.8D-03, -1.3D-16, r^2= 1.6D+01
   Bfn.  Coefficient  Atom+Function         Bfn.  Coefficient  Atom+Function  
  ----- ------------  ---------------      ----- ------------  ---------------
    50     14.319600  3 C  s                 27    -12.092889  2 C  s          
    73     -9.655554  4 C  s                 57     -7.375322  3 C  px         
   150      7.254679  8 H  s                 34     -2.615496  2 C  px         
   118     -2.482983  6 H  s                128      2.125376  7 F  s          
   160      2.027323  9 F  s                  4     -1.827756  1 O  s          
 
 Vector   40  Occ=0.000000D+00  E= 1.546916D-01  Symmetry=a'
              MO Center=  8.6D-01,  1.4D-01, -4.0D-16, r^2= 2.1D+01
   Bfn.  Coefficient  Atom+Function         Bfn.  Coefficient  Atom+Function  
  ----- ------------  ---------------      ----- ------------  ---------------
    58     13.762961  3 C  py                27     11.528728  2 C  s          
    73    -10.249303  4 C  s                 34      4.929930  2 C  px         
    80     -4.416247  4 C  px                81     -3.294007  4 C  py         
    35     -3.143805  2 C  py                50     -1.512876  3 C  s          
     4      1.461801  1 O  s                 26     -1.112693  2 C  s          
 
 Vector   41  Occ=0.000000D+00  E= 2.004134D-01  Symmetry=a'
              MO Center=  2.4D-01, -3.7D-01, -1.4D-15, r^2= 1.4D+01
   Bfn.  Coefficient  Atom+Function         Bfn.  Coefficient  Atom+Function  
  ----- ------------  ---------------      ----- ------------  ---------------
    27     30.819569  2 C  s                 73    -17.136095  4 C  s          
    50    -12.657047  3 C  s                 58      9.934074  3 C  py         
    35      4.675804  2 C  py                 4     -3.764555  1 O  s          
    34      2.835227  2 C  px               128     -2.682504  7 F  s          
    96      2.627266  5 O  s                 80     -2.562221  4 C  px         
 
 Vector   42  Occ=0.000000D+00  E= 2.039354D-01  Symmetry=a'
              MO Center= -5.3D-01,  3.2D-01,  1.1D-16, r^2= 1.3D+01
   Bfn.  Coefficient  Atom+Function         Bfn.  Coefficient  Atom+Function  
  ----- ------------  ---------------      ----- ------------  ---------------
    73     24.923942  4 C  s                 50    -20.335743  3 C  s          
    58     -5.817503  3 C  py                81     -4.033343  4 C  py         
   149      3.824888  8 H  s                 96     -3.782556  5 O  s          
    57      3.530037  3 C  px               118     -2.441578  6 H  s          
    34     -1.913392  2 C  px                80      1.774186  4 C  px         
 
 Vector   43  Occ=0.000000D+00  E= 2.117072D-01  Symmetry=a"
              MO Center= -4.3D-01,  6.6D-02,  3.1D-17, r^2= 6.6D+00
   Bfn.  Coefficient  Atom+Function         Bfn.  Coefficient  Atom+Function  
  ----- ------------  ---------------      ----- ------------  ---------------
   105      0.978583  5 O  pz                13      0.965881  1 O  pz         
    82     -0.745145  4 C  pz                36     -0.734694  2 C  pz         
    79     -0.641722  4 C  pz                33     -0.555843  2 C  pz         
    59      0.376401  3 C  pz               156      0.377666  8 H  pz         
    76     -0.321782  4 C  pz                56      0.286001  3 C  pz         
 
 Vector   44  Occ=0.000000D+00  E= 2.453076D-01  Symmetry=a'
              MO Center= -1.1D+00, -5.9D-01,  2.6D-16, r^2= 1.3D+01
   Bfn.  Coefficient  Atom+Function         Bfn.  Coefficient  Atom+Function  
  ----- ------------  ---------------      ----- ------------  ---------------
    50     22.155977  3 C  s                 73    -15.926896  4 C  s          
    27     -7.805177  2 C  s                 57     -6.817298  3 C  px         
    11     -3.246373  1 O  px                81      2.989517  4 C  py         
    58      2.864276  3 C  py               149     -2.817215  8 H  s          
    35     -2.777414  2 C  py                34      2.426264  2 C  px         
 
 Vector   45  Occ=0.000000D+00  E= 2.495649D-01  Symmetry=a"
              MO Center= -1.6D-01, -7.8D-01, -3.1D-16, r^2= 1.1D+01
   Bfn.  Coefficient  Atom+Function         Bfn.  Coefficient  Atom+Function  
  ----- ------------  ---------------      ----- ------------  ---------------
    59      2.603238  3 C  pz                36     -2.047504  2 C  pz         
    13      1.756408  1 O  pz                82     -1.433016  4 C  pz         
   137     -0.580425  7 F  pz               105      0.533941  5 O  pz         
   169     -0.326840  9 F  pz               124     -0.315611  6 H  pz         
    56     -0.313152  3 C  pz                45     -0.268489  2 C  d  1       
 
 Vector   46  Occ=0.000000D+00  E= 2.533688D-01  Symmetry=a'
              MO Center=  6.3D-01, -3.2D-01, -4.2D-17, r^2= 8.1D+00
   Bfn.  Coefficient  Atom+Function         Bfn.  Coefficient  Atom+Function  
  ----- ------------  ---------------      ----- ------------  ---------------
    50     18.283564  3 C  s                 73    -10.272036  4 C  s          
    27     -9.143530  2 C  s                149     -4.488352  8 H  s          
   128      2.120775  7 F  s                117      1.999623  6 H  s          
     4     -1.932719  1 O  s                 69      1.804910  3 C  d  2       
   160      1.782320  9 F  s                 80     -1.616095  4 C  px         
 
 Vector   47  Occ=0.000000D+00  E= 2.603366D-01  Symmetry=a'
              MO Center= -1.2D+00, -1.5D-01,  3.7D-18, r^2= 1.5D+01
   Bfn.  Coefficient  Atom+Function         Bfn.  Coefficient  Atom+Function  
  ----- ------------  ---------------      ----- ------------  ---------------
    27     24.133490  2 C  s                 50    -15.843061  3 C  s          
    58      8.535854  3 C  py                73     -7.551575  4 C  s          
    55     -5.058000  3 C  py                35      4.697975  2 C  py         
     4     -4.203806  1 O  s                 34      4.093390  2 C  px         
    26     -3.795658  2 C  s                 80     -3.621080  4 C  px         
 
 Vector   48  Occ=0.000000D+00  E= 2.741137D-01  Symmetry=a"
              MO Center= -8.8D-01,  7.9D-01,  2.0D-16, r^2= 1.2D+01
   Bfn.  Coefficient  Atom+Function         Bfn.  Coefficient  Atom+Function  
  ----- ------------  ---------------      ----- ------------  ---------------
   105      1.723429  5 O  pz                13     -1.454926  1 O  pz         
    82     -0.836751  4 C  pz               169     -0.811342  9 F  pz         
    36      0.502180  2 C  pz                91     -0.491069  4 C  d  1       
    59      0.462278  3 C  pz                66     -0.377905  3 C  d -1       
    45      0.329771  2 C  d  1              99     -0.153657  5 O  pz         
 
 Vector   49  Occ=0.000000D+00  E= 2.800498D-01  Symmetry=a'
              MO Center= -8.5D-01, -2.7D-01,  3.7D-17, r^2= 1.4D+01
   Bfn.  Coefficient  Atom+Function         Bfn.  Coefficient  Atom+Function  
  ----- ------------  ---------------      ----- ------------  ---------------
    50     30.630933  3 C  s                 27    -18.584456  2 C  s          
    73    -17.903785  4 C  s                  4      5.853962  1 O  s          
    35     -4.493239  2 C  py                81      3.971455  4 C  py         
   117     -3.891041  6 H  s                 96      3.618113  5 O  s          
    57     -3.123754  3 C  px                12      2.891133  1 O  py         
 
 Vector   50  Occ=0.000000D+00  E= 3.039074D-01  Symmetry=a'
              MO Center= -4.1D-01,  9.4D-01,  1.3D-16, r^2= 1.1D+01
   Bfn.  Coefficient  Atom+Function         Bfn.  Coefficient  Atom+Function  
  ----- ------------  ---------------      ----- ------------  ---------------
    50      9.391271  3 C  s                 73     -8.573127  4 C  s          
   104     -3.438024  5 O  py                96      3.352995  5 O  s          
    81      2.899367  4 C  py                 4     -2.866310  1 O  s          
    26     -2.746158  2 C  s                 12     -2.338385  1 O  py         
    57     -2.304297  3 C  px                27     -1.945891  2 C  s          
 
 Vector   51  Occ=0.000000D+00  E= 3.133650D-01  Symmetry=a"
              MO Center=  2.1D-01, -6.1D-01,  1.6D-16, r^2= 1.2D+01
   Bfn.  Coefficient  Atom+Function         Bfn.  Coefficient  Atom+Function  
  ----- ------------  ---------------      ----- ------------  ---------------
    36      2.369226  2 C  pz                59     -1.782829  3 C  pz         
    82      1.785241  4 C  pz               137     -1.511209  7 F  pz         
   105     -1.356207  5 O  pz                13     -1.157096  1 O  pz         
   169     -0.836471  9 F  pz                56      0.562405  3 C  pz         
   124      0.393213  6 H  pz                43     -0.307697  2 C  d -1       
 
 Vector   52  Occ=0.000000D+00  E= 3.246456D-01  Symmetry=a'
              MO Center=  2.5D-01,  4.7D-01,  1.5D-17, r^2= 1.3D+01
   Bfn.  Coefficient  Atom+Function         Bfn.  Coefficient  Atom+Function  
  ----- ------------  ---------------      ----- ------------  ---------------
    50      5.844218  3 C  s                 27     -5.259992  2 C  s          
    73     -2.807628  4 C  s                 12     -2.638201  1 O  py         
    80     -2.542057  4 C  px                34      1.787605  2 C  px         
     4      1.688665  1 O  s                104     -1.446942  5 O  py         
    57     -1.424812  3 C  px                58     -1.364428  3 C  py         
 
 Vector   53  Occ=0.000000D+00  E= 3.276722D-01  Symmetry=a'
              MO Center=  1.7D-01, -3.0D-02,  2.6D-17, r^2= 1.5D+01
   Bfn.  Coefficient  Atom+Function         Bfn.  Coefficient  Atom+Function  
  ----- ------------  ---------------      ----- ------------  ---------------
    50     20.307507  3 C  s                 73    -12.810666  4 C  s          
    27    -12.335757  2 C  s                 57     -6.145235  3 C  px         
   150      2.932269  8 H  s                149      2.667681  8 H  s          
   104      2.354428  5 O  py                96      2.023750  5 O  s          
    69     -1.873621  3 C  d  2              35     -1.747979  2 C  py         
 
 Vector   54  Occ=0.000000D+00  E= 3.408576D-01  Symmetry=a'
              MO Center=  3.6D-01, -7.5D-01,  6.5D-17, r^2= 1.4D+01
   Bfn.  Coefficient  Atom+Function         Bfn.  Coefficient  Atom+Function  
  ----- ------------  ---------------      ----- ------------  ---------------
    73     14.582233  4 C  s                 58    -10.296562  3 C  py         
    27    -10.195903  2 C  s                 80      5.507430  4 C  px         
    34     -4.732609  2 C  px                50     -4.072365  3 C  s          
    96     -3.486644  5 O  s                 35      3.458230  2 C  py         
   103     -3.209606  5 O  px                11      3.005929  1 O  px         
 
 Vector   55  Occ=0.000000D+00  E= 3.470820D-01  Symmetry=a'
              MO Center=  5.7D-01, -1.2D-02,  3.2D-17, r^2= 1.6D+01
   Bfn.  Coefficient  Atom+Function         Bfn.  Coefficient  Atom+Function  
  ----- ------------  ---------------      ----- ------------  ---------------
    50    -14.973647  3 C  s                 27     14.494956  2 C  s          
    54     -4.337277  3 C  px                81     -3.863399  4 C  py         
    49      3.825803  3 C  s                 58      3.527554  3 C  py         
    73      3.526329  4 C  s                 35      3.164211  2 C  py         
    34      3.034846  2 C  px                57      2.999653  3 C  px         
 
 Vector   56  Occ=0.000000D+00  E= 3.559780D-01  Symmetry=a"
              MO Center=  5.0D-01,  6.0D-01,  2.2D-17, r^2= 1.5D+01
   Bfn.  Coefficient  Atom+Function         Bfn.  Coefficient  Atom+Function  
  ----- ------------  ---------------      ----- ------------  ---------------
    82      2.687467  4 C  pz                36     -2.373642  2 C  pz         
   169     -1.862958  9 F  pz               137      1.538821  7 F  pz         
   105     -1.308721  5 O  pz                13      1.070876  1 O  pz         
    79      0.404794  4 C  pz                33     -0.337396  2 C  pz         
    89      0.323162  4 C  d -1              43      0.288740  2 C  d -1       
 
 Vector   57  Occ=0.000000D+00  E= 3.643290D-01  Symmetry=a'
              MO Center=  1.6D+00, -9.7D-03, -1.2D-16, r^2= 7.0D+00
   Bfn.  Coefficient  Atom+Function         Bfn.  Coefficient  Atom+Function  
  ----- ------------  ---------------      ----- ------------  ---------------
    57      7.117631  3 C  px                27      5.323281  2 C  s          
    73      4.576577  4 C  s                149     -3.880310  8 H  s          
   150     -3.714815  8 H  s                 50     -2.655483  3 C  s          
    31      2.289673  2 C  px                49     -2.119493  3 C  s          
    69      1.966047  3 C  d  2              34     -1.910201  2 C  px         
 
 Vector   58  Occ=0.000000D+00  E= 3.683471D-01  Symmetry=a'
              MO Center= -1.2D+00, -1.6D-01, -2.2D-16, r^2= 9.6D+00
   Bfn.  Coefficient  Atom+Function         Bfn.  Coefficient  Atom+Function  
  ----- ------------  ---------------      ----- ------------  ---------------
    27     14.330352  2 C  s                 73     11.106193  4 C  s          
    50    -10.342134  3 C  s                  4     -7.290333  1 O  s          
    96     -6.065768  5 O  s                 57      4.175950  3 C  px         
   118     -3.753699  6 H  s                 34     -3.166780  2 C  px         
    11     -2.091836  1 O  px               103     -2.074125  5 O  px         
 
 Vector   59  Occ=0.000000D+00  E= 3.927475D-01  Symmetry=a'
              MO Center=  2.3D-01,  3.3D-01,  5.8D-17, r^2= 9.2D+00
   Bfn.  Coefficient  Atom+Function         Bfn.  Coefficient  Atom+Function  
  ----- ------------  ---------------      ----- ------------  ---------------
    73     18.922549  4 C  s                 27    -12.515638  2 C  s          
    58     -6.079240  3 C  py               160     -4.152813  9 F  s          
   128      3.605989  7 F  s                 96     -3.156957  5 O  s          
    81     -3.082869  4 C  py                55      2.955811  3 C  py         
    35     -2.285888  2 C  py                26      2.245103  2 C  s          
 
 Vector   60  Occ=0.000000D+00  E= 3.981876D-01  Symmetry=a"
              MO Center=  4.3D-01, -6.7D-02, -1.2D-16, r^2= 7.2D+00
   Bfn.  Coefficient  Atom+Function         Bfn.  Coefficient  Atom+Function  
  ----- ------------  ---------------      ----- ------------  ---------------
   156      1.561117  8 H  pz                59     -1.282558  3 C  pz         
    36      0.884710  2 C  pz                68      0.763092  3 C  d  1       
   124     -0.720664  6 H  pz               137     -0.715967  7 F  pz         
    43     -0.610251  2 C  d -1              89      0.572209  4 C  d -1       
    82      0.547580  4 C  pz               169     -0.501970  9 F  pz         
 
 Vector   61  Occ=0.000000D+00  E= 4.037400D-01  Symmetry=a'
              MO Center=  3.7D-01,  5.5D-01,  9.9D-17, r^2= 1.6D+01
   Bfn.  Coefficient  Atom+Function         Bfn.  Coefficient  Atom+Function  
  ----- ------------  ---------------      ----- ------------  ---------------
    58      8.379332  3 C  py                96     -4.968048  5 O  s          
    81     -4.670588  4 C  py                35     -4.273601  2 C  py         
     4      4.026847  1 O  s                 55      2.731865  3 C  py         
    34      2.584482  2 C  px                80     -2.570789  4 C  px         
    78      2.323500  4 C  py               168      2.245360  9 F  py         
 
 Vector   62  Occ=0.000000D+00  E= 4.185823D-01  Symmetry=a'
              MO Center= -7.5D-01, -5.8D-01,  2.3D-17, r^2= 7.8D+00
   Bfn.  Coefficient  Atom+Function         Bfn.  Coefficient  Atom+Function  
  ----- ------------  ---------------      ----- ------------  ---------------
    27     10.481671  2 C  s                  4     -8.142587  1 O  s          
   117      4.154498  6 H  s                 73     -4.079794  4 C  s          
    58      3.320838  3 C  py                80     -2.125571  4 C  px         
    12     -2.033117  1 O  py                26      1.355487  2 C  s          
    35      1.288044  2 C  py               149     -1.196317  8 H  s          
 
 Vector   63  Occ=0.000000D+00  E= 4.354082D-01  Symmetry=a'
              MO Center= -5.4D-01,  7.8D-03,  3.0D-16, r^2= 1.1D+01
   Bfn.  Coefficient  Atom+Function         Bfn.  Coefficient  Atom+Function  
  ----- ------------  ---------------      ----- ------------  ---------------
    27     12.315123  2 C  s                  4    -10.453132  1 O  s          
    73     -8.366496  4 C  s                 96      8.109139  5 O  s          
    50     -4.523611  3 C  s                 12     -2.498568  1 O  py         
    35      2.507352  2 C  py               117      2.498666  6 H  s          
   104     -2.445839  5 O  py                58      2.196318  3 C  py         
 
 Vector   64  Occ=0.000000D+00  E= 4.758878D-01  Symmetry=a'
              MO Center=  1.1D+00, -4.9D-01, -6.7D-17, r^2= 1.1D+01
   Bfn.  Coefficient  Atom+Function         Bfn.  Coefficient  Atom+Function  
  ----- ------------  ---------------      ----- ------------  ---------------
    27      8.002910  2 C  s                128     -5.902756  7 F  s          
    50     -4.802512  3 C  s                 96      4.557549  5 O  s          
     4      3.902887  1 O  s                160     -3.833565  9 F  s          
   149     -3.789214  8 H  s                150     -3.727541  8 H  s          
    34      3.501169  2 C  px                54      3.304265  3 C  px         
 
 Vector   65  Occ=0.000000D+00  E= 4.822793D-01  Symmetry=a"
              MO Center=  1.4D-01, -9.9D-02, -3.3D-17, r^2= 7.7D+00
   Bfn.  Coefficient  Atom+Function         Bfn.  Coefficient  Atom+Function  
  ----- ------------  ---------------      ----- ------------  ---------------
    59      2.719987  3 C  pz                82     -1.800252  4 C  pz         
    36     -1.782291  2 C  pz               156     -1.758878  8 H  pz         
    56      1.679218  3 C  pz               124     -1.359460  6 H  pz         
    13      1.025063  1 O  pz               105      0.981180  5 O  pz         
    68     -0.498187  3 C  d  1              45      0.490404  2 C  d  1       
 
 Vector   66  Occ=0.000000D+00  E= 4.897567D-01  Symmetry=a'
              MO Center=  5.5D-01,  3.2D-01, -1.2D-17, r^2= 7.7D+00
   Bfn.  Coefficient  Atom+Function         Bfn.  Coefficient  Atom+Function  
  ----- ------------  ---------------      ----- ------------  ---------------
    73     10.666295  4 C  s                 50     -8.954082  3 C  s          
    27      4.638129  2 C  s                 57      4.064060  3 C  px         
    72      4.008733  4 C  s                 49      3.965698  3 C  s          
   160     -3.764703  9 F  s                149     -3.460126  8 H  s          
     4     -2.524019  1 O  s                150     -2.446916  8 H  s          
 
 Vector   67  Occ=0.000000D+00  E= 5.301671D-01  Symmetry=a'
              MO Center=  2.2D-01,  2.4D-01, -7.0D-17, r^2= 7.8D+00
   Bfn.  Coefficient  Atom+Function         Bfn.  Coefficient  Atom+Function  
  ----- ------------  ---------------      ----- ------------  ---------------
    27     17.713473  2 C  s                 50    -11.808572  3 C  s          
   128     -4.657762  7 F  s                160      3.978287  9 F  s          
     4     -3.946412  1 O  s                 49      3.632694  3 C  s          
    58      3.567571  3 C  py                96     -3.499768  5 O  s          
    57      2.961115  3 C  px                35      2.941223  2 C  py         
 

 center of mass
 --------------
 x =   0.02171496 y =   0.00666697 z =   0.00000000

 moments of inertia (a.u.)
 ------------------
        1111.691745217572           0.000000000000           0.000000000000
           0.000000000000         294.662722099184           0.000000000000
           0.000000000000           0.000000000000        1406.354467316756
 
  Mulliken analysis of the total density
  --------------------------------------

    Atom       Charge   Shell Charges
 -----------   ------   -------------------------------------------------------
    1 O    8     8.68   2.00  0.83  1.00  0.17  2.83  1.75  0.07  0.02  0.02
    2 C    6     4.72   2.01  0.68  0.47 -0.11  1.75 -0.08  0.03  0.22 -0.26
    3 C    6     5.58   2.01  0.63  0.31 -0.19  2.10  0.56  0.08  0.06  0.02
    4 C    6     4.93   2.01  0.69  0.55 -0.07  1.73 -0.05  0.03  0.24 -0.19
    5 O    8     8.79   2.00  0.83  1.04  0.15  2.77  1.85  0.10  0.02  0.03
    6 H    1     0.68   0.64 -0.02 -0.00  0.09 -0.03
    7 F    9     9.64   2.00  0.89  1.09  0.16  3.29  2.09  0.09  0.00  0.02
    8 H    1     1.34   0.76  0.56  0.02  0.03 -0.03
    9 F    9     9.64   2.00  0.89  1.09  0.14  3.29  2.10  0.09  0.00  0.02
 
       Multipole analysis of the density wrt the origin
       ------------------------------------------------
 
     L   x y z        total         open         nuclear
     -   - - -        -----         ----         -------
     0   0 0 0     -0.000000      0.000000     54.000000
 
     1   1 0 0      0.559250      0.000000     -0.000000
     1   0 1 0     -0.323122      0.000000     -0.000000
     1   0 0 1      0.000000      0.000000      0.000000
 
     2   2 0 0    -28.760435      0.000000    155.753138
     2   1 1 0      0.710668      0.000000      1.086293
     2   1 0 1      0.000000      0.000000      0.000000
     2   0 2 0    -35.023043      0.000000    535.267888
     2   0 1 1     -0.000000      0.000000      0.000000
     2   0 0 2    -28.137890      0.000000      0.000000
 
                   NWChem MP2 Semi-direct Energy/Gradient Module
                   ---------------------------------------------
 
 
                                   F,H,F Chelate
 
 

int_init: setting std/high accuracies to  1.0D-16  1.0D-32
  Basis functions       =    179
  Molecular orbitals    =    179
  Frozen core           =      7
  Frozen virtuals       =      0
  Active alpha occupied =     20
  Active beta occupied  =     20
  Active alpha virtual  =    152
  Active beta virtual   =    152
  Use MO symmetry       = T
  Use skeleton AO sym   = T

  AO/Fock/Back tols     =   1.0D-15  1.0D-15  1.0D-15

 GA uses MA = F    GA memory limited = T

 Available: 
  local mem=  3.77D+08
 global mem=  1.23D+08
 local disk=  0.00D+00

int_init: setting std/high accuracies to  1.0D-16  1.0D-32
  mp2_memr nvloc                     14
  nvloc new                     14
   1 passes of  20:        5242880                     243690                  19958944.
   1 passes of  20: M    376603314           G      122958087           F     371360434.
 
 Semi-direct pass number   1 of   1  for RHF alpha+beta  at       64.1s

int_init: setting std/high accuracies to  1.0D-16  1.0D-32
  vrange nnbf                  15810
  mp2_eaftype                     57  avail_ma_in_mb                   3283
 EAF : mp2_eaftype filesize          57    7552950.
  mp2_eaf for mointskh                      57
Node 0 wrote     35.4 Mb in      0.1 s     Agg I/O rate:  4213.4 Mb/s
 Done moints_semi at       70.2s
  mp2_eaftype                     57  avail_ma_in_mb                   3226
 EAF : mp2_eaftype filesize          57    7552950.
  mp2_eaf for kh                     57
  mp2_eaftype                     12  avail_ma_in_mb                   3226
 EAF : mp2_eaftype filesize          12    1702400.
  mp2_eaf for ta tb                     12
  mp2_eaf for ta                      12
  mp2_eaf for tb                      12
 Done maket at       70.6s
 Done pijab at       70.7s
 Done wijab at       70.7s
 Done lai at       72.0s

int_init: setting std/high accuracies to  1.0D-16  1.0D-32
  mp2_eaftype                     68  avail_ma_in_mb                   3201
 EAF : mp2_eaftype filesize          68    8934248.
  mp2_eaf for 2pdm                      68
 Done nonsep at       96.0s
 Done multipass loop at       96.0s


          -------------------------------------------
          SCF energy                -463.416599456956
          Correlation energy          -1.204706192638
          Singlet pairs               -0.705454159293
          Triplet pairs               -0.499252033345
          Total MP2 energy          -464.621305649594
          -------------------------------------------



          ---------------------------------------------------
                    Spin Component Scaled (SCS) MP2
          Same spin pairs                     -0.332834688897
          Same spin scaling factor             0.333333333333
          Opposite spin pairs                 -0.871871503741
          Opposite spin scaling fact.          1.200000000000
          SCS-MP2 correlation energy          -1.157190700788
          Total SCS-MP2 energy              -464.573790157744
          ---------------------------------------------------


int_init: setting std/high accuracies to  1.0D-16  1.0D-32
                                NWChem CPHF Module
                                ------------------
 
 

int_init: setting std/high accuracies to  1.0D-16  1.0D-32
    scftype = RHF 
    nclosed =   27
      nopen =    0
  variables =     4104
  tolerance =   1.0D-06
  max. iter =  999

 Warning: symmetry breaking in RHF:   3.464835081174945E-014
 SCF residual:   6.870590864670961E-011

            ----- linear solve (tol: 1.0E-06 prod-acc: 3.6E-14) -----

               iter nbas    rnorm     rnorm-scal   ratio     time
               ---- ---- ----------- ----------- --------- -------
                  1    1  1.0756E-01  4.6105E-01    0.0000   102.0
                  2    2  2.5670E-02  1.1003E-01    0.2387   104.2
                  3    3  9.2954E-03  3.9844E-02    0.3621   106.3
                  4    4  3.1752E-03  1.3610E-02    0.3416   108.5
                  5    5  1.0732E-03  4.6002E-03    0.3380   110.6
                  6    6  3.5746E-04  1.5322E-03    0.3331   112.8
                  7    7  1.4306E-04  6.1324E-04    0.4002   114.9
                  8    8  5.7080E-05  2.4467E-04    0.3990   116.9
                  9    9  2.0803E-05  8.9173E-05    0.3645   119.0
                 10   10  7.6713E-06  3.2883E-05    0.3688   121.1
                 11   11  2.7445E-06  1.1764E-05    0.3578   123.1
                 12   12  9.6368E-07  4.1308E-06    0.3511   125.2
                 13   13  2.9668E-07  1.2717E-06    0.3079   127.1
                 14   14  9.9074E-08  4.2468E-07    0.3339   129.0

 CPHF converged to   4.2D-07 in   14 iters


int_init: setting std/high accuracies to  1.0D-16  1.0D-32
                Dipole Moments (a.u.)
                --------------
         Nuclear       SCF       SCF+MP2
       ----------- ----------- -----------
 X      -0.000000    0.559250    0.408526
 Y      -0.000000   -0.323122   -0.272386
 Z       0.000000    0.000000    0.000000
 

 MP2 RHF      natural orbital occupation numbers


              1      
    1    2.0000
    2    2.0000
    3    2.0000
    4    2.0000
    5    2.0000
    6    2.0000
    7    2.0000
    8    1.9892
    9    1.9891
   10    1.9864
   11    1.9851
   12    1.9813
   13    1.9745
   14    1.9738
   15    1.9733
   16    1.9712
   17    1.9690
   18    1.9676
   19    1.9669
   20    1.9621
   21    1.9604
   22    1.9580
   23    1.9560
   24    1.9557
   25    1.9523
   26    1.9461
   27    1.9323
   28    0.0621
   29    0.0431
   30    0.0425
   31    0.0368
   32    0.0317
   33    0.0308
   34    0.0284
   35    0.0233
   36    0.0207
   37    0.0179
   38    0.0161
   39    0.0155
   40    0.0150
   41    0.0145
   42    0.0136
   43    0.0122
   44    0.0112
   45    0.0104
   46    0.0096
   47    0.0095
   48    0.0088
   49    0.0079
   50    0.0079
   51    0.0074
   52    0.0072
   53    0.0069
   54    0.0066
   55    0.0064
   56    0.0062
   57    0.0058
   58    0.0058
   59    0.0057
   60    0.0055
   61    0.0054
   62    0.0049
   63    0.0049
   64    0.0048
   65    0.0047
   66    0.0046
   67    0.0044
   68    0.0044
   69    0.0044
   70    0.0043
   71    0.0042
   72    0.0040
   73    0.0034
   74    0.0025
   75    0.0022
   76    0.0020
   77    0.0019
   78    0.0018
   79    0.0015
   80    0.0014
   81    0.0014
   82    0.0013
   83    0.0013
   84    0.0012
   85    0.0011
   86    0.0011
   87    0.0010
   88    0.0010
   89    0.0009
   90    0.0009
   91    0.0008
   92    0.0007
   93    0.0007
   94    0.0006
   95    0.0006
   96    0.0005
   97    0.0005
   98    0.0005
   99    0.0005
  100    0.0005
  101    0.0005
  102    0.0004
  103    0.0004
  104    0.0004
  105    0.0004
  106    0.0004
  107    0.0003
  108    0.0003
  109    0.0003
  110    0.0003
  111    0.0003
  112    0.0003
  113    0.0003
  114    0.0003
  115    0.0003
  116    0.0003
  117    0.0003
  118    0.0002
  119    0.0002
  120    0.0002
  121    0.0002
  122    0.0002
  123    0.0002
  124    0.0002
  125    0.0002
  126    0.0002
  127    0.0001
  128    0.0001
  129    0.0001
  130    0.0001
  131    0.0001
  132    0.0001
  133    0.0001
  134    0.0001
  135    0.0001
  136    0.0001
  137    0.0001
  138    0.0001
  139    0.0001
  140    0.0001
  141    0.0001
  142    0.0001
  143    0.0000
  144    0.0000
  145    0.0000
  146    0.0000
  147    0.0000
  148    0.0000
  149    0.0000
  150    0.0000
  151    0.0000
  152    0.0000
  153    0.0000
  154    0.0000
  155    0.0000
  156    0.0000
  157    0.0000
  158    0.0000
  159    0.0000
  160    0.0000
  161    0.0000
  162    0.0000
  163    0.0000
  164    0.0000
  165    0.0000
  166    0.0000
  167    0.0000
  168    0.0000
  169   -0.0000
  170   -0.0000
  171   -0.0000
  172   -0.0000
  173   -0.0000
  174   -0.0001
  175   -0.0001
  176   -0.0001
  177   -0.0002
  178   -0.0002
  179   -0.0003
 
  MP2 natural orbitals output to ./13C.mp2nos
 

int_init: setting std/high accuracies to  1.0D-16  1.0D-32
  Using symmetry

int_init: setting std/high accuracies to  1.0D-16  1.0D-32


                         mp2 ENERGY GRADIENTS

    atom               coordinates                        gradient
                 x          y          z           x          y          z
   1 O      -2.296264  -2.466928   0.000000   -0.019468   0.015973   0.000000
   2 C       0.204998  -2.240988   0.000000    0.015742   0.023219   0.000000
   3 C       1.467006   0.004351   0.000000   -0.022450  -0.009402   0.000000
   4 C       0.058911   2.332918   0.000000    0.037886  -0.008213   0.000000
   5 O      -2.299391   2.429223   0.000000   -0.033449  -0.007260   0.000000
   6 H      -2.955979  -0.708202   0.000000   -0.000547  -0.005534   0.000000
   7 F       1.440242  -4.548428   0.000000    0.020088  -0.038060   0.000000
   8 H       3.503995   0.027871   0.000000   -0.007908   0.000522   0.000000
   9 F       1.429951   4.593348   0.000000    0.010105   0.028755   0.000000
 
                 ----------------------------------------
                 |  Time  |  1-e(secs)   |  2-e(secs)   |
                 ----------------------------------------
                 |  CPU   |       0.01   |       9.44   |
                 ----------------------------------------
                 |  WALL  |       0.01   |       9.44   |
                 ----------------------------------------
 -----------------------
 Performance information
 -----------------------

 Timer overhead =  1.00D-07 seconds/call

               Nr. of calls         CPU time (s)                 Wall time (s)                GFlops
             ---------------    -------------------     ------------------------------   -------------------
Name         Min   Avg   Max    Min     Avg     Max     Min     Avg     Max   Mx/calls   Min     Max     Sum
mp2: moin     1     1     1    5.6     5.7     5.8      6.1     6.1     6.1     6.1      0.0     0.0     0.0   
mp2: make     1     1     1   0.38    0.39    0.39     0.40    0.40    0.40    0.40      0.0     0.0     0.0   
mp2: pija     1     1     1   3.40E-2 3.46E-2 3.50E-2  3.52E-2 3.52E-2 3.55E-2 3.55E-2   0.0     0.0     0.0   
mp2: wija     1     1     1   3.70E-2 3.77E-2 3.80E-2  3.78E-2 3.78E-2 3.78E-2 3.78E-2   0.0     0.0     0.0   
mp2: lai      1     1     1    1.3     1.3     1.3      1.3     1.3     1.3     1.3      0.0     0.0     0.0   
mp2: back     1     1     1   0.82    0.82    0.83     0.84    0.84    0.84    0.84      0.0     0.0     0.0   
mp2: nons     1     1     1    20.     21.     23.      20.     21.     23.     23.      0.0     0.0     0.0   
mp2: laif     1     1     1    2.3     2.3     2.3      2.3     2.3     2.3     2.3      0.0     0.0     0.0   
mp2: cphf     1     1     1    31.     31.     31.      32.     32.     32.     32.      0.0     0.0     0.0   
mp2: wijf     1     1     1    2.3     2.3     2.3      2.3     2.3     2.3     2.3      0.0     0.0     0.0   
mp2: sep      1     1     1    9.5     9.5     9.5      9.5     9.5     9.5     9.5      0.0     0.0     0.0   
mp2: tota     1     1     1    77.     77.     77.      78.     78.     78.     78.      0.0     0.0     0.0   

 The average no. of pstat calls per process was 1.20D+01
 with a timing overhead of 1.20D-06s


@ Step       Energy      Delta E   Gmax     Grms     Xrms     Xmax   Walltime
@ ---- ---------------- -------- -------- -------- -------- -------- --------
@    0    -464.62130565  0.0D+00  0.04304  0.01508  0.00000  0.00000    141.8
                                                                    



                                Z-matrix (user)
                                -------- 

 Units are Angstrom for bonds and degrees for angles

  Constants are marked with an asterisk (*).

  Constrained variables are marked with a plus sign (+).

 
      Type          Name      I     J     K     L     M      Value     Gradient
      ----------- --------  ----- ----- ----- ----- ----- ---------- ----------
    1 Stretch      R1          2     1                       1.32900    0.01899
    2 Stretch      R2          3     2                       1.36300   -0.00391
    3 Bend         A1          3     2     1               124.50000   -0.01377
    4 Stretch      R3          4     3                       1.44000    0.00384
    5 Bend         A2          4     3     2               119.50000    0.00828
    6*Torsion      D0          4     3     2     1           0.00000   -0.00000
    7 Stretch      R4          5     4                       1.24900    0.03312
    8 Bend         A3          5     4     3               123.50000   -0.01076
    9*Torsion      D0          5     4     3     2           0.00000   -0.00000
   10 Stretch      R5          6     1                       0.99400   -0.00499
   11 Bend         A4          6     1     2               105.40000    0.00244
   12*Torsion      D0          6     1     2     3           0.00000   -0.00000
   13 Stretch      R6          7     2                       1.38500    0.04304
   14 Bend         A5          7     2     3               122.50000    0.00035
   15*Torsion      D180        7     2     3     4         180.00000   -0.00000
   16 Stretch      R7          8     3                       1.07800   -0.00790
   17 Bend         A6          8     3     2               120.00000    0.00066
   18*Torsion      D180        8     3     2     1         180.00000   -0.00000
   19 Stretch      R8          9     4                       1.39900    0.02983
   20 Bend         A7          9     4     3               117.60000    0.00878
   21*Torsion      D180        9     4     3     2         180.00000   -0.00000
 
                                 NWChem SCF Module
                                 -----------------
 
 
                                   F,H,F Chelate
 
 

  ao basis        = "ao basis"
  functions       =   179
  atoms           =     9
  closed shells   =    27
  open shells     =     0
  charge          =   0.00
  wavefunction    = RHF 
  input vectors   = ./13C.movecs
  output vectors  = ./13C.movecs
  use symmetry    = T
  symmetry adapt  = T


 Summary of "ao basis" -> "ao basis" (spherical)
 ------------------------------------------------------------------------------
       Tag                 Description            Shells   Functions and Types
 ---------------- ------------------------------  ------  ---------------------
 O                        aug-cc-pVDZ                9       23   4s3p2d
 C                        aug-cc-pVDZ                9       23   4s3p2d
 H                        aug-cc-pVDZ                5        9   3s2p
 F                        aug-cc-pVDZ                9       23   4s3p2d


      Symmetry analysis of basis
      --------------------------
 
        a'        126
        a"         53
 

int_init: setting std/high accuracies to  1.0D-16  1.0D-32

 Forming initial guess at     141.9s


 Forcing the number of linearly dependent vectors to be  0

 Loading old vectors from job with title :

F,H,F Chelate

 
      Symmetry analysis of molecular orbitals - initial
      -------------------------------------------------
 
  Numbering of irreducible representations: 
 
     1 a'          2 a"      
 
  Orbital symmetries:
 
     1 a'          2 a'          3 a'          4 a'          5 a'      
     6 a'          7 a'          8 a'          9 a'         10 a'      
    11 a'         12 a'         13 a'         14 a'         15 a'      
[...]
          12     0.00000    -0.00653     0.11888    -0.00069     0.00000     0.00000
          13     0.11378     0.00000     0.00000     0.00000     0.02632     0.00682
          14     0.05336     0.00000     0.00000     0.00000    -0.04917    -0.08902
          15     0.00000     0.10364     0.12789    -0.07856     0.00000     0.00000
          16     0.05023     0.00000     0.00000     0.00000     0.08447    -0.00239
          17     0.06688     0.00000     0.00000     0.00000    -0.06153    -0.08706
          18     0.00000     0.18311     0.07498    -0.03402     0.00000     0.00000
          19    -0.02315     0.00000     0.00000     0.00000     0.15161    -0.01302
          20    -0.01996     0.00000     0.00000     0.00000     0.01792    -0.09964
          21     0.00000     0.02409     0.00000     0.18340     0.00000     0.00000
          22     0.06581     0.00000     0.00000     0.00000     0.07021    -0.00013
          23    -0.06331     0.00000     0.00000     0.00000     0.05759    -0.10592
          24     0.00000    -0.14695     0.07076     0.16066     0.00000     0.00000
          25     0.15346     0.00000     0.00000     0.00000    -0.00999     0.01257
          26    -0.02080     0.00000     0.00000     0.00000     0.01869    -0.09976
          27     0.00000    -0.10687     0.15203     0.00013     0.00000     0.00000

                    7           8           9          10          11          12
 
 P.Frequency      141.03      194.27      229.48      399.73      429.52      583.19
 
           1     0.00000     0.00000    -0.02530     0.00162     0.09057    -0.07463
           2     0.00000     0.00000    -0.13164    -0.10455     0.05139     0.08355
           3    -0.11567     0.09372     0.00000     0.00000     0.00000     0.00000
           4     0.00000     0.00000    -0.02459     0.00347     0.09326    -0.04541
           5     0.00000     0.00000    -0.01837    -0.03428    -0.03733    -0.08370
           6     0.01637     0.05603     0.00000     0.00000     0.00000     0.00000
           7     0.00000     0.00000    -0.08428     0.01385     0.00559    -0.03607
           8     0.00000     0.00000     0.00440    -0.01250     0.01866    -0.08841
           9     0.13634     0.15474     0.00000     0.00000     0.00000     0.00000
          10     0.00000     0.00000    -0.04347     0.05436    -0.07030     0.03487
          11     0.00000     0.00000     0.03716     0.05705     0.00941    -0.02023
          12     0.05859     0.02043     0.00000     0.00000     0.00000     0.00000
          13     0.00000     0.00000    -0.02732     0.06151    -0.06570     0.03951
          14     0.00000     0.00000     0.12574     0.02694     0.11738     0.07385
          15     0.10631    -0.11050     0.00000     0.00000     0.00000     0.00000
          16     0.00000     0.00000    -0.11789    -0.05279     0.10204     0.09662
          17     0.00000     0.00000    -0.19119    -0.14151     0.05387     0.17623
          18    -0.04108     0.08946     0.00000     0.00000     0.00000     0.00000
          19     0.00000     0.00000     0.06789    -0.05355    -0.02985     0.12017
          20     0.00000     0.00000     0.03014    -0.07913    -0.12017    -0.03379
          21    -0.00721    -0.12576     0.00000     0.00000     0.00000     0.00000
          22     0.00000     0.00000    -0.08381     0.01764     0.00411    -0.03471
          23     0.00000     0.00000     0.00540    -0.07058     0.16557    -0.15312
          24     0.18329     0.13853     0.00000     0.00000     0.00000     0.00000
          25     0.00000     0.00000     0.08333    -0.04301    -0.01475    -0.06445
          26     0.00000     0.00000    -0.02996     0.14924    -0.02771     0.02153
          27    -0.12592    -0.01824     0.00000     0.00000     0.00000     0.00000

                   13          14          15          16          17          18
 
 P.Frequency      681.49      696.02      721.58      776.08      860.38      968.66
 
           1    -0.01983     0.00000     0.00000     0.00000     0.00000    -0.09411
           2     0.04529     0.00000     0.00000     0.00000     0.00000    -0.00411
           3     0.00000    -0.05667     0.02068    -0.01151    -0.06013     0.00000
           4    -0.00997     0.00000     0.00000     0.00000     0.00000     0.00147
           5    -0.04460     0.00000     0.00000     0.00000     0.00000     0.02537
           6     0.00000     0.22407    -0.09212     0.08413     0.01360     0.00000
           7    -0.08633     0.00000     0.00000     0.00000     0.00000     0.19509
           8     0.02809     0.00000     0.00000     0.00000     0.00000    -0.03398
           9     0.00000    -0.02606     0.02871    -0.14955     0.00071     0.00000
          10    -0.03750     0.00000     0.00000     0.00000     0.00000    -0.06249
          11     0.06505     0.00000     0.00000     0.00000     0.00000    -0.05691
          12     0.00000    -0.02301     0.18107     0.17536     0.03523     0.00000
          13    -0.06489     0.00000     0.00000     0.00000     0.00000    -0.08658
          14    -0.10872     0.00000     0.00000     0.00000     0.00000     0.02042
          15     0.00000     0.00552    -0.05149    -0.04564    -0.03121     0.00000
          16     0.08656     0.00000     0.00000     0.00000     0.00000    -0.17183
          17     0.10164     0.00000     0.00000     0.00000     0.00000    -0.05449
          18     0.00000    -0.22220    -0.25358     0.00897     0.91021     0.00000
          19     0.04411     0.00000     0.00000     0.00000     0.00000     0.02665
          20    -0.06685     0.00000     0.00000     0.00000     0.00000    -0.01748
          21     0.00000    -0.03812     0.02634    -0.01597     0.01223     0.00000
          22    -0.08717     0.00000     0.00000     0.00000     0.00000     0.20527
          23     0.06724     0.00000     0.00000     0.00000     0.00000    -0.00234
          24     0.00000    -0.50028    -0.58978     0.46671    -0.26664     0.00000
          25     0.11176     0.00000     0.00000     0.00000     0.00000     0.03901
          26     0.08064     0.00000     0.00000     0.00000     0.00000     0.04815
          27     0.00000     0.00897    -0.02997    -0.03058    -0.00077     0.00000

                   19          20          21          22          23          24
 
 P.Frequency      988.15     1127.26     1269.15     1421.06     1456.63     1699.92
 
           1    -0.10165     0.02434    -0.05156    -0.00927     0.09310     0.03340
           2    -0.01334     0.00509    -0.04468     0.05715    -0.00177     0.02942
           3     0.00000     0.00000     0.00000     0.00000     0.00000     0.00000
           4    -0.00067    -0.01759     0.04364     0.09522    -0.18989    -0.06735
           5     0.05922     0.05975    -0.12190    -0.05187     0.04034    -0.17418
           6     0.00000     0.00000     0.00000     0.00000     0.00000     0.00000
           7     0.02551     0.03110     0.06624    -0.01013     0.04614     0.03409
           8     0.13039     0.01065    -0.01992    -0.11826    -0.09009     0.14707
           9     0.00000     0.00000     0.00000     0.00000     0.00000     0.00000
          10     0.03304     0.00877     0.03341    -0.01533     0.05384     0.08091
          11     0.07931     0.13195     0.12796     0.11665     0.07030    -0.03202
          12     0.00000     0.00000     0.00000     0.00000     0.00000     0.00000
          13     0.05565    -0.04515    -0.04270     0.01415    -0.04453    -0.04331
          14    -0.01900    -0.00985    -0.00309    -0.02479     0.00097     0.00830
          15     0.00000     0.00000     0.00000     0.00000     0.00000     0.00000
          16    -0.11486    -0.03311     0.48973    -0.57098    -0.01173    -0.34455
          17    -0.02099    -0.02549     0.23306    -0.27953    -0.00948    -0.11987
          18     0.00000     0.00000     0.00000     0.00000     0.00000     0.00000
          19     0.04224     0.01536    -0.03168    -0.00817     0.01930    -0.00391
          20    -0.08737    -0.03590     0.06072     0.03016    -0.02005     0.02119
          21     0.00000     0.00000     0.00000     0.00000     0.00000     0.00000
          22     0.02631     0.04913     0.07923    -0.01022     0.04328     0.05411
          23     0.34175    -0.77891     0.12619     0.15446     0.37331    -0.08899
          24     0.00000     0.00000     0.00000     0.00000     0.00000     0.00000
          25    -0.03537    -0.01276    -0.00966    -0.00917    -0.00507    -0.00244
          26    -0.07228    -0.04523    -0.03081    -0.01699    -0.01155    -0.00451
          27     0.00000     0.00000     0.00000     0.00000     0.00000     0.00000

                   25          26          27
 
 P.Frequency     1763.09     3243.01     3314.85
 
           1    -0.03219     0.02264     0.00118
           2    -0.00985    -0.05486    -0.00121
           3     0.00000     0.00000     0.00000
           4     0.08355     0.01132     0.00235
           5     0.06993     0.00064     0.00493
           6     0.00000     0.00000     0.00000
           7    -0.05731     0.00188    -0.08514
           8    -0.02914    -0.00609    -0.00317
           9     0.00000     0.00000     0.00000
          10     0.20434    -0.01340     0.00103
          11    -0.04219     0.00536    -0.00323
          12     0.00000     0.00000     0.00000
          13    -0.12508     0.00771     0.00064
          14     0.01322     0.00035    -0.00014
          15     0.00000     0.00000     0.00000
          16    -0.06139    -0.45417    -0.00951
          17     0.01380     0.85079     0.02295
          18     0.00000     0.00000     0.00000
          19    -0.00120    -0.00158    -0.00001
          20    -0.00946     0.00072    -0.00037
          21     0.00000     0.00000     0.00000
          22    -0.07339    -0.02481     0.95100
          23     0.04938    -0.00750     0.01588
          24     0.00000     0.00000     0.00000
          25    -0.00489     0.00156     0.00018
          26     0.00417     0.00049     0.00038
          27     0.00000     0.00000     0.00000



 ----------------------------------------------------------------------------
 Normal Eigenvalue ||    Projected Derivative Dipole Moments (debye/angs)
  Mode   [cm**-1]  ||      [d/dqX]             [d/dqY]           [d/dqZ]
 ------ ---------- || ------------------ ------------------ -----------------
    1       -0.000 ||      -0.033              -0.038             0.000
    2       -0.000 ||       0.000               0.000            -0.069
    3       -0.000 ||       0.000               0.000            -0.034
    4        0.000 ||       0.000               0.000             0.096
    5        0.000 ||       0.030               0.035             0.000
    6        0.000 ||      -0.005              -0.005             0.000
    7      141.025 ||       0.000               0.000             0.143
    8      194.273 ||       0.000               0.000             0.278
    9      229.475 ||      -0.444              -0.366             0.000
   10      399.726 ||      -0.158              -0.141             0.000
   11      429.521 ||       0.188               0.006             0.000
   12      583.189 ||       0.224              -0.081             0.000
   13      681.485 ||      -0.322               0.348             0.000
   14      696.021 ||       0.000               0.000            -0.448
   15      721.576 ||       0.000               0.000             0.728
   16      776.076 ||       0.000               0.000             1.190
   17      860.381 ||       0.000               0.000             1.096
   18      968.665 ||      -0.376              -0.294             0.000
   19      988.148 ||       0.442               2.102             0.000
   20     1127.258 ||       0.072               1.986             0.000
   21     1269.146 ||       2.232               0.879             0.000
   22     1421.058 ||      -0.187               1.043             0.000
   23     1456.628 ||      -1.223               1.255             0.000
   24     1699.923 ||      -0.404              -3.967             0.000
   25     1763.086 ||       2.776               0.362             0.000
   26     3243.007 ||      -1.017               2.277             0.000
   27     3314.852 ||       0.442               0.217             0.000
 ----------------------------------------------------------------------------



  
  
 ----------------------------------------------------------------------------
 Normal Eigenvalue ||           Projected Infra Red Intensities
  Mode   [cm**-1]  || [atomic units] [(debye/angs)**2] [(KM/mol)] [arbitrary]
 ------ ---------- || -------------- ----------------- ---------- -----------
    1       -0.000 ||    0.000109           0.003         0.107       0.013
    2       -0.000 ||    0.000205           0.005         0.200       0.024
    3       -0.000 ||    0.000049           0.001         0.047       0.006
    4        0.000 ||    0.000398           0.009         0.388       0.047
    5        0.000 ||    0.000092           0.002         0.089       0.011
    6        0.000 ||    0.000002           0.000         0.002       0.000
    7      141.025 ||    0.000892           0.021         0.869       0.105
    8      194.273 ||    0.003356           0.077         3.272       0.394
    9      229.475 ||    0.014321           0.330        13.961       1.680
   10      399.726 ||    0.001939           0.045         1.890       0.227
   11      429.521 ||    0.001535           0.035         1.496       0.180
   12      583.189 ||    0.002464           0.057         2.402       0.289
   13      681.485 ||    0.009752           0.225         9.507       1.144
   14      696.021 ||    0.008681           0.200         8.462       1.018
   15      721.576 ||    0.022942           0.529        22.365       2.692
   16      776.076 ||    0.061349           1.415        59.806       7.198
   17      860.381 ||    0.052095           1.202        50.784       6.112
   18      968.665 ||    0.009881           0.228         9.633       1.159
   19      988.148 ||    0.200058           4.616       195.027      23.471
   20     1127.258 ||    0.171114           3.948       166.811      20.076
   21     1269.146 ||    0.249502           5.756       243.226      29.272
   22     1421.058 ||    0.048654           1.122        47.431       5.708
   23     1456.628 ||    0.133059           3.070       129.712      15.611
   24     1699.923 ||    0.689247          15.901       671.912      80.865
   25     1763.086 ||    0.339615           7.835       331.074      39.845
   26     3243.007 ||    0.269527           6.218       262.748      31.622
   27     3314.852 ||    0.010497           0.242        10.233       1.231
 ----------------------------------------------------------------------------



 vib:animation  F

 Task  times  cpu:     5988.3s     wall:     6032.8s
 
 
                                NWChem Input Module
                                -------------------
 
 
 Summary of allocated global arrays
-----------------------------------
  No active global arrays



                         GA Statistics for process    0
                         ------------------------------

       create   destroy   get      put      acc     scatter   gather  read&inc
calls: 6.18e+04 6.18e+04 1.21e+07 1.28e+06 3.72e+06    0        0     8.80e+04 
number of processes/call 2.94e+11 -4.74e+12 1.53e+12 0.00e+00 0.00e+00
bytes total:             9.33e+09 1.42e+10 2.63e+09 0.00e+00 0.00e+00 7.04e+05
bytes remote:            4.87e+09 9.63e+09 1.86e+09 0.00e+00 0.00e+00 0.00e+00
Max memory consumed for GA by this process: 142744056 bytes
 
MA_summarize_allocated_blocks: starting scan ...
MA_summarize_allocated_blocks: scan completed: 0 heap blocks, 0 stack blocks
MA usage statistics:

	allocation statistics:
					      heap	     stack
					      ----	     -----
	current number of blocks	         0	         0
	maximum number of blocks	        25	        39
	current total bytes		         0	         0
	maximum total bytes		  97561792	  26250840
	maximum total K-bytes		     97562	     26251
	maximum total M-bytes		        98	        27
 
 
                                     CITATION
                                     --------
                Please cite the following reference when publishing
                           results obtained with NWChem:
 
          E. Apr, E. J. Bylaska, W. A. de Jong, N. Govind, K. Kowalski,
       T. P. Straatsma, M. Valiev, H. J. J. van Dam, Y. Alexeev, J. Anchell,
       V. Anisimov, F. W. Aquino, R. Atta-Fynn, J. Autschbach, N. P. Bauman,
     J. C. Becca, D. E. Bernholdt, K. Bhaskaran-Nair, S. Bogatko, P. Borowski,
        J. Boschen, J. Brabec, A. Bruner, E. Caut, Y. Chen, G. N. Chuev,
      C. J. Cramer, J. Daily, M. J. O. Deegan, T. H. Dunning Jr., M. Dupuis,
   K. G. Dyall, G. I. Fann, S. A. Fischer, A. Fonari, H. Frchtl, L. Gagliardi,
      J. Garza, N. Gawande, S. Ghosh, K. Glaesemann, A. W. Gtz, J. Hammond,
       V. Helms, E. D. Hermes, K. Hirao, S. Hirata, M. Jacquelin, L. Jensen,
   B. G. Johnson, H. Jnsson, R. A. Kendall, M. Klemm, R. Kobayashi, V. Konkov,
      S. Krishnamoorthy, M. Krishnan, Z. Lin, R. D. Lins, R. J. Littlefield,
      A. J. Logsdail, K. Lopata, W. Ma, A. V. Marenich, J. Martin del Campo,
   D. Mejia-Rodriguez, J. E. Moore, J. M. Mullin, T. Nakajima, D. R. Nascimento,
    J. A. Nichols, P. J. Nichols, J. Nieplocha, A. Otero-de-la-Roza, B. Palmer,
    A. Panyala, T. Pirojsirikul, B. Peng, R. Peverati, J. Pittner, L. Pollack,
   R. M. Richard, P. Sadayappan, G. C. Schatz, W. A. Shelton, D. W. Silverstein,
   D. M. A. Smith, T. A. Soares, D. Song, M. Swart, H. L. Taylor, G. S. Thomas,
            V. Tipparaju, D. G. Truhlar, K. Tsemekhman, T. Van Voorhis,
     . Vzquez-Mayagoitia, P. Verma, O. Villa, A. Vishnu, K. D. Vogiatzis,
        D. Wang, J. H. Weare, M. J. Williamson, T. L. Windus, K. Woliski,
        A. T. Wong, Q. Wu, C. Yang, Q. Yu, M. Zacharias, Z. Zhang, Y. Zhao,
                                and R. J. Harrison
                        "NWChem: Past, present, and future
                         J. Chem. Phys. 152, 184102 (2020)
                               doi:10.1063/5.0004997
 
                                      AUTHORS
                                      -------
     E. Apra, E. J. Bylaska, N. Govind, K. Kowalski, M. Valiev, W. A. de Jong,
      T. P. Straatsma, H. J. J. van Dam, D. Wang, T. L. Windus, N. P. Bauman,
       A. Panyala, J. Hammond, J. Autschbach, K. Bhaskaran-Nair, J. Brabec,
    K. Lopata, S. A. Fischer, S. Krishnamoorthy, M. Jacquelin, W. Ma, M. Klemm,
       O. Villa, Y. Chen, V. Anisimov, F. Aquino, S. Hirata, M. T. Hackler,
           Eric Hermes, L. Jensen, J. E. Moore, J. C. Becca, V. Konjkov,
            D. Mejia-Rodriguez, T. Risthaus, M. Malagoli, A. Marenich,
   A. Otero-de-la-Roza, J. Mullin, P. Nichols, R. Peverati, J. Pittner, Y. Zhao,
        P.-D. Fan, A. Fonari, M. J. Williamson, R. J. Harrison, J. R. Rehr,
      M. Dupuis, D. Silverstein, D. M. A. Smith, J. Nieplocha, V. Tipparaju,
      M. Krishnan, B. E. Van Kuiken, A. Vazquez-Mayagoitia, M. Swart, Q. Wu,
   T. Van Voorhis, A. A. Auer, M. Nooijen, L. D. Crosby, E. Brown, G. Cisneros,
     G. I. Fann, H. Fruchtl, J. Garza, K. Hirao, R. A. Kendall, J. A. Nichols,
       K. Tsemekhman, K. Wolinski, J. Anchell, D. E. Bernholdt, P. Borowski,
       T. Clark, D. Clerc, H. Dachsel, M. J. O. Deegan, K. Dyall, D. Elwood,
      E. Glendening, M. Gutowski, A. C. Hess, J. Jaffe, B. G. Johnson, J. Ju,
        R. Kobayashi, R. Kutteh, Z. Lin, R. Littlefield, X. Long, B. Meng,
      T. Nakajima, S. Niu, L. Pollack, M. Rosing, K. Glaesemann, G. Sandrone,
      M. Stave, H. Taylor, G. Thomas, J. H. van Lenthe, A. T. Wong, Z. Zhang.

 Total times  cpu:     7501.9s     wall:     7561.9s
