 argument  1 = 13O.nw
 


============================== echo of input deck ==============================
echo
start 13O
title "F,H,F Open"
charge 0

geometry
 zmatrix
  O
  C  1  R1
  C  2  R2  1  A1
  C  3  R3  2  A2  1  D0
  O  4  R4  3  A3  2  D0
  H  1  R5  2  A4  3  D180
  F  2  R6  3  A5  4  D180
  H  3  R7  2  A6  1  D180
  F  4  R8  3  A7  2  D180
  variables
    R1  1.329
    R2  1.363
    A1  124.5
    R3  1.440
    A2  119.5
    R4  1.249
    A3  123.5
    R5  0.994
    A4  105.4
    R6  1.385
    A5  122.5
    R7  1.078
    A6  120.0
    R8  1.399
    A7  117.6
  constants
    D0  0.000
    D180 180.0
 end
end

basis spherical
 * library aug-cc-pVDZ
end

set lindep:n_dep 0

set cphf:maxsub 95
set cphf:maxiter 999
set int:acc_std 1d-16
set fock:densityscreen f

scf
 maxiter 99
 vectors input atomic
 thresh 1d-9
 tol2e 1d-15
end

mp2
 freeze atomic
 tight
end

driver
 clear
 maxiter 99
 tight
end

set "mp2:aotol2e fock" 1d-15
set mp2:aotol2e 1d-15
set mp2:backtol 1d-15


task mp2 optimize
task mp2 frequencies


================================================================================


                                         
                                         
 
 
             Northwest Computational Chemistry Package (NWChem) 7.0.0
             --------------------------------------------------------
 
 
                    Environmental Molecular Sciences Laboratory
                       Pacific Northwest National Laboratory
                                Richland, WA 99352
 
                              Copyright (c) 1994-2020
                       Pacific Northwest National Laboratory
                            Battelle Memorial Institute
 
             NWChem is an open-source computational chemistry package
                        distributed under the terms of the
                      Educational Community License (ECL) 2.0
             A copy of the license is included with this distribution
                              in the LICENSE.TXT file
 
                                  ACKNOWLEDGMENT
                                  --------------

            This software and its documentation were developed at the
            EMSL at Pacific Northwest National Laboratory, a multiprogram
            national laboratory, operated for the U.S. Department of Energy
            by Battelle under Contract Number DE-AC05-76RL01830. Support
            for this work was provided by the Department of Energy Office
            of Biological and Environmental Research, Office of Basic
            Energy Sciences, and the Office of Advanced Scientific Computing.


           Job information
           ---------------

    hostname        = compute-0-27.local
    program         = /scratch/nwchem.277679
    date            = Sun Apr  4 16:03:57 2021

    compiled        = Wed_Mar_31_13:42:43_2021
    source          = /home/edo/nwchem-7.0.1
    nwchem branch   = 7.0.1
    nwchem revision = de46fdf
    ga revision     = 5.7.1
    use scalapack   = T
    input           = 13O.nw
    prefix          = 13O.
    data base       = ./13O.db
    status          = startup
    nproc           =       11
    time left       =     -1s



           Memory information
           ------------------

    heap     =  215205459 doubles =   1641.9 Mbytes
    stack    =  215205461 doubles =   1641.9 Mbytes
    global   =  122974549 doubles =    938.2 Mbytes (distinct from heap & stack)
    total    =  553385469 doubles =   4222.0 Mbytes
    verify   = yes
    hardfail = no 


           Directory information
           ---------------------
 
  0 permanent = .
  0 scratch   = /scratch
 
 
 
 
                                NWChem Input Module
                                -------------------
 
 
                                    F,H,F Open
                                    ----------

 Scaling coordinates for geometry "geometry" by  1.889725989
 (inverse scale =  0.529177249)

 CS  symmetry detected
 
 
                             Geometry "geometry" -> ""
                             -------------------------
 
 Output coordinates in angstroms (scale by  1.889725989 to convert to a.u.)
 
  No.       Tag          Charge          X              Y              Z
 ---- ---------------- ---------- -------------- -------------- --------------
    1 O                    8.0000    -1.20396109    -1.28371617     0.00000000
    2 C                    6.0000     0.11822130    -1.14927393     0.00000000
    3 C                    6.0000     0.77264076     0.04634481     0.00000000
    4 C                    6.0000     0.01369629     1.27011084     0.00000000
    5 O                    8.0000    -1.23475785     1.30703327     0.00000000
    6 H                    1.0000    -1.36962662    -2.26381358     0.00000000
    7 F                    9.0000     0.78557720    -2.36288882     0.00000000
    8 H                    1.0000     1.85036073     0.07091458     0.00000000
    9 F                    9.0000     0.72571916     2.47436348     0.00000000
 
      Atomic Mass 
      ----------- 
 
      O                 15.994910
      C                 12.000000
      H                  1.007825
      F                 18.998400
 

 Effective nuclear repulsion energy (a.u.)     291.9446068209

            Nuclear Dipole moment (a.u.) 
            ----------------------------
        X                 Y               Z
 ---------------- ---------------- ----------------
     0.0000000000     0.0000000000     0.0000000000
 
      Symmetry information
      --------------------
 
 Group name             Cs        
 Group number              2
 Group order               2
 No. of unique centers     9
 
      Symmetry unique atoms
 
     1    2    3    4    5    6    7    8    9
 


                                Z-matrix (user)
                                -------- 

 Units are Angstrom for bonds and degrees for angles

  Constants are marked with an asterisk (*).

  Constrained variables are marked with a plus sign (+).

 
      Type          Name      I     J     K     L     M      Value
      ----------- --------  ----- ----- ----- ----- ----- ----------
    1 Stretch      R1          2     1                       1.32900
    2 Stretch      R2          3     2                       1.36300
    3 Bend         A1          3     2     1               124.50000
    4 Stretch      R3          4     3                       1.44000
    5 Bend         A2          4     3     2               119.50000
    6*Torsion      D0          4     3     2     1           0.00000
    7 Stretch      R4          5     4                       1.24900
    8 Bend         A3          5     4     3               123.50000
    9*Torsion      D0          5     4     3     2           0.00000
   10 Stretch      R5          6     1                       0.99400
   11 Bend         A4          6     1     2               105.40000
   12*Torsion      D180        6     1     2     3         180.00000
   13 Stretch      R6          7     2                       1.38500
   14 Bend         A5          7     2     3               122.50000
   15*Torsion      D180        7     2     3     4         180.00000
   16 Stretch      R7          8     3                       1.07800
   17 Bend         A6          8     3     2               120.00000
   18*Torsion      D180        8     3     2     1         180.00000
   19 Stretch      R8          9     4                       1.39900
   20 Bend         A7          9     4     3               117.60000
   21*Torsion      D180        9     4     3     2         180.00000
 
 
            XYZ format geometry
            -------------------
     9
 geometry
 O                    -1.20396109    -1.28371617     0.00000000
 C                     0.11822130    -1.14927393     0.00000000
 C                     0.77264076     0.04634481     0.00000000
 C                     0.01369629     1.27011084     0.00000000
 O                    -1.23475785     1.30703327     0.00000000
 H                    -1.36962662    -2.26381358     0.00000000
 F                     0.78557720    -2.36288882     0.00000000
 H                     1.85036073     0.07091458     0.00000000
 F                     0.72571916     2.47436348     0.00000000
 
 ==============================================================================
                                internuclear distances
 ------------------------------------------------------------------------------
       center one      |      center two      | atomic units |  angstroms
 ------------------------------------------------------------------------------
    2 C                |   1 O                |     2.51145  |     1.32900
    3 C                |   2 C                |     2.57570  |     1.36300
    4 C                |   3 C                |     2.72121  |     1.44000
    5 O                |   4 C                |     2.36027  |     1.24900
    6 H                |   1 O                |     1.87839  |     0.99400
    7 F                |   2 C                |     2.61727  |     1.38500
    8 H                |   3 C                |     2.03712  |     1.07800
    9 F                |   4 C                |     2.64373  |     1.39900
 ------------------------------------------------------------------------------
                         number of included internuclear distances:          8
 ==============================================================================



 ==============================================================================
                                 internuclear angles
 ------------------------------------------------------------------------------
        center 1       |       center 2       |       center 3       |  degrees
 ------------------------------------------------------------------------------
    2 C                |   1 O                |   6 H                |   105.40
    1 O                |   2 C                |   3 C                |   124.50
    1 O                |   2 C                |   7 F                |   113.00
    3 C                |   2 C                |   7 F                |   122.50
    2 C                |   3 C                |   4 C                |   119.50
    2 C                |   3 C                |   8 H                |   120.00
    4 C                |   3 C                |   8 H                |   120.50
    3 C                |   4 C                |   5 O                |   123.50
    3 C                |   4 C                |   9 F                |   117.60
    5 O                |   4 C                |   9 F                |   118.90
 ------------------------------------------------------------------------------
                            number of included internuclear angles:         10
 ==============================================================================





 Summary of "ao basis" -> "" (spherical)
 ------------------------------------------------------------------------------
       Tag                 Description            Shells   Functions and Types
 ---------------- ------------------------------  ------  ---------------------
 *                        aug-cc-pVDZ                 on all atoms 


 
  Deleted DRIVER restart files 
 
 
 
                           NWChem Geometry Optimization
                           ----------------------------
 
 
 
 
                                    F,H,F Open
 
 
 maximum gradient threshold         (gmax) =   0.000015
 rms gradient threshold             (grms) =   0.000010
 maximum cartesian step threshold   (xmax) =   0.000060
 rms cartesian step threshold       (xrms) =   0.000040
 fixed trust radius                (trust) =   0.300000
 maximum step size to saddle      (sadstp) =   0.100000
 energy precision                  (eprec) =   1.0D-07
 maximum number of steps          (nptopt) =   99
 initial hessian option           (inhess) =    0
 line search option               (linopt) =    1
 hessian update option            (modupd) =    1
 saddle point option              (modsad) =    0
 initial eigen-mode to follow     (moddir) =    0
 initial variable to follow       (vardir) =    0
 follow first negative mode     (firstneg) =    T
 apply conjugacy                    (opcg) =    F
 source of zmatrix                         =   user    


          -------------------
          Energy Minimization
          -------------------

 
 Names of Z-matrix variables 
    1 R1           2 R2           3 A1           4 R3           5 A2      
    6 D0           7 R4           8 A3           9 D0          10 R5      
   11 A4          12 D180        13 R6          14 A5          15 D180    
   16 R7          17 A6          18 D180        19 R8          20 A7      
   21 D180    
 
 Variables with the same non-blank name are constrained to be equal
 
     variables named       D0 =     6    9 
     variables named     D180 =    12   15   18   21 

 Number of frozen variables =    6
           Frozen variables =    6    9   12   15   18   21
 
 Using diagonal initial Hessian 
 Scaling for Hessian diagonals: bonds = 1.00  angles = 0.25  torsions = 0.10

          --------
          Step   0
          --------
 
 
                         Geometry "geometry" -> "geometry"
                         ---------------------------------
 
 Output coordinates in angstroms (scale by  1.889725989 to convert to a.u.)
 
  No.       Tag          Charge          X              Y              Z
 ---- ---------------- ---------- -------------- -------------- --------------
    1 O                    8.0000    -1.20396109    -1.28371617     0.00000000
    2 C                    6.0000     0.11822130    -1.14927393     0.00000000
    3 C                    6.0000     0.77264076     0.04634481     0.00000000
    4 C                    6.0000     0.01369629     1.27011084     0.00000000
    5 O                    8.0000    -1.23475785     1.30703327     0.00000000
    6 H                    1.0000    -1.36962662    -2.26381358     0.00000000
    7 F                    9.0000     0.78557720    -2.36288882     0.00000000
    8 H                    1.0000     1.85036073     0.07091458     0.00000000
    9 F                    9.0000     0.72571916     2.47436348     0.00000000
 
      Atomic Mass 
      ----------- 
 
      O                 15.994910
      C                 12.000000
      H                  1.007825
      F                 18.998400
 

 Effective nuclear repulsion energy (a.u.)     291.9446068209

            Nuclear Dipole moment (a.u.) 
            ----------------------------
        X                 Y               Z
 ---------------- ---------------- ----------------
     0.0000000000     0.0000000000     0.0000000000
 
      Symmetry information
      --------------------
 
 Group name             Cs        
 Group number              2
 Group order               2
 No. of unique centers     9
 
      Symmetry unique atoms
 
     1    2    3    4    5    6    7    8    9
 
                      Basis "ao basis" -> "ao basis" (spherical)
                      -----
  O (Oxygen)
  ----------
            Exponent  Coefficients 
       -------------- ---------------------------------------------------------
  1 S  1.17200000E+04  0.000710
  1 S  1.75900000E+03  0.005470
  1 S  4.00800000E+02  0.027837
  1 S  1.13700000E+02  0.104800
  1 S  3.70300000E+01  0.283062
  1 S  1.32700000E+01  0.448719
  1 S  5.02500000E+00  0.270952
  1 S  1.01300000E+00  0.015458
 
  2 S  1.17200000E+04 -0.000160
  2 S  1.75900000E+03 -0.001263
  2 S  4.00800000E+02 -0.006267
  2 S  1.13700000E+02 -0.025716
  2 S  3.70300000E+01 -0.070924
  2 S  1.32700000E+01 -0.165411
  2 S  5.02500000E+00 -0.116955
  2 S  1.01300000E+00  0.557368
 
  3 S  3.02300000E-01  1.000000
 
  4 S  7.89600000E-02  1.000000
 
  5 P  1.77000000E+01  0.043018
  5 P  3.85400000E+00  0.228913
  5 P  1.04600000E+00  0.508728
 
  6 P  2.75300000E-01  1.000000
 
  7 P  6.85600000E-02  1.000000
 
  8 D  1.18500000E+00  1.000000
 
  9 D  3.32000000E-01  1.000000
 
  C (Carbon)
  ----------
            Exponent  Coefficients 
       -------------- ---------------------------------------------------------
  1 S  6.66500000E+03  0.000692
  1 S  1.00000000E+03  0.005329
  1 S  2.28000000E+02  0.027077
  1 S  6.47100000E+01  0.101718
  1 S  2.10600000E+01  0.274740
  1 S  7.49500000E+00  0.448564
  1 S  2.79700000E+00  0.285074
  1 S  5.21500000E-01  0.015204
 
  2 S  6.66500000E+03 -0.000146
  2 S  1.00000000E+03 -0.001154
  2 S  2.28000000E+02 -0.005725
  2 S  6.47100000E+01 -0.023312
  2 S  2.10600000E+01 -0.063955
  2 S  7.49500000E+00 -0.149981
  2 S  2.79700000E+00 -0.127262
  2 S  5.21500000E-01  0.544529
 
  3 S  1.59600000E-01  1.000000
 
  4 S  4.69000000E-02  1.000000
 
  5 P  9.43900000E+00  0.038109
  5 P  2.00200000E+00  0.209480
  5 P  5.45600000E-01  0.508557
 
  6 P  1.51700000E-01  1.000000
 
  7 P  4.04100000E-02  1.000000
 
  8 D  5.50000000E-01  1.000000
 
  9 D  1.51000000E-01  1.000000
 
  H (Hydrogen)
  ------------
            Exponent  Coefficients 
       -------------- ---------------------------------------------------------
  1 S  1.30100000E+01  0.019685
  1 S  1.96200000E+00  0.137977
  1 S  4.44600000E-01  0.478148
 
  2 S  1.22000000E-01  1.000000
 
  3 S  2.97400000E-02  1.000000
 
  4 P  7.27000000E-01  1.000000
 
  5 P  1.41000000E-01  1.000000
 
  F (Fluorine)
  ------------
            Exponent  Coefficients 
       -------------- ---------------------------------------------------------
  1 S  1.47100000E+04  0.000721
  1 S  2.20700000E+03  0.005553
  1 S  5.02800000E+02  0.028267
  1 S  1.42600000E+02  0.106444
  1 S  4.64700000E+01  0.286814
  1 S  1.67000000E+01  0.448641
  1 S  6.35600000E+00  0.264761
  1 S  1.31600000E+00  0.015333
 
  2 S  1.47100000E+04 -0.000165
  2 S  2.20700000E+03 -0.001308
  2 S  5.02800000E+02 -0.006495
  2 S  1.42600000E+02 -0.026691
  2 S  4.64700000E+01 -0.073690
  2 S  1.67000000E+01 -0.170776
  2 S  6.35600000E+00 -0.112327
  2 S  1.31600000E+00  0.562814
 
  3 S  3.89700000E-01  1.000000
 
  4 S  9.86300000E-02  1.000000
 
  5 P  2.26700000E+01  0.044878
  5 P  4.97700000E+00  0.235718
  5 P  1.34700000E+00  0.508521
 
  6 P  3.47100000E-01  1.000000
 
  7 P  8.50200000E-02  1.000000
 
  8 D  1.64000000E+00  1.000000
 
  9 D  4.64000000E-01  1.000000
 


 Summary of "ao basis" -> "ao basis" (spherical)
 ------------------------------------------------------------------------------
       Tag                 Description            Shells   Functions and Types
 ---------------- ------------------------------  ------  ---------------------
 O                        aug-cc-pVDZ                9       23   4s3p2d
 C                        aug-cc-pVDZ                9       23   4s3p2d
 H                        aug-cc-pVDZ                5        9   3s2p
 F                        aug-cc-pVDZ                9       23   4s3p2d


                                 NWChem SCF Module
                                 -----------------
 
 
                                    F,H,F Open
 
 

  ao basis        = "ao basis"
  functions       =   179
  atoms           =     9
  closed shells   =    27
  open shells     =     0
  charge          =   0.00
  wavefunction    = RHF 
  input vectors   = atomic
  output vectors  = ./13O.movecs
  use symmetry    = T
  symmetry adapt  = T


 Summary of "ao basis" -> "ao basis" (spherical)
 ------------------------------------------------------------------------------
       Tag                 Description            Shells   Functions and Types
 ---------------- ------------------------------  ------  ---------------------
 O                        aug-cc-pVDZ                9       23   4s3p2d
 C                        aug-cc-pVDZ                9       23   4s3p2d
 H                        aug-cc-pVDZ                5        9   3s2p
 F                        aug-cc-pVDZ                9       23   4s3p2d


      Symmetry analysis of basis
      --------------------------
 
        a'        126
        a"         53
 

int_init: setting std/high accuracies to  1.0D-16  1.0D-32

 Forming initial guess at       0.8s


 Forcing the number of linearly dependent vectors to be  0
 
      Superposition of Atomic Density Guess
      -------------------------------------
 
 Sum of atomic energies:        -462.31053347
 
      Non-variational initial energy
      ------------------------------

 Total energy =    -464.891107
 1-e energy   =   -1217.485133
 2-e energy   =     460.649419
 HOMO         =      -0.290934
 LUMO         =      -0.007293
 
 
      Symmetry analysis of molecular orbitals - initial
      -------------------------------------------------
 
  Numbering of irreducible representations: 
 
     1 a'          2 a"      
 
  Orbital symmetries:
 
     1 a'          2 a'          3 a'          4 a'          5 a'      
     6 a'          7 a'          8 a'          9 a'         10 a'      
    11 a'         12 a'         13 a'         14 a'         15 a'      
    16 a'         17 a"         18 a'         19 a"         20 a'      
    21 a'         22 a"         23 a'         24 a'         25 a"      
    26 a'         27 a"         28 a"         29 a'         30 a'      
    31 a'         32 a'         33 a"         34 a'         35 a'      
    36 a'         37 a"      
 

 Starting SCF solution at       2.9s



 ----------------------------------------------
         Quadratically convergent ROHF

 Convergence threshold     :          1.000E-09
 Maximum no. of iterations :           99
 Final Fock-matrix accuracy:          1.000E-15
 ----------------------------------------------

 Warning: symmetry breaking in RHF:   4.542146501496834E-014

              iter       energy          gnorm     gmax       time
             ----- ------------------- --------- --------- --------
                 1     -463.1787606564  1.93D+00  3.00D-01      4.9
 Warning: symmetry breaking in RHF:   1.733844107894641E-013
 Warning: symmetry breaking in RHF:   1.175019203324916E-013
                 2     -463.3733271145  5.04D-01  7.79D-02      9.3
 Warning: symmetry breaking in RHF:   1.289273063150583E-013
                 3     -463.3984145022  2.43D-02  6.26D-03     17.2
 Warning: symmetry breaking in RHF:   1.305647914494599E-013
                 4     -463.3985493777  4.25D-04  8.91D-05     29.0
 Warning: symmetry breaking in RHF:   1.305631926780793E-013
                 5     -463.3985493950  1.08D-07  1.39D-08     47.3
 Warning: symmetry breaking in RHF:   1.077749776674892E-013
                 6     -463.3985493950  6.32D-11  1.32D-11     64.5


       Final RHF  results 
       ------------------ 

         Total SCF energy =   -463.398549394953
      One-electron energy =  -1219.235539793150
      Two-electron energy =    463.892383577342
 Nuclear repulsion energy =    291.944606820855

        Time for solution =     61.8s


 
       Symmetry analysis of molecular orbitals - final
       -----------------------------------------------
 
  Numbering of irreducible representations: 
 
     1 a'          2 a"      
 
  Orbital symmetries:
 
     1 a'          2 a'          3 a'          4 a'          5 a'      
     6 a'          7 a'          8 a'          9 a'         10 a'      
    11 a'         12 a'         13 a'         14 a'         15 a'      
    16 a'         17 a"         18 a'         19 a'         20 a"      
    21 a'         22 a'         23 a"         24 a'         25 a"      
    26 a'         27 a"         28 a'         29 a'         30 a"      
    31 a'         32 a"         33 a'         34 a'         35 a'      
    36 a"         37 a'      
 
             Final eigenvalues
             -----------------

              1      
    1  -26.3937
    2  -26.3413
    3  -20.6778
    4  -20.5773
    5  -11.4793
    6  -11.4475
    7  -11.2844
    8   -1.6931
    9   -1.6366
   10   -1.4851
   11   -1.3860
   12   -1.1137
   13   -0.9344
   14   -0.8444
   15   -0.8293
   16   -0.7721
   17   -0.7591
   18   -0.7172
   19   -0.7064
   20   -0.7025
   21   -0.6516
   22   -0.6467
   23   -0.6325
   24   -0.6081
   25   -0.5298
   26   -0.4778
   27   -0.3976
   28    0.0242
   29    0.0392
   30    0.0720
   31    0.0782
   32    0.0917
   33    0.1004
   34    0.1156
   35    0.1253
   36    0.1273
   37    0.1361
 
                       ROHF Final Molecular Orbital Analysis
                       -------------------------------------
 
 Vector   10  Occ=2.000000D+00  E=-1.485128D+00  Symmetry=a'
              MO Center= -9.1D-01, -1.4D+00, -1.4D-17, r^2= 7.7D-01
   Bfn.  Coefficient  Atom+Function         Bfn.  Coefficient  Atom+Function  
  ----- ------------  ---------------      ----- ------------  ---------------
     3      0.456687  1 O  s                  2      0.412341  1 O  s          
   116      0.168997  6 H  s          
 
 Vector   11  Occ=2.000000D+00  E=-1.385991D+00  Symmetry=a'
              MO Center= -8.5D-01,  1.3D+00, -2.6D-31, r^2= 7.4D-01
   Bfn.  Coefficient  Atom+Function         Bfn.  Coefficient  Atom+Function  
  ----- ------------  ---------------      ----- ------------  ---------------
    95      0.437115  5 O  s                 94      0.395995  5 O  s          
    72      0.230897  4 C  s                 71      0.203663  4 C  s          
    74     -0.190314  4 C  px                55     -0.169896  3 C  py         
    26     -0.156753  2 C  s          
 
 Vector   12  Occ=2.000000D+00  E=-1.113692D+00  Symmetry=a'
              MO Center=  3.6D-01, -2.6D-01, -3.2D-16, r^2= 1.7D+00
   Bfn.  Coefficient  Atom+Function         Bfn.  Coefficient  Atom+Function  
  ----- ------------  ---------------      ----- ------------  ---------------
    48      0.315191  3 C  s                 25      0.232026  2 C  s          
    26      0.193009  2 C  s                 29      0.153247  2 C  py         
 
 Vector   13  Occ=2.000000D+00  E=-9.343735D-01  Symmetry=a'
              MO Center=  2.2D-01, -2.4D-01,  2.9D-30, r^2= 3.9D+00
   Bfn.  Coefficient  Atom+Function         Bfn.  Coefficient  Atom+Function  
  ----- ------------  ---------------      ----- ------------  ---------------
    27      0.362687  2 C  s                 26     -0.253960  2 C  s          
    25     -0.246528  2 C  s                 50     -0.228993  3 C  s          
   130     -0.220882  7 F  py                71      0.214603  4 C  s          
    52      0.206363  3 C  py                72      0.175419  4 C  s          
   162     -0.174617  9 F  py                 5     -0.165361  1 O  px         
 
 Vector   14  Occ=2.000000D+00  E=-8.443528D-01  Symmetry=a'
              MO Center=  3.3D-01, -3.6D-01,  7.2D-17, r^2= 5.0D+00
   Bfn.  Coefficient  Atom+Function         Bfn.  Coefficient  Atom+Function  
  ----- ------------  ---------------      ----- ------------  ---------------
   129      0.299825  7 F  px                50     -0.264414  3 C  s          
    29      0.250647  2 C  py               162      0.241802  9 F  py         
    72     -0.200725  4 C  s                130     -0.198951  7 F  py         
   132      0.195582  7 F  px                27      0.179579  2 C  s          
    73      0.173752  4 C  s                 71     -0.167683  4 C  s          
 
 Vector   15  Occ=2.000000D+00  E=-8.293040D-01  Symmetry=a'
              MO Center= -3.8D-01, -1.3D+00,  1.6D-16, r^2= 2.3D+00
   Bfn.  Coefficient  Atom+Function         Bfn.  Coefficient  Atom+Function  
  ----- ------------  ---------------      ----- ------------  ---------------
    28     -0.294164  2 C  px                 5      0.280122  1 O  px         
     6      0.281076  1 O  py               116     -0.271202  6 H  s          
   130     -0.253383  7 F  py               133     -0.169817  7 F  py         
   149     -0.162236  8 H  s          
 
 Vector   16  Occ=2.000000D+00  E=-7.721211D-01  Symmetry=a'
              MO Center=  4.4D-01,  1.9D-01,  6.4D-18, r^2= 5.2D+00
   Bfn.  Coefficient  Atom+Function         Bfn.  Coefficient  Atom+Function  
  ----- ------------  ---------------      ----- ------------  ---------------
   129      0.342685  7 F  px               161     -0.312795  9 F  px         
    75      0.243824  4 C  py               132      0.235950  7 F  px         
   164     -0.207266  9 F  px               162     -0.177818  9 F  py         
    50      0.154693  3 C  s          
 
 Vector   17  Occ=2.000000D+00  E=-7.590720D-01  Symmetry=a"
              MO Center=  5.5D-01, -2.1D+00, -2.3D-16, r^2= 1.1D+00
   Bfn.  Coefficient  Atom+Function         Bfn.  Coefficient  Atom+Function  
  ----- ------------  ---------------      ----- ------------  ---------------
   131      0.582258  7 F  pz               134      0.395572  7 F  pz         
    30      0.190318  2 C  pz                 7      0.164355  1 O  pz         
 
 Vector   18  Occ=2.000000D+00  E=-7.172403D-01  Symmetry=a'
              MO Center=  4.1D-01, -3.0D-03,  1.9D-16, r^2= 5.4D+00
   Bfn.  Coefficient  Atom+Function         Bfn.  Coefficient  Atom+Function  
  ----- ------------  ---------------      ----- ------------  ---------------
    50     -0.404071  3 C  s                 27      0.377538  2 C  s          
   161     -0.341599  9 F  px               130     -0.326543  7 F  py         
   164     -0.236289  9 F  px               133     -0.231386  7 F  py         
   129     -0.220869  7 F  px               162      0.180383  9 F  py         
    49      0.166676  3 C  s                132     -0.159437  7 F  px         
 
 Vector   19  Occ=2.000000D+00  E=-7.063762D-01  Symmetry=a'
              MO Center= -6.6D-02,  8.9D-01, -3.1D-17, r^2= 3.3D+00
   Bfn.  Coefficient  Atom+Function         Bfn.  Coefficient  Atom+Function  
  ----- ------------  ---------------      ----- ------------  ---------------
    97      0.294051  5 O  px                72      0.287067  4 C  s          
    95     -0.259715  5 O  s                162      0.256090  9 F  py         
   149     -0.227544  8 H  s                 51     -0.224991  3 C  px         
   148     -0.215380  8 H  s                 75     -0.183113  4 C  py         
   165      0.177771  9 F  py                74     -0.176710  4 C  px         
 
 Vector   20  Occ=2.000000D+00  E=-7.025223D-01  Symmetry=a"
              MO Center=  5.6D-01,  2.2D+00, -5.7D-16, r^2= 1.2D+00
   Bfn.  Coefficient  Atom+Function         Bfn.  Coefficient  Atom+Function  
  ----- ------------  ---------------      ----- ------------  ---------------
   163      0.593614  9 F  pz               166      0.406730  9 F  pz         
    76      0.185234  4 C  pz         
 
 Vector   21  Occ=2.000000D+00  E=-6.516157D-01  Symmetry=a'
              MO Center=  1.9D-01, -6.6D-01,  1.7D-18, r^2= 3.7D+00
   Bfn.  Coefficient  Atom+Function         Bfn.  Coefficient  Atom+Function  
  ----- ------------  ---------------      ----- ------------  ---------------
   129      0.315622  7 F  px                 5      0.312295  1 O  px         
    50     -0.275169  3 C  s                149      0.260335  8 H  s          
   132      0.226469  7 F  px                28     -0.219383  2 C  px         
    51      0.207407  3 C  px               148      0.206152  8 H  s          
   162      0.203825  9 F  py                 8      0.184923  1 O  px         
 
 Vector   22  Occ=2.000000D+00  E=-6.467441D-01  Symmetry=a'
              MO Center= -1.3D-01, -3.9D-01, -7.3D-17, r^2= 4.3D+00
   Bfn.  Coefficient  Atom+Function         Bfn.  Coefficient  Atom+Function  
  ----- ------------  ---------------      ----- ------------  ---------------
     6      0.345977  1 O  py               161     -0.221450  9 F  px         
    26     -0.215141  2 C  s                116     -0.208311  6 H  s          
     9      0.205144  1 O  py               162      0.204947  9 F  py         
   129     -0.200505  7 F  px                 3      0.198850  1 O  s          
     5     -0.171675  1 O  px               148      0.171262  8 H  s          
 
 Vector   23  Occ=2.000000D+00  E=-6.325006D-01  Symmetry=a"
              MO Center= -6.8D-01, -1.3D+00, -8.0D-17, r^2= 1.8D+00
   Bfn.  Coefficient  Atom+Function         Bfn.  Coefficient  Atom+Function  
  ----- ------------  ---------------      ----- ------------  ---------------
     7      0.527835  1 O  pz                10      0.388449  1 O  pz         
   131     -0.278688  7 F  pz               134     -0.200477  7 F  pz         
    30      0.179964  2 C  pz         
 
 Vector   24  Occ=2.000000D+00  E=-6.081191D-01  Symmetry=a'
              MO Center= -1.7D-01,  1.2D+00,  1.8D-15, r^2= 2.8D+00
   Bfn.  Coefficient  Atom+Function         Bfn.  Coefficient  Atom+Function  
  ----- ------------  ---------------      ----- ------------  ---------------
    97      0.372194  5 O  px               161      0.323178  9 F  px         
    74     -0.295735  4 C  px               164      0.231083  9 F  px         
    51      0.198175  3 C  px               149      0.197793  8 H  s          
   100      0.183807  5 O  px                95     -0.179070  5 O  s          
   148      0.166396  8 H  s          
 
 Vector   25  Occ=2.000000D+00  E=-5.297766D-01  Symmetry=a"
              MO Center= -5.6D-01,  1.2D+00,  4.5D-16, r^2= 2.0D+00
   Bfn.  Coefficient  Atom+Function         Bfn.  Coefficient  Atom+Function  
  ----- ------------  ---------------      ----- ------------  ---------------
    99      0.434069  5 O  pz               102      0.320796  5 O  pz         
    76      0.286821  4 C  pz               163     -0.258417  9 F  pz         
   166     -0.189217  9 F  pz                 7     -0.157819  1 O  pz         
 
 Vector   26  Occ=2.000000D+00  E=-4.777526D-01  Symmetry=a'
              MO Center= -8.6D-01,  1.3D+00,  1.2D-16, r^2= 1.6D+00
   Bfn.  Coefficient  Atom+Function         Bfn.  Coefficient  Atom+Function  
  ----- ------------  ---------------      ----- ------------  ---------------
    98      0.586368  5 O  py               101      0.435169  5 O  py         
    72      0.173505  4 C  s                 27     -0.152756  2 C  s          
 
 Vector   27  Occ=2.000000D+00  E=-3.976143D-01  Symmetry=a"
              MO Center=  1.2D-01, -1.5D-01, -1.3D-15, r^2= 2.5D+00
   Bfn.  Coefficient  Atom+Function         Bfn.  Coefficient  Atom+Function  
  ----- ------------  ---------------      ----- ------------  ---------------
    53      0.409664  3 C  pz                56      0.312398  3 C  pz         
    30      0.277291  2 C  pz                99     -0.260661  5 O  pz         
     7     -0.222194  1 O  pz               102     -0.198810  5 O  pz         
    10     -0.177044  1 O  pz                33      0.175153  2 C  pz         
 
 Vector   28  Occ=0.000000D+00  E= 2.422707D-02  Symmetry=a'
              MO Center= -1.0D+00, -2.9D+00,  1.3D-16, r^2= 1.5D+01
   Bfn.  Coefficient  Atom+Function         Bfn.  Coefficient  Atom+Function  
  ----- ------------  ---------------      ----- ------------  ---------------
    73      3.168232  4 C  s                 27      2.949751  2 C  s          
   118     -2.353027  6 H  s                 57      1.955781  3 C  px         
   150     -1.743321  8 H  s                 34     -1.563999  2 C  px         
    50     -1.401575  3 C  s                  4     -1.130456  1 O  s          
    58     -0.787869  3 C  py                55     -0.527525  3 C  py         
 
 Vector   29  Occ=0.000000D+00  E= 3.922918D-02  Symmetry=a'
              MO Center=  1.9D+00, -7.1D-01,  5.0D-17, r^2= 2.2D+01
   Bfn.  Coefficient  Atom+Function         Bfn.  Coefficient  Atom+Function  
  ----- ------------  ---------------      ----- ------------  ---------------
    50     -9.495417  3 C  s                 27      8.695955  2 C  s          
   150     -5.187193  8 H  s                 73      5.051663  4 C  s          
    57      4.323427  3 C  px                35      2.603970  2 C  py         
   118      2.209901  6 H  s                 58      1.489800  3 C  py         
    34      1.473859  2 C  px                81     -1.206578  4 C  py         
 
 Vector   30  Occ=0.000000D+00  E= 7.200618D-02  Symmetry=a"
              MO Center=  1.1D-01,  7.1D-02,  2.9D-15, r^2= 3.9D+00
   Bfn.  Coefficient  Atom+Function         Bfn.  Coefficient  Atom+Function  
  ----- ------------  ---------------      ----- ------------  ---------------
    36      0.748078  2 C  pz                59     -0.569777  3 C  pz         
    33      0.469952  2 C  pz                30      0.427063  2 C  pz         
    76     -0.305141  4 C  pz                79     -0.305707  4 C  pz         
    82     -0.298585  4 C  pz               105      0.288399  5 O  pz         
    13     -0.251269  1 O  pz                99      0.231974  5 O  pz         
 
 Vector   31  Occ=0.000000D+00  E= 7.816313D-02  Symmetry=a'
              MO Center=  3.0D-01, -1.0D-02, -2.9D-16, r^2= 2.2D+01
   Bfn.  Coefficient  Atom+Function         Bfn.  Coefficient  Atom+Function  
  ----- ------------  ---------------      ----- ------------  ---------------
    27     14.479845  2 C  s                 73    -11.028366  4 C  s          
    58      6.189471  3 C  py                35      5.284009  2 C  py         
    50     -5.241356  3 C  s                 81      2.742902  4 C  py         
    34      2.728863  2 C  px               118      1.851352  6 H  s          
    80     -1.760120  4 C  px                96      1.190458  5 O  s          
 
 Vector   32  Occ=0.000000D+00  E= 9.174244D-02  Symmetry=a"
              MO Center= -1.2D-01, -1.1D+00, -1.0D-15, r^2= 1.3D+01
   Bfn.  Coefficient  Atom+Function         Bfn.  Coefficient  Atom+Function  
  ----- ------------  ---------------      ----- ------------  ---------------
    36      2.413633  2 C  pz                59     -1.447665  3 C  pz         
    82      1.037604  4 C  pz                13     -0.613328  1 O  pz         
   137     -0.342461  7 F  pz               105     -0.315252  5 O  pz         
 
 Vector   33  Occ=0.000000D+00  E= 1.004351D-01  Symmetry=a'
              MO Center= -3.0D-02,  6.1D-01, -1.6D-15, r^2= 2.2D+01
   Bfn.  Coefficient  Atom+Function         Bfn.  Coefficient  Atom+Function  
  ----- ------------  ---------------      ----- ------------  ---------------
    50     21.550032  3 C  s                 73    -10.291039  4 C  s          
    27     -9.182948  2 C  s                 57     -5.003503  3 C  px         
    35     -4.960777  2 C  py                81      3.562849  4 C  py         
   118     -2.011428  6 H  s                 80     -1.839779  4 C  px         
   150      1.588980  8 H  s                149     -1.290437  8 H  s          
 
 Vector   34  Occ=0.000000D+00  E= 1.155614D-01  Symmetry=a'
              MO Center= -2.7D-01,  2.4D-02,  9.4D-16, r^2= 1.6D+01
   Bfn.  Coefficient  Atom+Function         Bfn.  Coefficient  Atom+Function  
  ----- ------------  ---------------      ----- ------------  ---------------
    50     13.156336  3 C  s                 73    -11.377982  4 C  s          
    27     -8.113548  2 C  s                 96      3.414974  5 O  s          
    57     -3.266797  3 C  px                35     -3.002234  2 C  py         
    81      2.464747  4 C  py                 4      2.277940  1 O  s          
    58      2.232242  3 C  py               150      1.671171  8 H  s          
 
 Vector   35  Occ=0.000000D+00  E= 1.252571D-01  Symmetry=a'
              MO Center= -4.7D-01, -4.0D-01, -2.6D-15, r^2= 1.9D+01
   Bfn.  Coefficient  Atom+Function         Bfn.  Coefficient  Atom+Function  
  ----- ------------  ---------------      ----- ------------  ---------------
    73      5.574653  4 C  s                 34     -4.452229  2 C  px         
     4     -4.392408  1 O  s                 27      3.172671  2 C  s          
    80      3.150917  4 C  px               118     -2.766129  6 H  s          
    58     -1.951128  3 C  py                35     -1.842209  2 C  py         
    50     -1.626224  3 C  s                160     -1.513103  9 F  s          
 
 Vector   36  Occ=0.000000D+00  E= 1.273474D-01  Symmetry=a"
              MO Center=  2.5D-01,  8.5D-01,  4.1D-17, r^2= 1.5D+01
   Bfn.  Coefficient  Atom+Function         Bfn.  Coefficient  Atom+Function  
  ----- ------------  ---------------      ----- ------------  ---------------
    82      2.060221  4 C  pz                36     -1.814439  2 C  pz         
   105     -0.531162  5 O  pz               169     -0.396391  9 F  pz         
    59      0.380076  3 C  pz                13      0.375614  1 O  pz         
   137      0.236208  7 F  pz                79     -0.175093  4 C  pz         
 
 Vector   37  Occ=0.000000D+00  E= 1.360856D-01  Symmetry=a'
              MO Center= -3.5D-01, -8.1D-01,  3.2D-15, r^2= 1.9D+01
   Bfn.  Coefficient  Atom+Function         Bfn.  Coefficient  Atom+Function  
  ----- ------------  ---------------      ----- ------------  ---------------
    50     18.246194  3 C  s                 27    -11.058173  2 C  s          
    34     -7.089246  2 C  px                35     -4.947068  2 C  py         
   118     -3.652721  6 H  s                 58     -3.416883  3 C  py         
    80     -2.655548  4 C  px                73     -2.470360  4 C  s          
   149     -2.076909  8 H  s                 57      1.914480  3 C  px         
 
 Vector   38  Occ=0.000000D+00  E= 1.366198D-01  Symmetry=a"
              MO Center=  1.1D+00,  2.6D-01, -6.5D-16, r^2= 1.3D+01
   Bfn.  Coefficient  Atom+Function         Bfn.  Coefficient  Atom+Function  
  ----- ------------  ---------------      ----- ------------  ---------------
    59      4.091375  3 C  pz                82     -2.741136  4 C  pz         
    36     -1.844508  2 C  pz               105      0.554882  5 O  pz         
   169      0.275536  9 F  pz                79     -0.214116  4 C  pz         
   156     -0.190707  8 H  pz               137      0.150491  7 F  pz         
 
 Vector   39  Occ=0.000000D+00  E= 1.527627D-01  Symmetry=a'
              MO Center=  2.3D+00, -1.2D-01,  1.5D-17, r^2= 1.5D+01
   Bfn.  Coefficient  Atom+Function         Bfn.  Coefficient  Atom+Function  
  ----- ------------  ---------------      ----- ------------  ---------------
    27     21.189811  2 C  s                 50    -19.605931  3 C  s          
    73      9.996613  4 C  s                 57      9.429752  3 C  px         
   150     -7.963847  8 H  s                 58      4.393016  3 C  py         
    35      4.041968  2 C  py                34      3.560079  2 C  px         
   128     -2.420464  7 F  s                 81     -1.978657  4 C  py         
 
 Vector   40  Occ=0.000000D+00  E= 1.564309D-01  Symmetry=a'
              MO Center=  6.2D-01,  7.5D-01,  2.2D-16, r^2= 2.0D+01
   Bfn.  Coefficient  Atom+Function         Bfn.  Coefficient  Atom+Function  
  ----- ------------  ---------------      ----- ------------  ---------------
    58     12.745127  3 C  py                27     11.598503  2 C  s          
    73     -9.066962  4 C  s                 80     -4.485561  4 C  px         
    34      3.752857  2 C  px                81     -3.491732  4 C  py         
    35     -2.542123  2 C  py                50     -2.390190  3 C  s          
    96     -1.599763  5 O  s                160      1.260269  9 F  s          
 
 Vector   41  Occ=0.000000D+00  E= 1.935778D-01  Symmetry=a'
              MO Center= -4.0D-01, -6.5D-01, -1.9D-15, r^2= 1.3D+01
   Bfn.  Coefficient  Atom+Function         Bfn.  Coefficient  Atom+Function  
  ----- ------------  ---------------      ----- ------------  ---------------
    27     14.707370  2 C  s                 50    -11.654708  3 C  s          
     4     -6.993662  1 O  s                 57      5.092026  3 C  px         
    34     -3.797000  2 C  px               117      3.550913  6 H  s          
    12      2.983202  1 O  py                73      2.926464  4 C  s          
   149      2.290300  8 H  s                150     -1.762604  8 H  s          
 
 Vector   42  Occ=0.000000D+00  E= 2.054060D-01  Symmetry=a'
              MO Center= -5.8D-01, -1.5D+00,  2.5D-16, r^2= 1.4D+01
   Bfn.  Coefficient  Atom+Function         Bfn.  Coefficient  Atom+Function  
  ----- ------------  ---------------      ----- ------------  ---------------
    50     23.440425  3 C  s                 27    -19.495042  2 C  s          
    34     -5.783861  2 C  px                58     -5.499200  3 C  py         
   149     -4.748965  8 H  s                 35     -4.225163  2 C  py         
    55      3.402114  3 C  py                73     -3.053950  4 C  s          
    26      2.693408  2 C  s                 32      2.676331  2 C  py         
 
 Vector   43  Occ=0.000000D+00  E= 2.175306D-01  Symmetry=a'
              MO Center=  2.7D-01,  5.9D-01,  1.2D-16, r^2= 1.6D+01
   Bfn.  Coefficient  Atom+Function         Bfn.  Coefficient  Atom+Function  
  ----- ------------  ---------------      ----- ------------  ---------------
    73     37.324810  4 C  s                 27    -27.316470  2 C  s          
    58    -16.265132  3 C  py                34     -8.702936  2 C  px         
    35     -5.819781  2 C  py                96     -5.597855  5 O  s          
    80      4.902365  4 C  px                81     -4.923236  4 C  py         
   160     -4.006343  9 F  s                 57      3.768735  3 C  px         
 
 Vector   44  Occ=0.000000D+00  E= 2.271046D-01  Symmetry=a"
              MO Center= -4.7D-01, -5.6D-02, -4.6D-16, r^2= 6.7D+00
   Bfn.  Coefficient  Atom+Function         Bfn.  Coefficient  Atom+Function  
  ----- ------------  ---------------      ----- ------------  ---------------
    13      1.226237  1 O  pz                36     -0.898886  2 C  pz         
   105      0.686120  5 O  pz                79     -0.677614  4 C  pz         
    82     -0.626609  4 C  pz                33     -0.576584  2 C  pz         
    59      0.490483  3 C  pz               156      0.424721  8 H  pz         
    76     -0.340093  4 C  pz                56      0.335794  3 C  pz         
 
 Vector   45  Occ=0.000000D+00  E= 2.532960D-01  Symmetry=a"
              MO Center= -2.0D-01, -8.5D-01,  2.9D-17, r^2= 1.0D+01
   Bfn.  Coefficient  Atom+Function         Bfn.  Coefficient  Atom+Function  
  ----- ------------  ---------------      ----- ------------  ---------------
    59      1.978043  3 C  pz                13      1.664049  1 O  pz         
    36     -1.452953  2 C  pz                82     -0.883207  4 C  pz         
   137     -0.826014  7 F  pz                45     -0.280865  2 C  d  1       
    43     -0.271739  2 C  d -1              68      0.254853  3 C  d  1       
   169     -0.228778  9 F  pz               105     -0.225928  5 O  pz         
 
 Vector   46  Occ=0.000000D+00  E= 2.574726D-01  Symmetry=a'
              MO Center=  4.7D-01, -5.4D-01, -5.8D-16, r^2= 9.0D+00
   Bfn.  Coefficient  Atom+Function         Bfn.  Coefficient  Atom+Function  
  ----- ------------  ---------------      ----- ------------  ---------------
    50      5.100999  3 C  s                 57     -3.653327  3 C  px         
    27     -3.192343  2 C  s                  4     -3.103550  1 O  s          
    35     -2.372004  2 C  py               117      2.381587  6 H  s          
    80      2.359266  4 C  px                58     -2.007549  3 C  py         
    49      1.967465  3 C  s                149      1.771624  8 H  s          
 
 Vector   47  Occ=0.000000D+00  E= 2.694979D-01  Symmetry=a'
              MO Center= -9.1D-02, -4.6D-01, -2.7D-16, r^2= 1.4D+01
   Bfn.  Coefficient  Atom+Function         Bfn.  Coefficient  Atom+Function  
  ----- ------------  ---------------      ----- ------------  ---------------
    50     46.654833  3 C  s                 27    -34.941312  2 C  s          
    73    -11.892818  4 C  s                 35     -8.701635  2 C  py         
    58     -6.561033  3 C  py                57     -6.482661  3 C  px         
    34     -6.148785  2 C  px               149     -5.598655  8 H  s          
    81      3.152553  4 C  py               118     -2.835782  6 H  s          
 
 Vector   48  Occ=0.000000D+00  E= 2.778604D-01  Symmetry=a'
              MO Center= -8.9D-01,  9.4D-02, -7.3D-17, r^2= 1.4D+01
   Bfn.  Coefficient  Atom+Function         Bfn.  Coefficient  Atom+Function  
  ----- ------------  ---------------      ----- ------------  ---------------
    73    -10.833865  4 C  s                 50     10.200199  3 C  s          
    55     -4.419459  3 C  py                26     -3.451774  2 C  s          
    96      3.059220  5 O  s                 32     -3.015639  2 C  py         
   103      2.832273  5 O  px                80     -2.671456  4 C  px         
     4     -2.443728  1 O  s                 58      2.431185  3 C  py         
 
 Vector   49  Occ=0.000000D+00  E= 2.800004D-01  Symmetry=a"
              MO Center= -6.2D-01,  7.9D-01, -5.9D-18, r^2= 1.2D+01
   Bfn.  Coefficient  Atom+Function         Bfn.  Coefficient  Atom+Function  
  ----- ------------  ---------------      ----- ------------  ---------------
   105      1.556566  5 O  pz                13     -1.053280  1 O  pz         
   169     -0.861713  9 F  pz                36      0.852135  2 C  pz         
    82     -0.780875  4 C  pz                91     -0.466278  4 C  d  1       
   137     -0.439504  7 F  pz                66     -0.342770  3 C  d -1       
    59      0.279883  3 C  pz                45      0.261060  2 C  d  1       
 
 Vector   50  Occ=0.000000D+00  E= 3.137817D-01  Symmetry=a'
              MO Center=  6.3D-02,  1.1D-01, -4.9D-16, r^2= 1.4D+01
   Bfn.  Coefficient  Atom+Function         Bfn.  Coefficient  Atom+Function  
  ----- ------------  ---------------      ----- ------------  ---------------
    50     12.290429  3 C  s                 73     -9.950791  4 C  s          
    27     -4.480064  2 C  s                 26     -3.154545  2 C  s          
     4     -2.505660  1 O  s                 54     -2.485478  3 C  px         
    57     -2.424432  3 C  px                32     -2.343740  2 C  py         
    49      2.215960  3 C  s                 81      2.049583  4 C  py         
 
 Vector   51  Occ=0.000000D+00  E= 3.198759D-01  Symmetry=a"
              MO Center= -1.3D-01, -1.2D+00,  7.0D-17, r^2= 1.1D+01
   Bfn.  Coefficient  Atom+Function         Bfn.  Coefficient  Atom+Function  
  ----- ------------  ---------------      ----- ------------  ---------------
    36      2.915387  2 C  pz                59     -2.014800  3 C  pz         
   137     -1.671153  7 F  pz               105     -1.222162  5 O  pz         
    82      1.140479  4 C  pz                13     -1.048145  1 O  pz         
    56      0.377740  3 C  pz                33      0.343082  2 C  pz         
    91      0.306744  4 C  d  1             134      0.236663  7 F  pz         
 
 Vector   52  Occ=0.000000D+00  E= 3.237668D-01  Symmetry=a'
              MO Center=  5.5D-01,  1.8D-01, -4.8D-18, r^2= 1.2D+01
   Bfn.  Coefficient  Atom+Function         Bfn.  Coefficient  Atom+Function  
  ----- ------------  ---------------      ----- ------------  ---------------
    27     17.860811  2 C  s                 50    -17.575556  3 C  s          
     4     -6.913197  1 O  s                 73      6.687833  4 C  s          
    57      3.808634  3 C  px                58      3.229846  3 C  py         
    72      2.633926  4 C  s                 11     -2.540788  1 O  px         
    26     -2.373777  2 C  s                 55     -1.948648  3 C  py         
 
 Vector   53  Occ=0.000000D+00  E= 3.369128D-01  Symmetry=a'
              MO Center= -1.3D-01, -7.0D-01,  1.1D-16, r^2= 1.3D+01
   Bfn.  Coefficient  Atom+Function         Bfn.  Coefficient  Atom+Function  
  ----- ------------  ---------------      ----- ------------  ---------------
    50    -25.445433  3 C  s                 27     24.187162  2 C  s          
    57      6.341926  3 C  px                35      5.495093  2 C  py         
    73      5.251778  4 C  s                  4     -4.963379  1 O  s          
    34      4.904002  2 C  px                58      3.809661  3 C  py         
   150     -2.935087  8 H  s                 80     -2.582259  4 C  px         
 
 Vector   54  Occ=0.000000D+00  E= 3.438838D-01  Symmetry=a'
              MO Center= -7.2D-02, -8.1D-02, -3.9D-16, r^2= 1.6D+01
   Bfn.  Coefficient  Atom+Function         Bfn.  Coefficient  Atom+Function  
  ----- ------------  ---------------      ----- ------------  ---------------
    50     20.701717  3 C  s                 73    -16.228415  4 C  s          
    58      6.536103  3 C  py                35     -6.246960  2 C  py         
    27     -6.019512  2 C  s                 80     -5.506556  4 C  px         
    57     -4.482358  3 C  px                96      2.807549  5 O  s          
   136      2.665587  7 F  py                49     -2.462220  3 C  s          
 
 Vector   55  Occ=0.000000D+00  E= 3.512467D-01  Symmetry=a'
              MO Center= -5.8D-01,  1.7D+00, -3.7D-16, r^2= 1.2D+01
   Bfn.  Coefficient  Atom+Function         Bfn.  Coefficient  Atom+Function  
  ----- ------------  ---------------      ----- ------------  ---------------
    73     10.947916  4 C  s                 27     -8.421697  2 C  s          
    58     -6.518072  3 C  py                96     -4.403221  5 O  s          
   104     -3.343779  5 O  py               103     -2.843770  5 O  px         
    34     -2.760666  2 C  px                81      2.679443  4 C  py         
   149     -2.449398  8 H  s                  4      2.340878  1 O  s          
 
 Vector   56  Occ=0.000000D+00  E= 3.606838D-01  Symmetry=a"
              MO Center=  3.2D-01,  1.7D+00,  4.3D-16, r^2= 1.2D+01
   Bfn.  Coefficient  Atom+Function         Bfn.  Coefficient  Atom+Function  
  ----- ------------  ---------------      ----- ------------  ---------------
    82      2.918318  4 C  pz               169     -2.039420  9 F  pz         
   105     -1.478749  5 O  pz                36     -1.396428  2 C  pz         
   137      0.876884  7 F  pz                59     -0.451765  3 C  pz         
    89      0.394158  4 C  d -1              79      0.365941  4 C  pz         
    13      0.340692  1 O  pz               124      0.296624  6 H  pz         
 
 Vector   57  Occ=0.000000D+00  E= 3.634971D-01  Symmetry=a'
              MO Center= -2.6D-02, -6.6D-01, -7.5D-16, r^2= 1.0D+01
   Bfn.  Coefficient  Atom+Function         Bfn.  Coefficient  Atom+Function  
  ----- ------------  ---------------      ----- ------------  ---------------
    27     12.524612  2 C  s                 50     -5.863623  3 C  s          
     4     -5.690414  1 O  s                 57      5.231965  3 C  px         
    73      4.359843  4 C  s                128     -3.099108  7 F  s          
   150     -2.657804  8 H  s                 34     -2.347088  2 C  px         
   149     -2.172010  8 H  s                 35      1.977447  2 C  py         
 
 Vector   58  Occ=0.000000D+00  E= 3.744340D-01  Symmetry=a'
              MO Center=  8.4D-01, -1.7D-01,  5.2D-16, r^2= 8.6D+00
   Bfn.  Coefficient  Atom+Function         Bfn.  Coefficient  Atom+Function  
  ----- ------------  ---------------      ----- ------------  ---------------
    50      7.037702  3 C  s                 73     -5.857607  4 C  s          
    57      3.757678  3 C  px               149     -3.570274  8 H  s          
    58      3.340055  3 C  py                49     -2.928247  3 C  s          
    96      2.725272  5 O  s                 80     -2.301798  4 C  px         
    35     -2.196936  2 C  py                 4      2.089400  1 O  s          
 
 Vector   59  Occ=0.000000D+00  E= 3.936766D-01  Symmetry=a'
              MO Center=  2.6D-01,  7.2D-01, -6.5D-16, r^2= 1.1D+01
   Bfn.  Coefficient  Atom+Function         Bfn.  Coefficient  Atom+Function  
  ----- ------------  ---------------      ----- ------------  ---------------
    73     17.524719  4 C  s                 27     -8.485750  2 C  s          
    50     -5.661320  3 C  s                  4      4.631250  1 O  s          
   160     -4.359308  9 F  s                 81     -4.006304  4 C  py         
   117     -3.622207  6 H  s                 58     -2.956229  3 C  py         
    57      2.769238  3 C  px                12     -2.448526  1 O  py         
 
 Vector   60  Occ=0.000000D+00  E= 4.032478D-01  Symmetry=a"
              MO Center=  2.9D-02, -8.2D-01,  6.7D-15, r^2= 8.6D+00
   Bfn.  Coefficient  Atom+Function         Bfn.  Coefficient  Atom+Function  
  ----- ------------  ---------------      ----- ------------  ---------------
    36      1.672910  2 C  pz                13     -1.400339  1 O  pz         
   156      1.296015  8 H  pz               124      1.130795  6 H  pz         
   137     -1.117796  7 F  pz                59     -1.053180  3 C  pz         
    68      0.741081  3 C  d  1             105      0.686836  5 O  pz         
    43     -0.573668  2 C  d -1              89      0.487249  4 C  d -1       
 
 Vector   61  Occ=0.000000D+00  E= 4.050569D-01  Symmetry=a'
              MO Center=  4.4D-01,  1.7D+00, -1.4D-16, r^2= 1.3D+01
   Bfn.  Coefficient  Atom+Function         Bfn.  Coefficient  Atom+Function  
  ----- ------------  ---------------      ----- ------------  ---------------
    27     14.153966  2 C  s                 50    -10.890535  3 C  s          
    58     10.201401  3 C  py                81     -4.393138  4 C  py         
    96     -4.143857  5 O  s                 34      3.876604  2 C  px         
    80     -2.619134  4 C  px                57      2.537220  3 C  px         
    78      2.175902  4 C  py               168      2.140561  9 F  py         
 
 Vector   62  Occ=0.000000D+00  E= 4.327941D-01  Symmetry=a'
              MO Center= -4.2D-01, -8.1D-01, -1.6D-15, r^2= 1.1D+01
   Bfn.  Coefficient  Atom+Function         Bfn.  Coefficient  Atom+Function  
  ----- ------------  ---------------      ----- ------------  ---------------
    27     18.638737  2 C  s                 50    -13.448984  3 C  s          
    73     -8.198495  4 C  s                 35      7.275680  2 C  py         
    34      5.904849  2 C  px                96      5.682643  5 O  s          
    12     -5.520370  1 O  py                58      4.376320  3 C  py         
   128     -4.305336  7 F  s                117     -4.240986  6 H  s          
 
 Vector   63  Occ=0.000000D+00  E= 4.476916D-01  Symmetry=a"
              MO Center=  4.7D-01, -7.1D-01, -1.4D-15, r^2= 9.1D+00
   Bfn.  Coefficient  Atom+Function         Bfn.  Coefficient  Atom+Function  
  ----- ------------  ---------------      ----- ------------  ---------------
    59      2.128901  3 C  pz                82     -1.774270  4 C  pz         
   156     -1.759978  8 H  pz               124      1.207054  6 H  pz         
    13     -1.152354  1 O  pz                56      0.981686  3 C  pz         
   105      0.917221  5 O  pz                68     -0.557978  3 C  d  1       
   169      0.429315  9 F  pz                36     -0.375008  2 C  pz         
 
 Vector   64  Occ=0.000000D+00  E= 4.627701D-01  Symmetry=a'
              MO Center= -1.0D+00, -6.1D-01,  2.3D-16, r^2= 9.8D+00
   Bfn.  Coefficient  Atom+Function         Bfn.  Coefficient  Atom+Function  
  ----- ------------  ---------------      ----- ------------  ---------------
     4     11.100116  1 O  s                 27     -7.574430  2 C  s          
    96     -4.554077  5 O  s                 34      3.974423  2 C  px         
    50      3.776567  3 C  s                 55      3.299217  3 C  py         
    31      2.966464  2 C  px               117     -2.590737  6 H  s          
    57     -2.315110  3 C  px                58      2.216305  3 C  py         
 
 Vector   65  Occ=0.000000D+00  E= 4.770577D-01  Symmetry=a'
              MO Center=  5.7D-01, -5.8D-01, -7.4D-15, r^2= 1.1D+01
   Bfn.  Coefficient  Atom+Function         Bfn.  Coefficient  Atom+Function  
  ----- ------------  ---------------      ----- ------------  ---------------
    27     10.878790  2 C  s                 50     -8.908639  3 C  s          
    73      6.380376  4 C  s                128     -4.835197  7 F  s          
   149     -4.240258  8 H  s                 57      4.043226  3 C  px         
   150     -3.837339  8 H  s                160     -2.886641  9 F  s          
    12      1.953769  1 O  py                54      1.686700  3 C  px         
 
 Vector   66  Occ=0.000000D+00  E= 4.956697D-01  Symmetry=a'
              MO Center=  2.8D-01, -2.9D-01,  9.5D-15, r^2= 1.0D+01
   Bfn.  Coefficient  Atom+Function         Bfn.  Coefficient  Atom+Function  
  ----- ------------  ---------------      ----- ------------  ---------------
    73     14.483892  4 C  s                 50    -11.437740  3 C  s          
    57      5.334197  3 C  px                 4     -5.003215  1 O  s          
    96     -4.792282  5 O  s                 27      4.731744  2 C  s          
    72      4.326961  4 C  s                 58     -4.303405  3 C  py         
    34     -3.810174  2 C  px                12      3.761498  1 O  py         
 
 Vector   67  Occ=0.000000D+00  E= 5.282782D-01  Symmetry=a'
              MO Center=  1.4D-01,  4.1D-01, -1.9D-15, r^2= 9.6D+00
   Bfn.  Coefficient  Atom+Function         Bfn.  Coefficient  Atom+Function  
  ----- ------------  ---------------      ----- ------------  ---------------
    27     15.925563  2 C  s                 50    -15.768781  3 C  s          
   160      5.987376  9 F  s                 55     -4.414108  3 C  py         
    35      4.005731  2 C  py               128     -3.994808  7 F  s          
   149      3.240579  8 H  s                 32     -2.973298  2 C  py         
    96     -2.955926  5 O  s                 58      2.899059  3 C  py         
 

 center of mass
 --------------
 x =   0.01827255 y =   0.04001441 z =   0.00000000

 moments of inertia (a.u.)
 ------------------
        1129.986744317964          -0.000000000000           0.000000000000
          -0.000000000000         292.707114050422           0.000000000000
           0.000000000000           0.000000000000        1422.693858368386
 
  Mulliken analysis of the total density
  --------------------------------------

    Atom       Charge   Shell Charges
 -----------   ------   -------------------------------------------------------
    1 O    8     8.64   2.00  0.83  0.99  0.15  2.81  1.71  0.10  0.02  0.02
    2 C    6     4.79   2.01  0.68  0.50 -0.16  1.76 -0.10  0.08  0.22 -0.19
    3 C    6     5.53   2.01  0.63  0.25 -0.20  2.09  0.53  0.10  0.06  0.06
    4 C    6     4.92   2.01  0.69  0.55 -0.09  1.75 -0.07  0.03  0.24 -0.18
    5 O    8     8.70   2.00  0.84  1.04  0.14  2.75  1.78  0.09  0.02  0.03
    6 H    1     0.78   0.68  0.01 -0.00  0.08  0.01
    7 F    9     9.66   2.00  0.89  1.09  0.17  3.29  2.10  0.09  0.00  0.02
    8 H    1     1.32   0.76  0.56  0.01  0.03 -0.04
    9 F    9     9.65   2.00  0.89  1.09  0.15  3.29  2.11  0.10  0.00  0.02
 
       Multipole analysis of the density wrt the origin
       ------------------------------------------------
 
     L   x y z        total         open         nuclear
     -   - - -        -----         ----         -------
     0   0 0 0     -0.000000      0.000000     54.000000
 
     1   1 0 0      0.550996      0.000000      0.000000
     1   0 1 0     -1.708376      0.000000      0.000000
     1   0 0 1     -0.000000      0.000000      0.000000
 
     2   2 0 0    -29.465074      0.000000    153.748353
     2   1 1 0      4.908061      0.000000      5.872107
     2   1 0 1      0.000000      0.000000      0.000000
     2   0 2 0    -28.949837      0.000000    553.330738
     2   0 1 1     -0.000000      0.000000      0.000000
     2   0 0 2    -28.192030      0.000000      0.000000
 
                   NWChem MP2 Semi-direct Energy/Gradient Module
                   ---------------------------------------------
 
 
                                    F,H,F Open
 
 

int_init: setting std/high accuracies to  1.0D-16  1.0D-32
  Basis functions       =    179
  Molecular orbitals    =    179
  Frozen core           =      7
  Frozen virtuals       =      0
  Active alpha occupied =     20
  Active beta occupied  =     20
  Active alpha virtual  =    152
  Active beta virtual   =    152
  Use MO symmetry       = T
  Use skeleton AO sym   = T

  AO/Fock/Back tols     =   1.0D-15  1.0D-15  1.0D-15

 GA uses MA = F    GA memory limited = T

 Available: 
  local mem=  3.77D+08
 global mem=  1.23D+08
 local disk=  0.00D+00

int_init: setting std/high accuracies to  1.0D-16  1.0D-32
  mp2_memr nvloc                     14
  nvloc new                     14
   1 passes of  20:        5242880                     243169                  19935246.
   1 passes of  20: M    376603314           G      122958087           F     371360434.
 
 Semi-direct pass number   1 of   1  for RHF alpha+beta  at       65.0s

int_init: setting std/high accuracies to  1.0D-16  1.0D-32
  vrange nnbf                  15773
  mp2_eaftype                     57  avail_ma_in_mb                   3283
 EAF : mp2_eaftype filesize          57    7535338.
  mp2_eaf for mointskh                      57
Node 0 wrote     35.3 Mb in      0.1 s     Agg I/O rate:  4212.3 Mb/s
 Done moints_semi at       71.1s
  mp2_eaftype                     57  avail_ma_in_mb                   3226
 EAF : mp2_eaftype filesize          57    7535338.
  mp2_eaf for kh                     57
  mp2_eaftype                     12  avail_ma_in_mb                   3226
 EAF : mp2_eaftype filesize          12    1702400.
  mp2_eaf for ta tb                     12
  mp2_eaf for ta                      12
  mp2_eaf for tb                      12
 Done maket at       71.5s
 Done pijab at       71.5s
 Done wijab at       71.6s
 Done lai at       72.8s

int_init: setting std/high accuracies to  1.0D-16  1.0D-32
  mp2_eaftype                     65  avail_ma_in_mb                   3201
 EAF : mp2_eaftype filesize          65    8623862.
  mp2_eaf for 2pdm                      65
 Done nonsep at       97.2s
 Done multipass loop at       97.2s


          -------------------------------------------
          SCF energy                -463.398549394953
          Correlation energy          -1.205277691685
          Singlet pairs               -0.707989982514
          Triplet pairs               -0.497287709171
          Total MP2 energy          -464.603827086638
          -------------------------------------------



          ---------------------------------------------------
                    Spin Component Scaled (SCS) MP2
          Same spin pairs                     -0.331525139447
          Same spin scaling factor             0.333333333333
          Opposite spin pairs                 -0.873752552238
          Opposite spin scaling fact.          1.200000000000
          SCS-MP2 correlation energy          -1.159011442501
          Total SCS-MP2 energy              -464.557560837454
          ---------------------------------------------------


int_init: setting std/high accuracies to  1.0D-16  1.0D-32
                                NWChem CPHF Module
                                ------------------
 
 

int_init: setting std/high accuracies to  1.0D-16  1.0D-32
    scftype = RHF 
    nclosed =   27
      nopen =    0
  variables =     4104
  tolerance =   1.0D-06
  max. iter =  999

 Warning: symmetry breaking in RHF:   1.071558267753485E-013
 SCF residual:   6.306589991667191E-011

            ----- linear solve (tol: 1.0E-06 prod-acc: 3.6E-14) -----

               iter nbas    rnorm     rnorm-scal   ratio     time
               ---- ---- ----------- ----------- --------- -------
                  1    1  1.0491E-01  4.5169E-01    0.0000   103.2
                  2    2  2.4941E-02  1.0739E-01    0.2377   105.3
                  3    3  9.9496E-03  4.2839E-02    0.3989   107.5
                  4    4  3.1382E-03  1.3512E-02    0.3154   109.7
                  5    5  9.8086E-04  4.2232E-03    0.3126   111.8
                  6    6  3.0685E-04  1.3212E-03    0.3128   113.9
                  7    7  1.2660E-04  5.4511E-04    0.4126   116.0
                  8    8  5.5645E-05  2.3959E-04    0.4395   118.1
                  9    9  1.9515E-05  8.4022E-05    0.3507   120.2
                 10   10  6.9110E-06  2.9756E-05    0.3541   122.2
                 11   11  2.3952E-06  1.0313E-05    0.3466   124.2
                 12   12  7.6185E-07  3.2802E-06    0.3181   126.2
                 13   13  2.1427E-07  9.2257E-07    0.2813   128.1

 CPHF converged to   9.2D-07 in   13 iters


int_init: setting std/high accuracies to  1.0D-16  1.0D-32
                Dipole Moments (a.u.)
                --------------
         Nuclear       SCF       SCF+MP2
       ----------- ----------- -----------
 X       0.000000    0.550996    0.374510
 Y       0.000000   -1.708376   -1.586645
 Z       0.000000   -0.000000   -0.000000
 

 MP2 RHF      natural orbital occupation numbers


              1      
    1    2.0000
    2    2.0000
    3    2.0000
    4    2.0000
    5    2.0000
    6    2.0000
    7    2.0000
    8    1.9891
    9    1.9891
   10    1.9864
   11    1.9850
   12    1.9810
   13    1.9741
   14    1.9739
   15    1.9733
   16    1.9714
   17    1.9681
   18    1.9673
   19    1.9658
   20    1.9628
   21    1.9620
   22    1.9582
   23    1.9560
   24    1.9554
   25    1.9535
   26    1.9411
   27    1.9294
   28    0.0669
   29    0.0448
   30    0.0431
   31    0.0379
   32    0.0319
   33    0.0296
   34    0.0262
   35    0.0236
   36    0.0192
   37    0.0173
   38    0.0165
   39    0.0161
   40    0.0150
   41    0.0150
   42    0.0145
   43    0.0142
   44    0.0117
   45    0.0104
   46    0.0093
   47    0.0093
   48    0.0087
   49    0.0081
   50    0.0077
   51    0.0074
   52    0.0073
   53    0.0066
   54    0.0065
   55    0.0064
   56    0.0063
   57    0.0059
   58    0.0058
   59    0.0056
   60    0.0051
   61    0.0051
   62    0.0049
   63    0.0048
   64    0.0048
   65    0.0047
   66    0.0046
   67    0.0044
   68    0.0044
   69    0.0044
   70    0.0043
   71    0.0041
   72    0.0039
   73    0.0035
   74    0.0025
   75    0.0022
   76    0.0020
   77    0.0019
   78    0.0018
   79    0.0015
   80    0.0015
   81    0.0015
   82    0.0013
   83    0.0013
   84    0.0012
   85    0.0012
   86    0.0011
   87    0.0010
   88    0.0010
   89    0.0009
   90    0.0009
   91    0.0007
   92    0.0007
   93    0.0007
   94    0.0006
   95    0.0006
   96    0.0006
   97    0.0005
   98    0.0005
   99    0.0005
  100    0.0005
  101    0.0005
  102    0.0005
  103    0.0005
  104    0.0004
  105    0.0004
  106    0.0004
  107    0.0003
  108    0.0003
  109    0.0003
  110    0.0003
  111    0.0003
  112    0.0003
  113    0.0003
  114    0.0003
  115    0.0003
  116    0.0003
  117    0.0003
  118    0.0003
  119    0.0003
  120    0.0002
  121    0.0002
  122    0.0002
  123    0.0002
  124    0.0002
  125    0.0002
  126    0.0002
  127    0.0001
  128    0.0001
  129    0.0001
  130    0.0001
  131    0.0001
  132    0.0001
  133    0.0001
  134    0.0001
  135    0.0001
  136    0.0001
  137    0.0001
  138    0.0001
  139    0.0001
  140    0.0001
  141    0.0001
  142    0.0000
  143    0.0000
  144    0.0000
  145    0.0000
  146    0.0000
  147    0.0000
  148    0.0000
  149    0.0000
  150    0.0000
  151    0.0000
  152    0.0000
  153    0.0000
  154    0.0000
  155    0.0000
  156    0.0000
  157    0.0000
  158    0.0000
  159    0.0000
  160    0.0000
  161    0.0000
  162    0.0000
  163    0.0000
  164    0.0000
  165    0.0000
  166    0.0000
  167    0.0000
  168    0.0000
  169   -0.0000
  170   -0.0000
  171   -0.0000
  172   -0.0000
  173   -0.0001
  174   -0.0001
  175   -0.0001
  176   -0.0002
  177   -0.0002
  178   -0.0002
  179   -0.0004
 
  MP2 natural orbitals output to ./13O.mp2nos
 

int_init: setting std/high accuracies to  1.0D-16  1.0D-32
  Using symmetry

int_init: setting std/high accuracies to  1.0D-16  1.0D-32


                         mp2 ENERGY GRADIENTS

    atom               coordinates                        gradient
                 x          y          z           x          y          z
   1 O      -2.275157  -2.425872   0.000000   -0.001939   0.029865   0.000000
   2 C       0.223406  -2.171813   0.000000   -0.003516   0.004695   0.000000
   3 C       1.460079   0.087579   0.000000   -0.015578   0.005642   0.000000
   4 C       0.025882   2.400161   0.000000    0.076978  -0.013379   0.000000
   5 O      -2.333354   2.469935   0.000000   -0.056728  -0.009557   0.000000
   6 H      -2.588219  -4.277987   0.000000    0.001000  -0.017307   0.000000
   7 F       1.484526  -4.465212   0.000000    0.008269  -0.024730   0.000000
   8 H       3.496675   0.134009   0.000000   -0.007978   0.002648   0.000000
   9 F       1.371410   4.675869   0.000000   -0.000508   0.022124   0.000000
 
                 ----------------------------------------
                 |  Time  |  1-e(secs)   |  2-e(secs)   |
                 ----------------------------------------
                 |  CPU   |       0.01   |       9.41   |
                 ----------------------------------------
                 |  WALL  |       0.01   |       9.41   |
                 ----------------------------------------
 -----------------------
 Performance information
 -----------------------

 Timer overhead =  0.00D+00 seconds/call

               Nr. of calls         CPU time (s)                 Wall time (s)                GFlops
             ---------------    -------------------     ------------------------------   -------------------
Name         Min   Avg   Max    Min     Avg     Max     Min     Avg     Max   Mx/calls   Min     Max     Sum
mp2: moin     1     1     1    5.6     5.7     5.7      6.1     6.1     6.1     6.1      0.0     0.0     0.0   
mp2: make     1     1     1   0.38    0.39    0.39     0.40    0.40    0.40    0.40      0.0     0.0     0.0   
mp2: pija     1     1     1   3.30E-2 3.43E-2 3.60E-2  3.51E-2 3.51E-2 3.54E-2 3.54E-2   0.0     0.0     0.0   
mp2: wija     1     1     1   3.60E-2 3.75E-2 3.80E-2  3.75E-2 3.75E-2 3.75E-2 3.75E-2   0.0     0.0     0.0   
mp2: lai      1     1     1    1.3     1.3     1.3      1.3     1.3     1.3     1.3      0.0     0.0     0.0   
mp2: back     1     1     1   0.81    0.82    0.82     0.84    0.84    0.84    0.84      0.0     0.0     0.0   
mp2: nons     1     1     1    19.     21.     23.      19.     21.     23.     23.      0.0     0.0     0.0   
mp2: laif     1     1     1    2.3     2.3     2.3      2.3     2.3     2.3     2.3      0.0     0.0     0.0   
mp2: cphf     1     1     1    29.     29.     29.      29.     29.     29.     29.      0.0     0.0     0.0   
mp2: wijf     1     1     1    2.3     2.3     2.3      2.3     2.3     2.3     2.3      0.0     0.0     0.0   
mp2: sep      1     1     1    9.4     9.4     9.5      9.5     9.5     9.5     9.5      0.0     0.0     0.0   
mp2: tota     1     1     1    75.     75.     75.      76.     76.     76.     76.      0.0     0.0     0.0   

 The average no. of pstat calls per process was 1.20D+01
 with a timing overhead of 0.00D+00s


@ Step       Energy      Delta E   Gmax     Grms     Xrms     Xmax   Walltime
@ ---- ---------------- -------- -------- -------- -------- -------- --------
@    0    -464.60382709  0.0D+00  0.05642  0.01608  0.00000  0.00000    140.9
                                                                    



                                Z-matrix (user)
                                -------- 

 Units are Angstrom for bonds and degrees for angles

  Constants are marked with an asterisk (*).

  Constrained variables are marked with a plus sign (+).

 
      Type          Name      I     J     K     L     M      Value     Gradient
      ----------- --------  ----- ----- ----- ----- ----- ---------- ----------
    1 Stretch      R1          2     1                       1.32900   -0.00034
    2 Stretch      R2          3     2                       1.36300    0.00473
    3 Bend         A1          3     2     1               124.50000   -0.01288
    4 Stretch      R3          4     3                       1.44000   -0.01109
    5 Bend         A2          4     3     2               119.50000   -0.00685
    6*Torsion      D0          4     3     2     1           0.00000   -0.00000
    7 Stretch      R4          5     4                       1.24900    0.05642
    8 Bend         A3          5     4     3               123.50000   -0.01403
    9*Torsion      D0          5     4     3     2           0.00000    0.00000
   10 Stretch      R5          6     1                       0.99400    0.01690
   11 Bend         A4          6     1     2               105.40000   -0.00385
   12*Torsion      D180        6     1     2     3         180.00000   -0.00000
   13 Stretch      R6          7     2                       1.38500    0.02565
   14 Bend         A5          7     2     3               122.50000    0.00647
   15*Torsion      D180        7     2     3     4         180.00000    0.00000
   16 Stretch      R7          8     3                       1.07800   -0.00792
   17 Bend         A6          8     3     2               120.00000    0.00305
   18*Torsion      D180        8     3     2     1         180.00000    0.00000
   19 Stretch      R8          9     4                       1.39900    0.01879
   20 Bend         A7          9     4     3               117.60000    0.01636
   21*Torsion      D180        9     4     3     2         180.00000   -0.00000
 
                                 NWChem SCF Module
                                 -----------------
 
 
                                    F,H,F Open
 
 

  ao basis        = "ao basis"
  functions       =   179
  atoms           =     9
  closed shells   =    27
  open shells     =     0
  charge          =   0.00
  wavefunction    = RHF 
  input vectors   = ./13O.movecs
  output vectors  = ./13O.movecs
  use symmetry    = T
  symmetry adapt  = T


 Summary of "ao basis" -> "ao basis" (spherical)
 ------------------------------------------------------------------------------
       Tag                 Description            Shells   Functions and Types
 ---------------- ------------------------------  ------  ---------------------
 O                        aug-cc-pVDZ                9       23   4s3p2d
 C                        aug-cc-pVDZ                9       23   4s3p2d
 H                        aug-cc-pVDZ                5        9   3s2p
 F                        aug-cc-pVDZ                9       23   4s3p2d


      Symmetry analysis of basis
      --------------------------
 
        a'        126
        a"         53
 

int_init: setting std/high accuracies to  1.0D-16  1.0D-32

 Forming initial guess at     141.0s


 Forcing the number of linearly dependent vectors to be  0

 Loading old vectors from job with title :

F,H,F Open

 
      Symmetry analysis of molecular orbitals - initial
      -------------------------------------------------
 
  Numbering of irreducible representations: 
 
     1 a'          2 a"      
 
  Orbital symmetries:
 
     1 a'          2 a'          3 a'          4 a'          5 a'      
     6 a'          7 a'          8 a'          9 a'         10 a'      
    11 a'         12 a'         13 a'         14 a'         15 a'      
    16 a'         17 a"         18 a'         19 a'         20 a"      
    21 a'         22 a'         23 a"         24 a'         25 a"      
    26 a'         27 a"         28 a'         29 a'         30 a"      
[...]
          12     0.00000     0.00000    -0.00441     0.05015     0.10898     0.00000
          13     0.03172     0.11399     0.00000     0.00000     0.00000     0.02313
          14    -0.03256     0.06692     0.00000     0.00000     0.00000    -0.08762
          15     0.00000     0.00000    -0.08778     0.14342     0.07851     0.00000
          16     0.14862    -0.03643     0.00000     0.00000     0.00000     0.00236
          17    -0.03598     0.07132     0.00000     0.00000     0.00000    -0.08701
          18     0.00000     0.00000     0.04433     0.20059    -0.08326     0.00000
          19     0.14672    -0.03400     0.00000     0.00000     0.00000     0.00270
          20     0.03074    -0.01454     0.00000     0.00000     0.00000    -0.09886
          21     0.00000     0.00000     0.18302     0.02380    -0.01037     0.00000
          22     0.07462     0.05879     0.00000     0.00000     0.00000     0.01551
          23     0.06025    -0.05252     0.00000     0.00000     0.00000    -0.10411
          24     0.00000     0.00000     0.15941    -0.08375     0.11829     0.00000
          25     0.00449     0.14903     0.00000     0.00000     0.00000     0.02797
          26     0.03049    -0.01422     0.00000     0.00000     0.00000    -0.09882
          27     0.00000     0.00000     0.01295    -0.03413     0.18181     0.00000

                    7           8           9          10          11          12
 
 P.Frequency       77.31      167.27      167.84      361.91      368.09      395.49
 
           1     0.00000     0.00000    -0.01470     0.00000    -0.03914     0.06899
           2     0.00000     0.00000    -0.13765     0.00000    -0.11956     0.00294
           3    -0.13513     0.05984     0.00000    -0.06200     0.00000     0.00000
           4     0.00000     0.00000    -0.03433     0.00000    -0.05482     0.07451
           5     0.00000     0.00000    -0.02692     0.00000    -0.00171    -0.05380
           6     0.00145     0.05294     0.00000     0.02473     0.00000     0.00000
           7     0.00000     0.00000    -0.09021     0.00000     0.00951     0.01370
           8     0.00000     0.00000     0.00083     0.00000    -0.01262    -0.00297
           9     0.07597     0.18650     0.00000     0.06385     0.00000     0.00000
          10     0.00000     0.00000    -0.03141     0.00000     0.08847    -0.02495
          11     0.00000     0.00000     0.03727     0.00000     0.04304     0.03174
          12     0.04307     0.03770     0.00000     0.03059     0.00000     0.00000
          13     0.00000     0.00000    -0.01447     0.00000     0.07570    -0.01255
          14     0.00000     0.00000     0.14128     0.00000    -0.05026     0.11548
          15     0.13125    -0.07140     0.00000    -0.02051     0.00000     0.00000
          16     0.00000     0.00000     0.06493     0.00000     0.08234     0.01675
          17     0.00000     0.00000    -0.14907     0.00000    -0.13848     0.01179
          18    -0.16285    -0.23041     0.00000     0.90645     0.00000     0.00000
          19     0.00000     0.00000     0.06060     0.00000    -0.04021    -0.04007
          20     0.00000     0.00000     0.03137     0.00000    -0.00175    -0.15035
          21     0.04496    -0.11197     0.00000    -0.03756     0.00000     0.00000
          22     0.00000     0.00000    -0.08961     0.00000     0.01449     0.01422
          23     0.00000     0.00000    -0.00007     0.00000    -0.12725     0.07444
          24     0.13569     0.21940     0.00000    -0.08133     0.00000     0.00000
          25     0.00000     0.00000     0.06377     0.00000    -0.02296    -0.04905
          26     0.00000     0.00000    -0.03357     0.00000     0.14069     0.06188
          27    -0.11635    -0.05276     0.00000    -0.01202     0.00000     0.00000

                   13          14          15          16          17          18
 
 P.Frequency      566.25      652.05      658.60      728.94      794.04      926.23
 
           1    -0.08419    -0.01662     0.00000     0.00000     0.00000    -0.04221
           2     0.07564     0.02895     0.00000     0.00000     0.00000    -0.01743
           3     0.00000     0.00000    -0.05849    -0.01019    -0.00194     0.00000
           4    -0.03463     0.00517     0.00000     0.00000     0.00000    -0.00067
           5    -0.08513    -0.03936     0.00000     0.00000     0.00000    -0.01375
           6     0.00000     0.00000     0.25151     0.00837     0.05289     0.00000
           7    -0.03205    -0.08156     0.00000     0.00000     0.00000     0.15818
           8    -0.08569     0.02549     0.00000     0.00000     0.00000    -0.07719
           9     0.00000     0.00000    -0.05468    -0.04449    -0.13711     0.00000
          10     0.03614    -0.04881     0.00000     0.00000     0.00000    -0.08428
          11    -0.02285     0.06183     0.00000     0.00000     0.00000    -0.11653
          12     0.00000     0.00000    -0.05807     0.22494     0.10362     0.00000
          13     0.04975    -0.07830     0.00000     0.00000     0.00000    -0.07833
          14     0.04277    -0.09376     0.00000     0.00000     0.00000     0.04402
          15     0.00000     0.00000     0.01306    -0.06794    -0.02344     0.00000
          16    -0.30045    -0.12385     0.00000     0.00000     0.00000    -0.00201
          17     0.10700     0.04515     0.00000     0.00000     0.00000    -0.02584
          18     0.00000     0.00000    -0.12283    -0.13274     0.09558     0.00000
          19     0.12313     0.04302     0.00000     0.00000     0.00000    -0.00655
          20    -0.01103    -0.06144     0.00000     0.00000     0.00000     0.03809
          21     0.00000     0.00000    -0.04443     0.01504    -0.01723     0.00000
          22    -0.02951    -0.08221     0.00000     0.00000     0.00000     0.16081
          23    -0.14747     0.06927     0.00000     0.00000     0.00000    -0.04129
          24     0.00000     0.00000    -0.22489    -0.49516     0.75953     0.00000
          25    -0.05735     0.12691     0.00000     0.00000     0.00000     0.05335
          26     0.03582     0.07964     0.00000     0.00000     0.00000     0.07413
          27     0.00000     0.00000     0.01348    -0.03522    -0.01903     0.00000

                   19          20          21          22          23          24
 
 P.Frequency      942.73     1102.17     1172.10     1321.31     1417.91     1769.72
 
           1    -0.13367     0.04412    -0.01424     0.06379     0.08748     0.02430
           2    -0.02132     0.01286    -0.04986    -0.04374     0.00951     0.02746
           3     0.00000     0.00000     0.00000     0.00000     0.00000     0.00000
           4    -0.01698    -0.02846     0.08354    -0.08138    -0.18079    -0.10645
           5     0.07561     0.01528    -0.10273     0.09492     0.01494    -0.18679
           6     0.00000     0.00000     0.00000     0.00000     0.00000     0.00000
           7     0.11820     0.04449     0.06578     0.01057     0.04815     0.04643
           8     0.08582    -0.05475     0.00710     0.10359    -0.10560     0.16229
           9     0.00000     0.00000     0.00000     0.00000     0.00000     0.00000
          10     0.00638     0.00717     0.02178    -0.02064     0.02985     0.02547
          11     0.07489     0.12949     0.10994    -0.08687     0.06620    -0.02826
          12     0.00000     0.00000     0.00000     0.00000     0.00000     0.00000
          13    -0.01580    -0.07040    -0.01978     0.01667    -0.02902    -0.01349
          14    -0.00211    -0.00106    -0.01108     0.00804    -0.00265     0.00511
          15     0.00000     0.00000     0.00000     0.00000     0.00000     0.00000
          16     0.10241     0.04672    -0.61436    -0.62491    -0.03281     0.20694
          17    -0.06449     0.01497     0.05072     0.07594     0.03354    -0.01307
          18     0.00000     0.00000     0.00000     0.00000     0.00000     0.00000
          19     0.06067     0.00493    -0.04026     0.01764     0.01885    -0.00156
          20    -0.08590    -0.00123     0.05779    -0.04102    -0.01019     0.01535
          21     0.00000     0.00000     0.00000     0.00000     0.00000     0.00000
          22     0.12454     0.06969     0.07425     0.01437     0.03481     0.07335
          23     0.13840    -0.76659     0.18683    -0.21451     0.47708    -0.08711
          24     0.00000     0.00000     0.00000     0.00000     0.00000     0.00000
          25    -0.01483    -0.00363    -0.01052     0.00477    -0.00325    -0.00058
          26    -0.04756    -0.02568    -0.02813     0.00791    -0.00722    -0.00413
          27     0.00000     0.00000     0.00000     0.00000     0.00000     0.00000

                   25          26          27
 
 P.Frequency     1841.83     3301.56     3771.17
 
           1    -0.01121     0.00057     0.01151
           2    -0.00492     0.00015     0.05889
           3     0.00000     0.00000     0.00000
           4     0.02981     0.00147     0.00001
           5     0.02816     0.00518     0.00237
           6     0.00000     0.00000     0.00000
           7    -0.03223    -0.08400    -0.00068
           8     0.00900    -0.00462    -0.00147
           9     0.00000     0.00000     0.00000
          10     0.21751     0.00065    -0.00072
          11    -0.06846    -0.00296     0.00070
          12     0.00000     0.00000     0.00000
          13    -0.14229     0.00043     0.00035
          14     0.02643    -0.00011    -0.00007
          15     0.00000     0.00000     0.00000
          16    -0.03139     0.00008    -0.16253
          17    -0.00416     0.00175    -0.95318
          18     0.00000     0.00000     0.00000
          19    -0.00033     0.00010    -0.00050
          20    -0.00482    -0.00033     0.00013
          21     0.00000     0.00000     0.00000
          22    -0.03990     0.95225     0.00059
          23     0.03710     0.02692    -0.00012
          24     0.00000     0.00000     0.00000
          25    -0.00251     0.00026    -0.00002
          26     0.00473     0.00030    -0.00011
          27     0.00000     0.00000     0.00000



 ----------------------------------------------------------------------------
 Normal Eigenvalue ||    Projected Derivative Dipole Moments (debye/angs)
  Mode   [cm**-1]  ||      [d/dqX]             [d/dqY]           [d/dqZ]
 ------ ---------- || ------------------ ------------------ -----------------
    1       -0.000 ||       0.129               0.021             0.000
    2       -0.000 ||      -0.166              -0.028             0.000
    3       -0.000 ||       0.000               0.000             0.199
    4       -0.000 ||       0.000               0.000            -0.003
    5        0.000 ||       0.000               0.000            -0.152
    6        0.000 ||      -0.023              -0.004             0.000
    7       77.307 ||       0.000               0.000            -0.093
    8      167.268 ||       0.000               0.000            -0.169
    9      167.838 ||      -0.073              -0.194             0.000
   10      361.905 ||       0.000               0.000             1.596
   11      368.094 ||       0.221               0.095             0.000
   12      395.490 ||       0.070              -0.022             0.000
   13      566.252 ||      -0.526              -0.371             0.000
   14      652.048 ||      -0.917               0.124             0.000
   15      658.604 ||       0.000               0.000            -0.121
   16      728.940 ||       0.000               0.000             0.095
   17      794.037 ||       0.000               0.000             1.327
   18      926.225 ||      -0.644              -1.607             0.000
   19      942.728 ||       0.791               2.364             0.000
   20     1102.172 ||       0.124               1.424             0.000
   21     1172.102 ||       0.361               0.239             0.000
   22     1321.308 ||      -2.375              -0.941             0.000
   23     1417.911 ||      -1.365               0.710             0.000
   24     1769.721 ||      -0.450              -3.546             0.000
   25     1841.830 ||       2.445              -0.727             0.000
   26     3301.561 ||       0.394               0.270             0.000
   27     3771.170 ||      -0.915              -1.933             0.000
 ----------------------------------------------------------------------------



  
  
 ----------------------------------------------------------------------------
 Normal Eigenvalue ||           Projected Infra Red Intensities
  Mode   [cm**-1]  || [atomic units] [(debye/angs)**2] [(KM/mol)] [arbitrary]
 ------ ---------- || -------------- ----------------- ---------- -----------
    1       -0.000 ||    0.000742           0.017         0.724       0.092
    2       -0.000 ||    0.001229           0.028         1.198       0.152
    3       -0.000 ||    0.001718           0.040         1.674       0.213
    4       -0.000 ||    0.000000           0.000         0.000       0.000
    5        0.000 ||    0.001004           0.023         0.978       0.124
    6        0.000 ||    0.000023           0.001         0.023       0.003
    7       77.307 ||    0.000377           0.009         0.368       0.047
    8      167.268 ||    0.001241           0.029         1.210       0.154
    9      167.838 ||    0.001863           0.043         1.816       0.231
   10      361.905 ||    0.110399           2.547       107.623      13.678
   11      368.094 ||    0.002501           0.058         2.438       0.310
   12      395.490 ||    0.000232           0.005         0.226       0.029
   13      566.252 ||    0.017929           0.414        17.478       2.221
   14      652.048 ||    0.037140           0.857        36.206       4.601
   15      658.604 ||    0.000640           0.015         0.624       0.079
   16      728.940 ||    0.000388           0.009         0.378       0.048
   17      794.037 ||    0.076377           1.762        74.456       9.463
   18      926.225 ||    0.129981           2.999       126.712      16.104
   19      942.728 ||    0.269357           6.214       262.583      33.372
   20     1102.172 ||    0.088515           2.042        86.289      10.967
   21     1172.102 ||    0.008128           0.188         7.924       1.007
   22     1321.308 ||    0.282740           6.523       275.629      35.030
   23     1417.911 ||    0.102635           2.368       100.054      12.716
   24     1769.721 ||    0.553961          12.780       540.028      68.634
   25     1841.830 ||    0.281995           6.506       274.903      34.938
   26     3301.561 ||    0.009899           0.228         9.650       1.226
   27     3771.170 ||    0.198227           4.573       193.241      24.560
 ----------------------------------------------------------------------------



 vib:animation  F

 Task  times  cpu:     5824.2s     wall:     5861.0s
 
 
                                NWChem Input Module
                                -------------------
 
 
 Summary of allocated global arrays
-----------------------------------
  No active global arrays



                         GA Statistics for process    0
                         ------------------------------

       create   destroy   get      put      acc     scatter   gather  read&inc
calls: 6.21e+04 6.21e+04 1.20e+07 1.28e+06 3.72e+06    0        0     8.82e+04 
number of processes/call 3.02e+11 -4.65e+12 1.54e+12 0.00e+00 0.00e+00
bytes total:             9.31e+09 1.42e+10 2.65e+09 0.00e+00 0.00e+00 7.05e+05
bytes remote:            4.91e+09 9.64e+09 1.87e+09 0.00e+00 0.00e+00 0.00e+00
Max memory consumed for GA by this process: 142744056 bytes
 
MA_summarize_allocated_blocks: starting scan ...
MA_summarize_allocated_blocks: scan completed: 0 heap blocks, 0 stack blocks
MA usage statistics:

	allocation statistics:
					      heap	     stack
					      ----	     -----
	current number of blocks	         0	         0
	maximum number of blocks	        25	        39
	current total bytes		         0	         0
	maximum total bytes		  96513232	  26250824
	maximum total K-bytes		     96514	     26251
	maximum total M-bytes		        97	        27
 
 
                                     CITATION
                                     --------
                Please cite the following reference when publishing
                           results obtained with NWChem:
 
          E. Apr, E. J. Bylaska, W. A. de Jong, N. Govind, K. Kowalski,
       T. P. Straatsma, M. Valiev, H. J. J. van Dam, Y. Alexeev, J. Anchell,
       V. Anisimov, F. W. Aquino, R. Atta-Fynn, J. Autschbach, N. P. Bauman,
     J. C. Becca, D. E. Bernholdt, K. Bhaskaran-Nair, S. Bogatko, P. Borowski,
        J. Boschen, J. Brabec, A. Bruner, E. Caut, Y. Chen, G. N. Chuev,
      C. J. Cramer, J. Daily, M. J. O. Deegan, T. H. Dunning Jr., M. Dupuis,
   K. G. Dyall, G. I. Fann, S. A. Fischer, A. Fonari, H. Frchtl, L. Gagliardi,
      J. Garza, N. Gawande, S. Ghosh, K. Glaesemann, A. W. Gtz, J. Hammond,
       V. Helms, E. D. Hermes, K. Hirao, S. Hirata, M. Jacquelin, L. Jensen,
   B. G. Johnson, H. Jnsson, R. A. Kendall, M. Klemm, R. Kobayashi, V. Konkov,
      S. Krishnamoorthy, M. Krishnan, Z. Lin, R. D. Lins, R. J. Littlefield,
      A. J. Logsdail, K. Lopata, W. Ma, A. V. Marenich, J. Martin del Campo,
   D. Mejia-Rodriguez, J. E. Moore, J. M. Mullin, T. Nakajima, D. R. Nascimento,
    J. A. Nichols, P. J. Nichols, J. Nieplocha, A. Otero-de-la-Roza, B. Palmer,
    A. Panyala, T. Pirojsirikul, B. Peng, R. Peverati, J. Pittner, L. Pollack,
   R. M. Richard, P. Sadayappan, G. C. Schatz, W. A. Shelton, D. W. Silverstein,
   D. M. A. Smith, T. A. Soares, D. Song, M. Swart, H. L. Taylor, G. S. Thomas,
            V. Tipparaju, D. G. Truhlar, K. Tsemekhman, T. Van Voorhis,
     . Vzquez-Mayagoitia, P. Verma, O. Villa, A. Vishnu, K. D. Vogiatzis,
        D. Wang, J. H. Weare, M. J. Williamson, T. L. Windus, K. Woliski,
        A. T. Wong, Q. Wu, C. Yang, Q. Yu, M. Zacharias, Z. Zhang, Y. Zhao,
                                and R. J. Harrison
                        "NWChem: Past, present, and future
                         J. Chem. Phys. 152, 184102 (2020)
                               doi:10.1063/5.0004997
 
                                      AUTHORS
                                      -------
     E. Apra, E. J. Bylaska, N. Govind, K. Kowalski, M. Valiev, W. A. de Jong,
      T. P. Straatsma, H. J. J. van Dam, D. Wang, T. L. Windus, N. P. Bauman,
       A. Panyala, J. Hammond, J. Autschbach, K. Bhaskaran-Nair, J. Brabec,
    K. Lopata, S. A. Fischer, S. Krishnamoorthy, M. Jacquelin, W. Ma, M. Klemm,
       O. Villa, Y. Chen, V. Anisimov, F. Aquino, S. Hirata, M. T. Hackler,
           Eric Hermes, L. Jensen, J. E. Moore, J. C. Becca, V. Konjkov,
            D. Mejia-Rodriguez, T. Risthaus, M. Malagoli, A. Marenich,
   A. Otero-de-la-Roza, J. Mullin, P. Nichols, R. Peverati, J. Pittner, Y. Zhao,
        P.-D. Fan, A. Fonari, M. J. Williamson, R. J. Harrison, J. R. Rehr,
      M. Dupuis, D. Silverstein, D. M. A. Smith, J. Nieplocha, V. Tipparaju,
      M. Krishnan, B. E. Van Kuiken, A. Vazquez-Mayagoitia, M. Swart, Q. Wu,
   T. Van Voorhis, A. A. Auer, M. Nooijen, L. D. Crosby, E. Brown, G. Cisneros,
     G. I. Fann, H. Fruchtl, J. Garza, K. Hirao, R. A. Kendall, J. A. Nichols,
       K. Tsemekhman, K. Wolinski, J. Anchell, D. E. Bernholdt, P. Borowski,
       T. Clark, D. Clerc, H. Dachsel, M. J. O. Deegan, K. Dyall, D. Elwood,
      E. Glendening, M. Gutowski, A. C. Hess, J. Jaffe, B. G. Johnson, J. Ju,
        R. Kobayashi, R. Kutteh, Z. Lin, R. Littlefield, X. Long, B. Meng,
      T. Nakajima, S. Niu, L. Pollack, M. Rosing, K. Glaesemann, G. Sandrone,
      M. Stave, H. Taylor, G. Thomas, J. H. van Lenthe, A. T. Wong, Z. Zhang.

 Total times  cpu:     7350.2s     wall:     7402.1s
