 argument  1 = 13R1.nw
 


============================== echo of input deck ==============================
echo
start 13R1_
title "F,H,F Reference 1"
charge 0

geometry
 zmatrix
  O
  C  1  R1
  C  2  R2  1  A1
  H  1  R5  2  A4  3  D0
  F  2  R6  3  A5  4  D180
  H  3  R7  2  A6  1  D180
  H  3  R8  2  A7  1  D0
  variables
    R1  1.329
    R2  1.363
    A1  124.5
    R5  0.994
    A4  105.4
    R6  1.385
    A5  122.5
    R7  1.078
    A6  120.0
    R8  1.099
    A7  117.6
  constants
    D0  0.000
    D180 180.0
 end
end

basis spherical
 * library aug-cc-pVDZ
end

set lindep:n_dep 0

set cphf:maxsub 95
set cphf:maxiter 999
set int:acc_std 1d-16
set fock:densityscreen f

scf
 maxiter 99
 vectors input atomic
 thresh 1d-9
 tol2e 1d-15
end

mp2
 freeze atomic
 tight
end

driver
 clear
 maxiter 99
 tight
end

set "mp2:aotol2e fock" 1d-15
set mp2:aotol2e 1d-15
set mp2:backtol 1d-15


task mp2 optimize
task mp2 frequencies

================================================================================


                                         
                                         
 
 
             Northwest Computational Chemistry Package (NWChem) 7.0.0
             --------------------------------------------------------
 
 
                    Environmental Molecular Sciences Laboratory
                       Pacific Northwest National Laboratory
                                Richland, WA 99352
 
                              Copyright (c) 1994-2020
                       Pacific Northwest National Laboratory
                            Battelle Memorial Institute
 
             NWChem is an open-source computational chemistry package
                        distributed under the terms of the
                      Educational Community License (ECL) 2.0
             A copy of the license is included with this distribution
                              in the LICENSE.TXT file
 
                                  ACKNOWLEDGMENT
                                  --------------

            This software and its documentation were developed at the
            EMSL at Pacific Northwest National Laboratory, a multiprogram
            national laboratory, operated for the U.S. Department of Energy
            by Battelle under Contract Number DE-AC05-76RL01830. Support
            for this work was provided by the Department of Energy Office
            of Biological and Environmental Research, Office of Basic
            Energy Sciences, and the Office of Advanced Scientific Computing.


           Job information
           ---------------

    hostname        = compute-0-19.local
    program         = /scratch/nwchem.277679
    date            = Tue Apr  6 11:59:59 2021

    compiled        = Wed_Mar_31_13:42:43_2021
    source          = /home/edo/nwchem-7.0.1
    nwchem branch   = 7.0.1
    nwchem revision = de46fdf
    ga revision     = 5.7.1
    use scalapack   = T
    input           = 13R1.nw
    prefix          = 13R1_.
    data base       = ./13R1_.db
    status          = startup
    nproc           =       11
    time left       =     -1s



           Memory information
           ------------------

    heap     =  215205455 doubles =   1641.9 Mbytes
    stack    =  215205457 doubles =   1641.9 Mbytes
    global   =  122974549 doubles =    938.2 Mbytes (distinct from heap & stack)
    total    =  553385461 doubles =   4222.0 Mbytes
    verify   = yes
    hardfail = no 


           Directory information
           ---------------------
 
  0 permanent = .
  0 scratch   = /scratch
 
 
 
 
                                NWChem Input Module
                                -------------------
 
 
                                 F,H,F Reference 1
                                 -----------------

 Scaling coordinates for geometry "geometry" by  1.889725989
 (inverse scale =  0.529177249)

 CS  symmetry detected
 
 
                             Geometry "geometry" -> ""
                             -------------------------
 
 Output coordinates in angstroms (scale by  1.889725989 to convert to a.u.)
 
  No.       Tag          Charge          X              Y              Z
 ---- ---------------- ---------- -------------- -------------- --------------
    1 O                    8.0000    -1.22963731     0.45130733     0.00000000
    2 C                    6.0000     0.02486085     0.01258719     0.00000000
    3 C                    6.0000     1.12440530     0.81805041     0.00000000
    4 H                    1.0000    -1.16245188     1.44303417     0.00000000
    5 F                    9.0000     0.11482589    -1.36948780     0.00000000
    6 H                    1.0000     2.11091674     0.38344810     0.00000000
    7 H                    1.0000     0.95960383     1.90462369     0.00000000
 
      Atomic Mass 
      ----------- 
 
      O                 15.994910
      C                 12.000000
      H                  1.007825
      F                 18.998400
 

 Effective nuclear repulsion energy (a.u.)     117.5169755322

            Nuclear Dipole moment (a.u.) 
            ----------------------------
        X                 Y               Z
 ---------------- ---------------- ----------------
    -0.0000000000     0.0000000000     0.0000000000
 
      Symmetry information
      --------------------
 
 Group name             Cs        
 Group number              2
 Group order               2
 No. of unique centers     7
 
      Symmetry unique atoms
 
     1    2    3    4    5    6    7
 


                                Z-matrix (user)
                                -------- 

 Units are Angstrom for bonds and degrees for angles

  Constants are marked with an asterisk (*).

  Constrained variables are marked with a plus sign (+).

 
      Type          Name      I     J     K     L     M      Value
      ----------- --------  ----- ----- ----- ----- ----- ----------
    1 Stretch      R1          2     1                       1.32900
    2 Stretch      R2          3     2                       1.36300
    3 Bend         A1          3     2     1               124.50000
    4 Stretch      R5          4     1                       0.99400
    5 Bend         A4          4     1     2               105.40000
    6*Torsion      D0          4     1     2     3           0.00000
    7 Stretch      R6          5     2                       1.38500
    8 Bend         A5          5     2     3               122.50000
    9*Torsion      D180        5     2     3     4         180.00000
   10 Stretch      R7          6     3                       1.07800
   11 Bend         A6          6     3     2               120.00000
   12*Torsion      D180        6     3     2     1         180.00000
   13 Stretch      R8          7     3                       1.09900
   14 Bend         A7          7     3     2               117.60000
   15*Torsion      D0          7     3     2     1           0.00000
 
 
            XYZ format geometry
            -------------------
     7
 geometry
 O                    -1.22963731     0.45130733     0.00000000
 C                     0.02486085     0.01258719     0.00000000
 C                     1.12440530     0.81805041     0.00000000
 H                    -1.16245188     1.44303417     0.00000000
 F                     0.11482589    -1.36948780     0.00000000
 H                     2.11091674     0.38344810     0.00000000
 H                     0.95960383     1.90462369     0.00000000
 
 ==============================================================================
                                internuclear distances
 ------------------------------------------------------------------------------
       center one      |      center two      | atomic units |  angstroms
 ------------------------------------------------------------------------------
    2 C                |   1 O                |     2.51145  |     1.32900
    3 C                |   2 C                |     2.57570  |     1.36300
    4 H                |   1 O                |     1.87839  |     0.99400
    5 F                |   2 C                |     2.61727  |     1.38500
    6 H                |   3 C                |     2.03712  |     1.07800
    7 H                |   3 C                |     2.07681  |     1.09900
 ------------------------------------------------------------------------------
                         number of included internuclear distances:          6
 ==============================================================================



 ==============================================================================
                                 internuclear angles
 ------------------------------------------------------------------------------
        center 1       |       center 2       |       center 3       |  degrees
 ------------------------------------------------------------------------------
    2 C                |   1 O                |   4 H                |   105.40
    1 O                |   2 C                |   3 C                |   124.50
    1 O                |   2 C                |   5 F                |   113.00
    3 C                |   2 C                |   5 F                |   122.50
    2 C                |   3 C                |   6 H                |   120.00
    2 C                |   3 C                |   7 H                |   117.60
    6 H                |   3 C                |   7 H                |   122.40
 ------------------------------------------------------------------------------
                            number of included internuclear angles:          7
 ==============================================================================





 Summary of "ao basis" -> "" (spherical)
 ------------------------------------------------------------------------------
       Tag                 Description            Shells   Functions and Types
 ---------------- ------------------------------  ------  ---------------------
 *                        aug-cc-pVDZ                 on all atoms 


 
  Deleted DRIVER restart files 
 
 
 
                           NWChem Geometry Optimization
                           ----------------------------
 
 
 
 
                                 F,H,F Reference 1
 
 
 maximum gradient threshold         (gmax) =   0.000015
 rms gradient threshold             (grms) =   0.000010
 maximum cartesian step threshold   (xmax) =   0.000060
 rms cartesian step threshold       (xrms) =   0.000040
 fixed trust radius                (trust) =   0.300000
 maximum step size to saddle      (sadstp) =   0.100000
 energy precision                  (eprec) =   1.0D-07
 maximum number of steps          (nptopt) =   99
 initial hessian option           (inhess) =    0
 line search option               (linopt) =    1
 hessian update option            (modupd) =    1
 saddle point option              (modsad) =    0
 initial eigen-mode to follow     (moddir) =    0
 initial variable to follow       (vardir) =    0
 follow first negative mode     (firstneg) =    T
 apply conjugacy                    (opcg) =    F
 source of zmatrix                         =   user    


          -------------------
          Energy Minimization
          -------------------

 
 Names of Z-matrix variables 
    1 R1           2 R2           3 A1           4 R5           5 A4      
    6 D0           7 R6           8 A5           9 D180        10 R7      
   11 A6          12 D180        13 R8          14 A7          15 D0      
 
 Variables with the same non-blank name are constrained to be equal
 
     variables named       D0 =     6   15 
     variables named     D180 =     9   12 

 Number of frozen variables =    4
           Frozen variables =    6    9   12   15
 
 Using diagonal initial Hessian 
 Scaling for Hessian diagonals: bonds = 1.00  angles = 0.25  torsions = 0.10

          --------
          Step   0
          --------
 
 
                         Geometry "geometry" -> "geometry"
                         ---------------------------------
 
 Output coordinates in angstroms (scale by  1.889725989 to convert to a.u.)
 
  No.       Tag          Charge          X              Y              Z
 ---- ---------------- ---------- -------------- -------------- --------------
    1 O                    8.0000    -1.22963731     0.45130733     0.00000000
    2 C                    6.0000     0.02486085     0.01258719     0.00000000
    3 C                    6.0000     1.12440530     0.81805041     0.00000000
    4 H                    1.0000    -1.16245188     1.44303417     0.00000000
    5 F                    9.0000     0.11482589    -1.36948780     0.00000000
    6 H                    1.0000     2.11091674     0.38344810     0.00000000
    7 H                    1.0000     0.95960383     1.90462369     0.00000000
 
      Atomic Mass 
      ----------- 
 
      O                 15.994910
      C                 12.000000
      H                  1.007825
      F                 18.998400
 

 Effective nuclear repulsion energy (a.u.)     117.5169755322

            Nuclear Dipole moment (a.u.) 
            ----------------------------
        X                 Y               Z
 ---------------- ---------------- ----------------
    -0.0000000000     0.0000000000     0.0000000000
 
      Symmetry information
      --------------------
 
 Group name             Cs        
 Group number              2
 Group order               2
 No. of unique centers     7
 
      Symmetry unique atoms
 
     1    2    3    4    5    6    7
 
                      Basis "ao basis" -> "ao basis" (spherical)
                      -----
  O (Oxygen)
  ----------
            Exponent  Coefficients 
       -------------- ---------------------------------------------------------
  1 S  1.17200000E+04  0.000710
  1 S  1.75900000E+03  0.005470
  1 S  4.00800000E+02  0.027837
  1 S  1.13700000E+02  0.104800
  1 S  3.70300000E+01  0.283062
  1 S  1.32700000E+01  0.448719
  1 S  5.02500000E+00  0.270952
  1 S  1.01300000E+00  0.015458
 
  2 S  1.17200000E+04 -0.000160
  2 S  1.75900000E+03 -0.001263
  2 S  4.00800000E+02 -0.006267
  2 S  1.13700000E+02 -0.025716
  2 S  3.70300000E+01 -0.070924
  2 S  1.32700000E+01 -0.165411
  2 S  5.02500000E+00 -0.116955
  2 S  1.01300000E+00  0.557368
 
  3 S  3.02300000E-01  1.000000
 
  4 S  7.89600000E-02  1.000000
 
  5 P  1.77000000E+01  0.043018
  5 P  3.85400000E+00  0.228913
  5 P  1.04600000E+00  0.508728
 
  6 P  2.75300000E-01  1.000000
 
  7 P  6.85600000E-02  1.000000
 
  8 D  1.18500000E+00  1.000000
 
  9 D  3.32000000E-01  1.000000
 
  C (Carbon)
  ----------
            Exponent  Coefficients 
       -------------- ---------------------------------------------------------
  1 S  6.66500000E+03  0.000692
  1 S  1.00000000E+03  0.005329
  1 S  2.28000000E+02  0.027077
  1 S  6.47100000E+01  0.101718
  1 S  2.10600000E+01  0.274740
  1 S  7.49500000E+00  0.448564
  1 S  2.79700000E+00  0.285074
  1 S  5.21500000E-01  0.015204
 
  2 S  6.66500000E+03 -0.000146
  2 S  1.00000000E+03 -0.001154
  2 S  2.28000000E+02 -0.005725
  2 S  6.47100000E+01 -0.023312
  2 S  2.10600000E+01 -0.063955
  2 S  7.49500000E+00 -0.149981
  2 S  2.79700000E+00 -0.127262
  2 S  5.21500000E-01  0.544529
 
  3 S  1.59600000E-01  1.000000
 
  4 S  4.69000000E-02  1.000000
 
  5 P  9.43900000E+00  0.038109
  5 P  2.00200000E+00  0.209480
  5 P  5.45600000E-01  0.508557
 
  6 P  1.51700000E-01  1.000000
 
  7 P  4.04100000E-02  1.000000
 
  8 D  5.50000000E-01  1.000000
 
  9 D  1.51000000E-01  1.000000
 
  H (Hydrogen)
  ------------
            Exponent  Coefficients 
       -------------- ---------------------------------------------------------
  1 S  1.30100000E+01  0.019685
  1 S  1.96200000E+00  0.137977
  1 S  4.44600000E-01  0.478148
 
  2 S  1.22000000E-01  1.000000
 
  3 S  2.97400000E-02  1.000000
 
  4 P  7.27000000E-01  1.000000
 
  5 P  1.41000000E-01  1.000000
 
  F (Fluorine)
  ------------
            Exponent  Coefficients 
       -------------- ---------------------------------------------------------
  1 S  1.47100000E+04  0.000721
  1 S  2.20700000E+03  0.005553
  1 S  5.02800000E+02  0.028267
  1 S  1.42600000E+02  0.106444
  1 S  4.64700000E+01  0.286814
  1 S  1.67000000E+01  0.448641
  1 S  6.35600000E+00  0.264761
  1 S  1.31600000E+00  0.015333
 
  2 S  1.47100000E+04 -0.000165
  2 S  2.20700000E+03 -0.001308
  2 S  5.02800000E+02 -0.006495
  2 S  1.42600000E+02 -0.026691
  2 S  4.64700000E+01 -0.073690
  2 S  1.67000000E+01 -0.170776
  2 S  6.35600000E+00 -0.112327
  2 S  1.31600000E+00  0.562814
 
  3 S  3.89700000E-01  1.000000
 
  4 S  9.86300000E-02  1.000000
 
  5 P  2.26700000E+01  0.044878
  5 P  4.97700000E+00  0.235718
  5 P  1.34700000E+00  0.508521
 
  6 P  3.47100000E-01  1.000000
 
  7 P  8.50200000E-02  1.000000
 
  8 D  1.64000000E+00  1.000000
 
  9 D  4.64000000E-01  1.000000
 


 Summary of "ao basis" -> "ao basis" (spherical)
 ------------------------------------------------------------------------------
       Tag                 Description            Shells   Functions and Types
 ---------------- ------------------------------  ------  ---------------------
 O                        aug-cc-pVDZ                9       23   4s3p2d
 C                        aug-cc-pVDZ                9       23   4s3p2d
 H                        aug-cc-pVDZ                5        9   3s2p
 F                        aug-cc-pVDZ                9       23   4s3p2d


                                 NWChem SCF Module
                                 -----------------
 
 
                                 F,H,F Reference 1
 
 

  ao basis        = "ao basis"
  functions       =   119
  atoms           =     7
  closed shells   =    16
  open shells     =     0
  charge          =   0.00
  wavefunction    = RHF 
  input vectors   = atomic
  output vectors  = ./13R1_.movecs
  use symmetry    = T
  symmetry adapt  = T


 Summary of "ao basis" -> "ao basis" (spherical)
 ------------------------------------------------------------------------------
       Tag                 Description            Shells   Functions and Types
 ---------------- ------------------------------  ------  ---------------------
 O                        aug-cc-pVDZ                9       23   4s3p2d
 C                        aug-cc-pVDZ                9       23   4s3p2d
 H                        aug-cc-pVDZ                5        9   3s2p
 F                        aug-cc-pVDZ                9       23   4s3p2d


      Symmetry analysis of basis
      --------------------------
 
        a'         85
        a"         34
 

int_init: setting std/high accuracies to  1.0D-16  1.0D-32

 Forming initial guess at       0.5s


 Forcing the number of linearly dependent vectors to be  0
 
      Superposition of Atomic Density Guess
      -------------------------------------
 
 Sum of atomic energies:        -250.98744697
 
      Non-variational initial energy
      ------------------------------

 Total energy =    -252.591841
 1-e energy   =    -577.465058
 2-e energy   =     207.356242
 HOMO         =      -0.260924
 LUMO         =       0.017684
 
 
      Symmetry analysis of molecular orbitals - initial
      -------------------------------------------------
 
  Numbering of irreducible representations: 
 
     1 a'          2 a"      
 
  Orbital symmetries:
 
     1 a'          2 a'          3 a'          4 a'          5 a'      
     6 a'          7 a'          8 a'          9 a'         10 a'      
    11 a"         12 a'         13 a'         14 a"         15 a'      
    16 a"         17 a'         18 a'         19 a'         20 a"      
    21 a'         22 a"         23 a'         24 a'         25 a'      
    26 a"      
 

 Starting SCF solution at       1.1s



 ----------------------------------------------
         Quadratically convergent ROHF

 Convergence threshold     :          1.000E-09
 Maximum no. of iterations :           99
 Final Fock-matrix accuracy:          1.000E-15
 ----------------------------------------------

 Warning: symmetry breaking in RHF:   1.842636995349204E-014

              iter       energy          gnorm     gmax       time
             ----- ------------------- --------- --------- --------
                 1     -251.6911618931  1.19D+00  1.70D-01      1.5
 Warning: symmetry breaking in RHF:   8.049028659260124E-014
 Warning: symmetry breaking in RHF:   5.595368780204834E-014
                 2     -251.7674223467  3.34D-01  5.17D-02      2.5
 Warning: symmetry breaking in RHF:   3.935470055133976E-014
                 3     -251.7777946826  2.72D-02  8.11D-03      3.8
 Warning: symmetry breaking in RHF:   3.665422244510147E-014
                 4     -251.7779157410  4.50D-04  6.96D-05      6.0
 Warning: symmetry breaking in RHF:   3.664912020622303E-014
                 5     -251.7779157663  1.75D-07  4.40D-08      9.5
 Warning: symmetry breaking in RHF:   3.664908864200262E-014
                 6     -251.7779157663  9.31D-11  1.36D-11     13.0


       Final RHF  results 
       ------------------ 

         Total SCF energy =   -251.777915766284
      One-electron energy =   -579.373919589851
      Two-electron energy =    210.079028291354
 Nuclear repulsion energy =    117.516975532214

        Time for solution =     11.9s


 
       Symmetry analysis of molecular orbitals - final
       -----------------------------------------------
 
  Numbering of irreducible representations: 
 
     1 a'          2 a"      
 
  Orbital symmetries:
 
     1 a'          2 a'          3 a'          4 a'          5 a'      
     6 a'          7 a'          8 a'          9 a'         10 a'      
    11 a"         12 a'         13 a"         14 a'         15 a'      
    16 a"         17 a'         18 a'         19 a'         20 a'      
    21 a"         22 a'         23 a"         24 a'         25 a'      
    26 a'      
 
             Final eigenvalues
             -----------------

              1      
    1  -26.3405
    2  -20.6411
    3  -11.4195
    4  -11.2432
    5   -1.6377
    6   -1.4515
    7   -1.0351
    8   -0.8689
    9   -0.7540
   10   -0.7132
   11   -0.7088
   12   -0.6624
   13   -0.6010
   14   -0.5978
   15   -0.5748
   16   -0.3585
   17    0.0289
   18    0.0482
   19    0.0595
   20    0.0936
   21    0.1043
   22    0.1221
   23    0.1230
   24    0.1405
   25    0.1582
   26    0.1723
 
                       ROHF Final Molecular Orbital Analysis
                       -------------------------------------
 
 Vector    6  Occ=2.000000D+00  E=-1.451534D+00  Symmetry=a'
              MO Center= -9.6D-01,  4.4D-01,  2.9D-32, r^2= 7.1D-01
   Bfn.  Coefficient  Atom+Function         Bfn.  Coefficient  Atom+Function  
  ----- ------------  ---------------      ----- ------------  ---------------
     3      0.460768  1 O  s                  2      0.413666  1 O  s          
    70      0.174522  4 H  s                 27     -0.165024  2 C  s          
 
 Vector    7  Occ=2.000000D+00  E=-1.035104D+00  Symmetry=a'
              MO Center=  5.6D-01,  4.3D-01, -4.2D-16, r^2= 1.4D+00
   Bfn.  Coefficient  Atom+Function         Bfn.  Coefficient  Atom+Function  
  ----- ------------  ---------------      ----- ------------  ---------------
    48      0.305452  3 C  s                 25      0.264214  2 C  s          
    49      0.196763  3 C  s                 28      0.163600  2 C  px         
 
 Vector    8  Occ=2.000000D+00  E=-8.688937D-01  Symmetry=a'
              MO Center= -3.2D-01,  4.5D-02,  4.3D-31, r^2= 2.3D+00
   Bfn.  Coefficient  Atom+Function         Bfn.  Coefficient  Atom+Function  
  ----- ------------  ---------------      ----- ------------  ---------------
     6      0.286385  1 O  py                84     -0.269637  5 F  py         
    26     -0.265130  2 C  s                 70      0.237636  4 H  s          
    49      0.204363  3 C  s                 25     -0.193259  2 C  s          
    27      0.185492  2 C  s                 28      0.185366  2 C  px         
    87     -0.176130  5 F  py                 5     -0.171722  1 O  px         
 
 Vector    9  Occ=2.000000D+00  E=-7.540240D-01  Symmetry=a'
              MO Center= -1.4D-01, -4.0D-01, -1.7D-30, r^2= 2.2D+00
   Bfn.  Coefficient  Atom+Function         Bfn.  Coefficient  Atom+Function  
  ----- ------------  ---------------      ----- ------------  ---------------
    84      0.382574  5 F  py                27     -0.275068  2 C  s          
    87      0.253345  5 F  py                83      0.227334  5 F  px         
    50      0.220992  3 C  s                  5     -0.210919  1 O  px         
    28      0.209787  2 C  px                29     -0.208690  2 C  py         
     6      0.186308  1 O  py                70      0.166289  4 H  s          
 
 Vector   10  Occ=2.000000D+00  E=-7.131750D-01  Symmetry=a'
              MO Center=  2.6D-01,  3.4D-01,  1.7D-16, r^2= 2.8D+00
   Bfn.  Coefficient  Atom+Function         Bfn.  Coefficient  Atom+Function  
  ----- ------------  ---------------      ----- ------------  ---------------
     5      0.271225  1 O  px                51     -0.244510  3 C  px         
   102     -0.236580  6 H  s                 83      0.206294  5 F  px         
    29      0.198128  2 C  py                 8      0.181006  1 O  px         
     6      0.171632  1 O  py                26      0.167906  2 C  s          
     3     -0.166357  1 O  s                 49     -0.158568  3 C  s          
 
 Vector   11  Occ=2.000000D+00  E=-7.087619D-01  Symmetry=a"
              MO Center= -1.8D-02, -9.8D-01,  8.3D-16, r^2= 1.1D+00
   Bfn.  Coefficient  Atom+Function         Bfn.  Coefficient  Atom+Function  
  ----- ------------  ---------------      ----- ------------  ---------------
    85      0.573234  5 F  pz                88      0.390085  5 F  pz         
    30      0.195059  2 C  pz                 7      0.190954  1 O  pz         
 
 Vector   12  Occ=2.000000D+00  E=-6.624411D-01  Symmetry=a'
              MO Center= -2.0D-01, -5.9D-01,  4.9D-18, r^2= 2.1D+00
   Bfn.  Coefficient  Atom+Function         Bfn.  Coefficient  Atom+Function  
  ----- ------------  ---------------      ----- ------------  ---------------
    83      0.508399  5 F  px                86      0.359566  5 F  px         
     6     -0.296278  1 O  py                70     -0.221156  4 H  s          
   103      0.170698  6 H  s                  3      0.166999  1 O  s          
     9     -0.163383  1 O  py               112     -0.154752  7 H  s          
    84     -0.150352  5 F  py         
 
 Vector   13  Occ=2.000000D+00  E=-6.009980D-01  Symmetry=a"
              MO Center= -8.4D-01,  1.2D-01,  2.8D-15, r^2= 1.5D+00
   Bfn.  Coefficient  Atom+Function         Bfn.  Coefficient  Atom+Function  
  ----- ------------  ---------------      ----- ------------  ---------------
     7      0.538721  1 O  pz                10      0.395812  1 O  pz         
    85     -0.301494  5 F  pz                88     -0.213541  5 F  pz         
    30      0.156738  2 C  pz         
 
 Vector   14  Occ=2.000000D+00  E=-5.977917D-01  Symmetry=a'
              MO Center=  4.4D-01,  4.3D-01, -8.5D-15, r^2= 2.5D+00
   Bfn.  Coefficient  Atom+Function         Bfn.  Coefficient  Atom+Function  
  ----- ------------  ---------------      ----- ------------  ---------------
    52      0.340091  3 C  py               111      0.295676  7 H  s          
    83      0.276622  5 F  px               112      0.252822  7 H  s          
    28     -0.233327  2 C  px                 5      0.198864  1 O  px         
    86      0.199364  5 F  px                84      0.196345  5 F  py         
    26     -0.171168  2 C  s          
 
 Vector   15  Occ=2.000000D+00  E=-5.747607D-01  Symmetry=a'
              MO Center=  5.6D-01,  6.6D-01,  5.2D-15, r^2= 2.7D+00
   Bfn.  Coefficient  Atom+Function         Bfn.  Coefficient  Atom+Function  
  ----- ------------  ---------------      ----- ------------  ---------------
   102      0.326406  6 H  s                 51      0.321128  3 C  px         
     5      0.303004  1 O  px               103      0.284734  6 H  s          
   112     -0.208687  7 H  s                  8      0.207154  1 O  px         
   111     -0.205291  7 H  s                 52     -0.177760  3 C  py         
     6      0.169393  1 O  py                28     -0.167891  2 C  px         
 
 Vector   16  Occ=2.000000D+00  E=-3.584758D-01  Symmetry=a"
              MO Center=  5.3D-01,  5.1D-01, -4.9D-16, r^2= 1.9D+00
   Bfn.  Coefficient  Atom+Function         Bfn.  Coefficient  Atom+Function  
  ----- ------------  ---------------      ----- ------------  ---------------
    53      0.422628  3 C  pz                30      0.316110  2 C  pz         
    56      0.299226  3 C  pz                 7     -0.254029  1 O  pz         
    33      0.213452  2 C  pz                10     -0.209173  1 O  pz         
 
 Vector   17  Occ=0.000000D+00  E= 2.891413D-02  Symmetry=a'
              MO Center= -5.9D-01,  2.8D+00,  4.2D-15, r^2= 1.1D+01
   Bfn.  Coefficient  Atom+Function         Bfn.  Coefficient  Atom+Function  
  ----- ------------  ---------------      ----- ------------  ---------------
   113     -1.993746  7 H  s                 27      1.900947  2 C  s          
    72     -1.358652  4 H  s                 50      1.040532  3 C  s          
    58      0.827418  3 C  py               112     -0.631674  7 H  s          
    11     -0.380162  1 O  px                49      0.353395  3 C  s          
     4     -0.347745  1 O  s                104      0.320197  6 H  s          
 
 Vector   18  Occ=0.000000D+00  E= 4.818052D-02  Symmetry=a'
              MO Center=  2.2D+00,  7.6D-01, -4.4D-16, r^2= 2.0D+01
   Bfn.  Coefficient  Atom+Function         Bfn.  Coefficient  Atom+Function  
  ----- ------------  ---------------      ----- ------------  ---------------
   104      3.764027  6 H  s                 72     -2.238832  4 H  s          
    50     -1.854107  3 C  s                 57     -1.508285  3 C  px         
   103      1.238531  6 H  s                 34     -0.718868  2 C  px         
     4     -0.654251  1 O  s                 54     -0.598678  3 C  px         
    49     -0.494051  3 C  s                 11     -0.427567  1 O  px         
 
 Vector   19  Occ=0.000000D+00  E= 5.951251D-02  Symmetry=a'
              MO Center=  9.3D-01,  1.7D+00, -3.9D-17, r^2= 2.2D+01
   Bfn.  Coefficient  Atom+Function         Bfn.  Coefficient  Atom+Function  
  ----- ------------  ---------------      ----- ------------  ---------------
   113      6.396851  7 H  s                104     -4.138620  6 H  s          
    27      3.040885  2 C  s                 50     -3.039254  3 C  s          
    72     -2.795984  4 H  s                 58     -2.498859  3 C  py         
    57      1.950464  3 C  px                35      1.556436  2 C  py         
   112      1.417927  7 H  s                 34     -0.732112  2 C  px         
 
 Vector   20  Occ=0.000000D+00  E= 9.361269D-02  Symmetry=a'
              MO Center= -4.9D-01, -8.8D-01, -4.2D-17, r^2= 1.8D+01
   Bfn.  Coefficient  Atom+Function         Bfn.  Coefficient  Atom+Function  
  ----- ------------  ---------------      ----- ------------  ---------------
    27     17.139650  2 C  s                 50    -15.949711  3 C  s          
    34      4.882593  2 C  px               113     -4.364369  7 H  s          
    35      4.107195  2 C  py                57      3.688744  3 C  px         
    58      3.578827  3 C  py                72      2.660251  4 H  s          
     4     -2.163829  1 O  s                 12     -1.161618  1 O  py         
 
 Vector   21  Occ=0.000000D+00  E= 1.042751D-01  Symmetry=a"
              MO Center=  1.1D+00,  9.1D-01, -2.7D-15, r^2= 9.6D+00
   Bfn.  Coefficient  Atom+Function         Bfn.  Coefficient  Atom+Function  
  ----- ------------  ---------------      ----- ------------  ---------------
    59      1.089547  3 C  pz                33     -0.354426  2 C  pz         
    30     -0.238547  2 C  pz         
 
 Vector   22  Occ=0.000000D+00  E= 1.220972D-01  Symmetry=a'
              MO Center=  2.2D-01,  3.4D-03, -7.9D-18, r^2= 1.7D+01
   Bfn.  Coefficient  Atom+Function         Bfn.  Coefficient  Atom+Function  
  ----- ------------  ---------------      ----- ------------  ---------------
    27      5.089893  2 C  s                  4     -3.975019  1 O  s          
    34     -3.600864  2 C  px                57      3.028970  3 C  px         
   104     -1.269343  6 H  s                 26      1.117856  2 C  s          
    71      1.081100  4 H  s                 72     -1.021580  4 H  s          
   103     -0.999145  6 H  s                 35      0.938255  2 C  py         
 
 Vector   23  Occ=0.000000D+00  E= 1.229965D-01  Symmetry=a"
              MO Center=  7.9D-02, -1.2D-01,  1.5D-15, r^2= 1.3D+01
   Bfn.  Coefficient  Atom+Function         Bfn.  Coefficient  Atom+Function  
  ----- ------------  ---------------      ----- ------------  ---------------
    36      3.331691  2 C  pz                59     -2.193709  3 C  pz         
    13     -0.756618  1 O  pz                91     -0.527761  5 F  pz         
    33      0.158806  2 C  pz         
 
 Vector   24  Occ=0.000000D+00  E= 1.405125D-01  Symmetry=a'
              MO Center= -3.4D-01,  8.5D-01, -4.2D-16, r^2= 1.4D+01
   Bfn.  Coefficient  Atom+Function         Bfn.  Coefficient  Atom+Function  
  ----- ------------  ---------------      ----- ------------  ---------------
     4      4.739254  1 O  s                 27     -3.684469  2 C  s          
    35     -3.649744  2 C  py                72      3.328925  4 H  s          
    34      2.040240  2 C  px                58      1.898854  3 C  py         
    11      1.292862  1 O  px                57      1.251607  3 C  px         
   113     -1.061097  7 H  s                104     -1.049488  6 H  s          
 
 Vector   25  Occ=0.000000D+00  E= 1.582363D-01  Symmetry=a'
              MO Center=  6.2D-01,  1.6D+00, -9.3D-16, r^2= 1.5D+01
   Bfn.  Coefficient  Atom+Function         Bfn.  Coefficient  Atom+Function  
  ----- ------------  ---------------      ----- ------------  ---------------
    27     14.047071  2 C  s                 58      7.221171  3 C  py         
   113     -7.123140  7 H  s                 50     -6.839950  3 C  s          
    34      4.896789  2 C  px               112     -2.796079  7 H  s          
    72      1.702373  4 H  s                 82     -1.630322  5 F  s          
    57      1.464684  3 C  px                35     -1.307129  2 C  py         
 
 Vector   26  Occ=0.000000D+00  E= 1.723402D-01  Symmetry=a'
              MO Center=  1.5D+00,  7.9D-02, -4.6D-16, r^2= 1.4D+01
   Bfn.  Coefficient  Atom+Function         Bfn.  Coefficient  Atom+Function  
  ----- ------------  ---------------      ----- ------------  ---------------
    27     13.133601  2 C  s                 50     -6.321900  3 C  s          
   104     -5.990930  6 H  s                 57      5.206954  3 C  px         
   103     -3.273959  6 H  s                 34      2.685813  2 C  px         
    82     -2.521186  5 F  s                 35      2.277251  2 C  py         
   113      1.721545  7 H  s                112      1.306090  7 H  s          
 
 Vector   27  Occ=0.000000D+00  E= 1.989691D-01  Symmetry=a"
              MO Center=  5.2D-01,  6.1D-01,  1.2D-15, r^2= 6.1D+00
   Bfn.  Coefficient  Atom+Function         Bfn.  Coefficient  Atom+Function  
  ----- ------------  ---------------      ----- ------------  ---------------
    59      1.250330  3 C  pz                36     -0.627805  2 C  pz         
    13     -0.502148  1 O  pz                33      0.492252  2 C  pz         
    30      0.418243  2 C  pz                53     -0.320642  3 C  pz         
    56     -0.262265  3 C  pz               119     -0.247815  7 H  pz         
   110     -0.222097  6 H  pz                45      0.196196  2 C  d  1       
 
 Vector   28  Occ=0.000000D+00  E= 2.060507D-01  Symmetry=a'
              MO Center=  2.2D-01,  1.7D+00, -2.6D-15, r^2= 1.2D+01
   Bfn.  Coefficient  Atom+Function         Bfn.  Coefficient  Atom+Function  
  ----- ------------  ---------------      ----- ------------  ---------------
   113      6.092371  7 H  s                104     -4.002685  6 H  s          
    58     -3.844799  3 C  py               112      3.154493  7 H  s          
    57      2.833324  3 C  px                72     -2.544178  4 H  s          
     4      2.509244  1 O  s                 50     -2.383218  3 C  s          
    71     -2.199741  4 H  s                 12      2.097938  1 O  py         
 
 Vector   29  Occ=0.000000D+00  E= 2.114292D-01  Symmetry=a'
              MO Center=  1.2D+00,  4.2D-01, -1.6D-16, r^2= 1.3D+01
   Bfn.  Coefficient  Atom+Function         Bfn.  Coefficient  Atom+Function  
  ----- ------------  ---------------      ----- ------------  ---------------
    27     30.015633  2 C  s                 50    -27.593460  3 C  s          
    34      5.306908  2 C  px                58      4.742215  3 C  py         
     4     -4.369448  1 O  s                 57      3.963790  3 C  px         
   103      3.707345  6 H  s                 35      3.372546  2 C  py         
    82     -2.797789  5 F  s                112      2.680585  7 H  s          
 
 Vector   30  Occ=0.000000D+00  E= 2.359882D-01  Symmetry=a"
              MO Center= -7.3D-01,  8.4D-02, -4.5D-16, r^2= 8.6D+00
   Bfn.  Coefficient  Atom+Function         Bfn.  Coefficient  Atom+Function  
  ----- ------------  ---------------      ----- ------------  ---------------
    13      1.886578  1 O  pz                36     -1.545059  2 C  pz         
    59      0.813763  3 C  pz                91     -0.473808  5 F  pz         
    45     -0.300576  2 C  d  1              56     -0.243370  3 C  pz         
    10     -0.222783  1 O  pz                 7     -0.190989  1 O  pz         
   110     -0.173732  6 H  pz                43     -0.162295  2 C  d -1       
 
 Vector   31  Occ=0.000000D+00  E= 2.493092D-01  Symmetry=a'
              MO Center= -1.5D+00,  6.3D-01,  1.7D-16, r^2= 1.0D+01
   Bfn.  Coefficient  Atom+Function         Bfn.  Coefficient  Atom+Function  
  ----- ------------  ---------------      ----- ------------  ---------------
    11      3.744151  1 O  px                 4      2.835731  1 O  s          
    57      2.485286  3 C  px                34     -1.613569  2 C  px         
    50     -1.618093  3 C  s                 72      1.525776  4 H  s          
    82     -1.384690  5 F  s                104     -1.146433  6 H  s          
    49     -1.078469  3 C  s                 31      1.050895  2 C  px         
 
 Vector   32  Occ=0.000000D+00  E= 2.738144D-01  Symmetry=a'
              MO Center=  1.8D-01,  5.2D-01,  5.6D-16, r^2= 1.0D+01
   Bfn.  Coefficient  Atom+Function         Bfn.  Coefficient  Atom+Function  
  ----- ------------  ---------------      ----- ------------  ---------------
    27     19.213612  2 C  s                 50    -17.714314  3 C  s          
     4     -5.225465  1 O  s                 35      4.059979  2 C  py         
    57      3.642962  3 C  px               112      3.448170  7 H  s          
    34      3.103218  2 C  px                71      2.921305  4 H  s          
    12     -2.575205  1 O  py                26     -2.312042  2 C  s          
 
 Vector   33  Occ=0.000000D+00  E= 3.154682D-01  Symmetry=a'
              MO Center=  4.8D-01, -5.4D-02, -3.5D-16, r^2= 8.5D+00
   Bfn.  Coefficient  Atom+Function         Bfn.  Coefficient  Atom+Function  
  ----- ------------  ---------------      ----- ------------  ---------------
    27     12.453564  2 C  s                 50    -10.630039  3 C  s          
    58      4.645649  3 C  py               103      4.018780  6 H  s          
    34      3.610870  2 C  px                82     -3.304008  5 F  s          
   113     -3.281743  7 H  s                 26     -1.985266  2 C  s          
    31     -1.694458  2 C  px               104      1.549221  6 H  s          
 
 Vector   34  Occ=0.000000D+00  E= 3.216947D-01  Symmetry=a'
              MO Center= -5.0D-01, -1.0D+00, -6.9D-16, r^2= 9.7D+00
   Bfn.  Coefficient  Atom+Function         Bfn.  Coefficient  Atom+Function  
  ----- ------------  ---------------      ----- ------------  ---------------
    35     -3.803725  2 C  py                12      3.661079  1 O  py         
    50      3.664455  3 C  s                 90      2.771739  5 F  py         
    34     -2.309720  2 C  px                71     -2.164490  4 H  s          
   103     -2.089487  6 H  s                 27     -1.849385  2 C  s          
    54      1.684220  3 C  px                82      1.463104  5 F  s          
 
 Vector   35  Occ=0.000000D+00  E= 3.269795D-01  Symmetry=a'
              MO Center= -2.3D-01, -8.5D-02,  3.6D-16, r^2= 9.2D+00
   Bfn.  Coefficient  Atom+Function         Bfn.  Coefficient  Atom+Function  
  ----- ------------  ---------------      ----- ------------  ---------------
    27     10.111044  2 C  s                 50     -8.318036  3 C  s          
    34      5.831737  2 C  px                58      5.034223  3 C  py         
   113     -3.957335  7 H  s                 72      2.541866  4 H  s          
    32      2.137894  2 C  py                54      1.792886  3 C  px         
    26      1.469170  2 C  s                 90      1.472570  5 F  py         
 
 Vector   36  Occ=0.000000D+00  E= 3.320766D-01  Symmetry=a"
              MO Center=  1.5D-01, -1.1D-01,  1.9D-15, r^2= 9.2D+00
   Bfn.  Coefficient  Atom+Function         Bfn.  Coefficient  Atom+Function  
  ----- ------------  ---------------      ----- ------------  ---------------
    36      2.789121  2 C  pz                13     -2.012980  1 O  pz         
    91     -1.345656  5 F  pz                59     -1.241542  3 C  pz         
   110     -0.689612  6 H  pz               119      0.668138  7 H  pz         
    78      0.623743  4 H  pz                45      0.363665  2 C  d  1       
    56      0.323213  3 C  pz                66     -0.314592  3 C  d -1       
 
 Vector   37  Occ=0.000000D+00  E= 3.538429D-01  Symmetry=a"
              MO Center=  4.3D-01, -3.0D-02,  1.5D-17, r^2= 8.8D+00
   Bfn.  Coefficient  Atom+Function         Bfn.  Coefficient  Atom+Function  
  ----- ------------  ---------------      ----- ------------  ---------------
    91      1.686070  5 F  pz                36     -1.485796  2 C  pz         
   119      1.090235  7 H  pz               110     -0.791679  6 H  pz         
    43      0.608298  2 C  d -1              59      0.549681  3 C  pz         
    66     -0.460271  3 C  d -1              56     -0.388831  3 C  pz         
    68     -0.370747  3 C  d  1              78      0.343677  4 H  pz         
 
 Vector   38  Occ=0.000000D+00  E= 3.651447D-01  Symmetry=a'
              MO Center=  6.3D-01, -4.5D-01,  6.4D-17, r^2= 9.8D+00
   Bfn.  Coefficient  Atom+Function         Bfn.  Coefficient  Atom+Function  
  ----- ------------  ---------------      ----- ------------  ---------------
    50      8.313031  3 C  s                 27     -6.645840  2 C  s          
    26      4.015829  2 C  s                 34     -3.599039  2 C  px         
    49     -3.523061  3 C  s                 54      3.459801  3 C  px         
   103     -2.943303  6 H  s                 31      2.547084  2 C  px         
    89      2.294931  5 F  px               112     -1.854232  7 H  s          
 
 Vector   39  Occ=0.000000D+00  E= 3.767050D-01  Symmetry=a'
              MO Center=  1.2D-02, -2.9D-01,  1.3D-16, r^2= 9.1D+00
   Bfn.  Coefficient  Atom+Function         Bfn.  Coefficient  Atom+Function  
  ----- ------------  ---------------      ----- ------------  ---------------
    27     17.193550  2 C  s                 50     -9.431478  3 C  s          
     4     -7.797613  1 O  s                 35      3.171207  2 C  py         
    57      3.113870  3 C  px                11     -2.463924  1 O  px         
    46      1.420106  2 C  d  2              89     -1.388265  5 F  px         
    34      1.360836  2 C  px                49      1.327835  3 C  s          
 
 Vector   40  Occ=0.000000D+00  E= 4.195316D-01  Symmetry=a"
              MO Center= -3.1D-01,  1.2D+00, -4.1D-17, r^2= 5.9D+00
   Bfn.  Coefficient  Atom+Function         Bfn.  Coefficient  Atom+Function  
  ----- ------------  ---------------      ----- ------------  ---------------
    78      1.487564  4 H  pz               110      0.934064  6 H  pz         
    13     -0.908394  1 O  pz               119     -0.646799  7 H  pz         
    36      0.505500  2 C  pz                68      0.478853  3 C  d  1       
    45     -0.398918  2 C  d  1              59     -0.345867  3 C  pz         
    56     -0.327155  3 C  pz                66      0.234158  3 C  d -1       
 
 Vector   41  Occ=0.000000D+00  E= 4.242702D-01  Symmetry=a'
              MO Center=  9.4D-02,  4.0D-01, -2.2D-16, r^2= 9.4D+00
   Bfn.  Coefficient  Atom+Function         Bfn.  Coefficient  Atom+Function  
  ----- ------------  ---------------      ----- ------------  ---------------
    27     16.260079  2 C  s                  4    -11.695886  1 O  s          
    50    -10.231558  3 C  s                 71      4.012698  4 H  s          
    35      3.517645  2 C  py                31     -3.376260  2 C  px         
   103      3.101201  6 H  s                 11     -2.632525  1 O  px         
    54     -2.449497  3 C  px                12     -1.851402  1 O  py         
 
 Vector   42  Occ=0.000000D+00  E= 4.296916D-01  Symmetry=a'
              MO Center=  7.5D-01,  3.1D-01, -2.1D-16, r^2= 8.7D+00
   Bfn.  Coefficient  Atom+Function         Bfn.  Coefficient  Atom+Function  
  ----- ------------  ---------------      ----- ------------  ---------------
    27      4.988113  2 C  s                 82     -4.461467  5 F  s          
     4      4.331420  1 O  s                 50     -4.203226  3 C  s          
   104     -3.887583  6 H  s                 58     -3.682828  3 C  py         
   112      3.537223  7 H  s                 57      3.438404  3 C  px         
   113      3.385793  7 H  s                 55     -2.522682  3 C  py         
 
 Vector   43  Occ=0.000000D+00  E= 4.679591D-01  Symmetry=a'
              MO Center=  3.1D-01,  7.3D-01, -1.0D-16, r^2= 7.6D+00
   Bfn.  Coefficient  Atom+Function         Bfn.  Coefficient  Atom+Function  
  ----- ------------  ---------------      ----- ------------  ---------------
    27      5.087433  2 C  s                 50     -3.730867  3 C  s          
     4     -2.369133  1 O  s                 55     -2.143249  3 C  py         
   104     -1.955252  6 H  s                113      1.949144  7 H  s          
    57      1.902570  3 C  px                82     -1.850430  5 F  s          
    31     -1.733542  2 C  px                49      1.642297  3 C  s          
 
 Vector   44  Occ=0.000000D+00  E= 4.938381D-01  Symmetry=a"
              MO Center=  1.6D+00,  1.0D+00,  6.3D-17, r^2= 5.7D+00
   Bfn.  Coefficient  Atom+Function         Bfn.  Coefficient  Atom+Function  
  ----- ------------  ---------------      ----- ------------  ---------------
    56      1.760142  3 C  pz               110     -1.613625  6 H  pz         
    59      1.572966  3 C  pz                36     -1.459573  2 C  pz         
   119     -1.458756  7 H  pz                33     -0.615092  2 C  pz         
    91      0.574515  5 F  pz                13      0.374870  1 O  pz         
    53      0.275568  3 C  pz         
 
 Vector   45  Occ=0.000000D+00  E= 5.190167D-01  Symmetry=a'
              MO Center=  4.0D-01,  7.3D-01, -1.1D-16, r^2= 7.6D+00
   Bfn.  Coefficient  Atom+Function         Bfn.  Coefficient  Atom+Function  
  ----- ------------  ---------------      ----- ------------  ---------------
   112      9.097264  7 H  s                  4     -8.228155  1 O  s          
    27      7.144343  2 C  s                103     -6.000917  6 H  s          
    50     -4.945227  3 C  s                 71      4.562876  4 H  s          
    69      3.545586  3 C  d  2              35      3.249071  2 C  py         
    32     -3.060553  2 C  py                57      2.935388  3 C  px         
 

 center of mass
 --------------
 x =  -0.05400219 y =  -0.15453482 z =   0.00000000

 moments of inertia (a.u.)
 ------------------
         187.158437407159           0.000000000000           0.000000000000
           0.000000000000         165.497027002389           0.000000000000
           0.000000000000           0.000000000000         352.655464409549
 
  Mulliken analysis of the total density
  --------------------------------------

    Atom       Charge   Shell Charges
 -----------   ------   -------------------------------------------------------
    1 O    8     8.69   2.00  0.82  1.00  0.18  2.83  1.75  0.07  0.02  0.01
    2 C    6     4.76   2.01  0.66  0.29 -0.10  1.79  0.03  0.05  0.22 -0.20
    3 C    6     5.64   2.01  0.63  0.47 -0.14  2.02  0.58  0.04  0.05 -0.03
    4 H    1     0.76   0.68 -0.00 -0.00  0.08  0.00
    5 F    9     9.65   2.00  0.89  1.09  0.15  3.30  2.10  0.10  0.00  0.02
    6 H    1     1.25   0.76  0.47  0.02  0.03 -0.03
    7 H    1     1.26   0.76  0.49  0.01  0.03 -0.03
 
       Multipole analysis of the density wrt the origin
       ------------------------------------------------
 
     L   x y z        total         open         nuclear
     -   - - -        -----         ----         -------
     0   0 0 0     -0.000000      0.000000     32.000000
 
     1   1 0 0      0.076187      0.000000     -0.000000
     1   0 1 0      1.066873      0.000000      0.000000
     1   0 0 1      0.000000      0.000000      0.000000
 
     2   2 0 0    -17.200116      0.000000     94.748420
     2   1 1 0     -1.462783      0.000000      2.234143
     2   1 0 1     -0.000000      0.000000      0.000000
     2   0 2 0    -15.129476      0.000000    101.354158
     2   0 1 1      0.000000      0.000000      0.000000
     2   0 0 2    -18.553539      0.000000      0.000000
 
                   NWChem MP2 Semi-direct Energy/Gradient Module
                   ---------------------------------------------
 
 
                                 F,H,F Reference 1
 
 

int_init: setting std/high accuracies to  1.0D-16  1.0D-32
  Basis functions       =    119
  Molecular orbitals    =    119
  Frozen core           =      4
  Frozen virtuals       =      0
  Active alpha occupied =     12
  Active beta occupied  =     12
  Active alpha virtual  =    103
  Active beta virtual   =    103
  Use MO symmetry       = T
  Use skeleton AO sym   = T

  AO/Fock/Back tols     =   1.0D-15  1.0D-15  1.0D-15

 GA uses MA = F    GA memory limited = T

 Available: 
  local mem=  3.77D+08
 global mem=  1.23D+08
 local disk=  0.00D+00

int_init: setting std/high accuracies to  1.0D-16  1.0D-32
  mp2_memr nvloc                     10
  nvloc new                     10
   1 passes of  12:        5242880                      77351                   3690901.
   1 passes of  12: M    376604931           G      122967027           F     371362051.
 
 Semi-direct pass number   1 of   1  for RHF alpha+beta  at       13.3s

int_init: setting std/high accuracies to  1.0D-16  1.0D-32
  vrange nnbf                   7140
  mp2_eaftype                     11  avail_ma_in_mb                   3283
 EAF : mp2_eaftype filesize          11    1468701.
  mp2_eaf for mointskh                      11
Node 0 wrote      6.9 Mb in      0.0 s     Agg I/O rate:  4521.1 Mb/s
 Done moints_semi at       14.5s
  mp2_eaftype                     11  avail_ma_in_mb                   3272
 EAF : mp2_eaftype filesize          11    1468701.
  mp2_eaf for kh                     11
  mp2_eaftype                     10  avail_ma_in_mb                   3272
 EAF : mp2_eaftype filesize          10     296640.
  mp2_eaf for ta tb                     10
  mp2_eaf for ta                      10
  mp2_eaf for tb                      10
 Done maket at       14.6s
 Done pijab at       14.6s
 Done wijab at       14.6s
 Done lai at       14.8s

int_init: setting std/high accuracies to  1.0D-16  1.0D-32
  mp2_eaftype                     12  avail_ma_in_mb                   3252
 EAF : mp2_eaftype filesize          12    1575512.
  mp2_eaf for 2pdm                      12
 Done nonsep at       19.4s
 Done multipass loop at       19.4s


          -------------------------------------------
          SCF energy                -251.777915766284
          Correlation energy          -0.681087015331
          Singlet pairs               -0.412164535170
          Triplet pairs               -0.268922480161
          Total MP2 energy          -252.459002781615
          -------------------------------------------



          ---------------------------------------------------
                    Spin Component Scaled (SCS) MP2
          Same spin pairs                     -0.179281653441
          Same spin scaling factor             0.333333333333
          Opposite spin pairs                 -0.501805361890
          Opposite spin scaling fact.          1.200000000000
          SCS-MP2 correlation energy          -0.661926985415
          Total SCS-MP2 energy              -252.439842751699
          ---------------------------------------------------


int_init: setting std/high accuracies to  1.0D-16  1.0D-32
                                NWChem CPHF Module
                                ------------------
 
 

int_init: setting std/high accuracies to  1.0D-16  1.0D-32
    scftype = RHF 
    nclosed =   16
      nopen =    0
  variables =     1648
  tolerance =   1.0D-06
  max. iter =  999

 Warning: symmetry breaking in RHF:   3.604883071132786E-014
 SCF residual:   9.314512645253307E-011

            ----- linear solve (tol: 1.0E-06 prod-acc: 3.9E-14) -----

               iter nbas    rnorm     rnorm-scal   ratio     time
               ---- ---- ----------- ----------- --------- -------
                  1    1  6.3416E-02  4.0081E-01    0.0000    20.6
                  2    2  1.2887E-02  8.1452E-02    0.2032    21.0
                  3    3  3.1090E-03  1.9649E-02    0.2412    21.5
                  4    4  1.0444E-03  6.6006E-03    0.3359    21.9
                  5    5  2.7199E-04  1.7191E-03    0.2604    22.4
                  6    6  8.7773E-05  5.5475E-04    0.3227    22.8
                  7    7  2.2997E-05  1.4535E-04    0.2620    23.3
                  8    8  6.5306E-06  4.1275E-05    0.2840    23.7
                  9    9  3.3360E-06  2.1084E-05    0.5108    24.2
                 10   10  8.8449E-07  5.5902E-06    0.2651    24.6
                 11   11  2.4055E-07  1.5203E-06    0.2720    25.1
                 12   12  4.9190E-08  3.1090E-07    0.2045    25.5

 CPHF converged to   3.1D-07 in   12 iters


int_init: setting std/high accuracies to  1.0D-16  1.0D-32
                Dipole Moments (a.u.)
                --------------
         Nuclear       SCF       SCF+MP2
       ----------- ----------- -----------
 X      -0.000000    0.076187    0.043963
 Y       0.000000    1.066873    0.984958
 Z       0.000000    0.000000    0.000000
 

 MP2 RHF      natural orbital occupation numbers


              1      
    1    2.0000
    2    2.0000
    3    2.0000
    4    2.0000
    5    1.9891
    6    1.9859
    7    1.9808
    8    1.9731
    9    1.9731
   10    1.9683
   11    1.9673
   12    1.9656
   13    1.9629
   14    1.9577
   15    1.9560
   16    1.9345
   17    0.0528
   18    0.0365
   19    0.0292
   20    0.0250
   21    0.0221
   22    0.0176
   23    0.0160
   24    0.0153
   25    0.0146
   26    0.0145
   27    0.0112
   28    0.0103
   29    0.0096
   30    0.0085
   31    0.0077
   32    0.0074
   33    0.0070
   34    0.0062
   35    0.0060
   36    0.0056
   37    0.0056
   38    0.0050
   39    0.0048
   40    0.0046
   41    0.0045
   42    0.0044
   43    0.0043
   44    0.0030
   45    0.0021
   46    0.0020
   47    0.0017
   48    0.0015
   49    0.0014
   50    0.0013
   51    0.0013
   52    0.0012
   53    0.0011
   54    0.0010
   55    0.0008
   56    0.0007
   57    0.0007
   58    0.0006
   59    0.0006
   60    0.0006
   61    0.0006
   62    0.0006
   63    0.0005
   64    0.0005
   65    0.0004
   66    0.0004
   67    0.0004
   68    0.0003
   69    0.0003
   70    0.0003
   71    0.0003
   72    0.0003
   73    0.0003
   74    0.0003
   75    0.0003
   76    0.0002
   77    0.0002
   78    0.0002
   79    0.0002
   80    0.0002
   81    0.0001
   82    0.0001
   83    0.0001
   84    0.0001
   85    0.0001
   86    0.0001
   87    0.0001
   88    0.0001
   89    0.0001
   90    0.0001
   91    0.0001
   92    0.0001
   93    0.0000
   94    0.0000
   95    0.0000
   96    0.0000
   97    0.0000
   98    0.0000
   99    0.0000
  100    0.0000
  101    0.0000
  102    0.0000
  103    0.0000
  104    0.0000
  105    0.0000
  106    0.0000
  107    0.0000
  108    0.0000
  109    0.0000
  110    0.0000
  111    0.0000
  112   -0.0000
  113   -0.0000
  114   -0.0000
  115   -0.0000
  116   -0.0000
  117   -0.0001
  118   -0.0002
  119   -0.0002
 
  MP2 natural orbitals output to ./13R1_.mp2nos
 

int_init: setting std/high accuracies to  1.0D-16  1.0D-32
  Using symmetry

int_init: setting std/high accuracies to  1.0D-16  1.0D-32


                         mp2 ENERGY GRADIENTS

    atom               coordinates                        gradient
                 x          y          z           x          y          z
   1 O      -2.323678   0.852847   0.000000    0.021365  -0.012873   0.000000
   2 C       0.046980   0.023786   0.000000   -0.039767   0.003887   0.000000
   3 C       2.124818   1.545891   0.000000    0.015911   0.011499   0.000000
   4 H      -2.196716   2.726939   0.000000    0.004984   0.022963   0.000000
   5 F       0.216989  -2.587957   0.000000    0.009201  -0.032064   0.000000
   6 H       3.989054   0.724612   0.000000   -0.007101   0.000413   0.000000
   7 H       1.813388   3.599217   0.000000   -0.004594   0.006175   0.000000
 
                 ----------------------------------------
                 |  Time  |  1-e(secs)   |  2-e(secs)   |
                 ----------------------------------------
                 |  CPU   |       0.00   |       2.59   |
                 ----------------------------------------
                 |  WALL  |       0.00   |       2.59   |
                 ----------------------------------------
 -----------------------
 Performance information
 -----------------------

 Timer overhead =  2.00D-07 seconds/call

               Nr. of calls         CPU time (s)                 Wall time (s)                GFlops
             ---------------    -------------------     ------------------------------   -------------------
Name         Min   Avg   Max    Min     Avg     Max     Min     Avg     Max   Mx/calls   Min     Max     Sum
mp2: moin     1     1     1    1.1     1.1     1.2      1.2     1.2     1.2     1.2      0.0     0.0     0.0   
mp2: make     1     1     1   6.50E-2 6.77E-2 7.10E-2  6.99E-2 7.01E-2 7.02E-2 7.02E-2   0.0     0.0     0.0   
mp2: pija     1     1     1   6.00E-3 6.45E-3 8.00E-3  6.87E-3 6.88E-3 7.02E-3 7.02E-3   0.0     0.0     0.0   
mp2: wija     1     1     1   6.00E-3 7.27E-3 8.00E-3  7.50E-3 7.50E-3 7.50E-3 7.50E-3   0.0     0.0     0.0   
mp2: lai      1     1     1   0.17    0.18    0.18     0.18    0.18    0.18    0.18      0.0     0.0     0.0   
mp2: back     1     1     1   0.10    0.10    0.11     0.11    0.11    0.11    0.11      0.0     0.0     0.0   
mp2: nons     1     1     1    3.8     4.2     4.5      3.8     4.2     4.5     4.5      0.0     0.0     0.0   
mp2: laif     1     1     1   0.49    0.49    0.50     0.50    0.50    0.50    0.50      0.0     0.0     0.0   
mp2: cphf     1     1     1    5.9     5.9     5.9      6.0     6.0     6.0     6.0      0.0     0.0     0.0   
mp2: wijf     1     1     1   0.49    0.49    0.49     0.49    0.49    0.49    0.49      0.0     0.0     0.0   
mp2: sep      1     1     1    2.6     2.6     2.6      2.6     2.6     2.6     2.6      0.0     0.0     0.0   
mp2: tota     1     1     1    16.     16.     16.      16.     16.     16.     16.      0.0     0.0     0.0   

 The average no. of pstat calls per process was 1.20D+01
 with a timing overhead of 2.40D-06s


@ Step       Energy      Delta E   Gmax     Grms     Xrms     Xmax   Walltime
@ ---- ---------------- -------- -------- -------- -------- -------- --------
@    0    -252.45900278  0.0D+00  0.03259  0.01472  0.00000  0.00000     29.0
                                                                    



                                Z-matrix (user)
                                -------- 

 Units are Angstrom for bonds and degrees for angles

  Constants are marked with an asterisk (*).

  Constrained variables are marked with a plus sign (+).

 
      Type          Name      I     J     K     L     M      Value     Gradient
      ----------- --------  ----- ----- ----- ----- ----- ---------- ----------
    1 Stretch      R1          2     1                       1.32900   -0.02154
    2 Stretch      R2          3     2                       1.36300    0.01409
    3 Bend         A1          3     2     1               124.50000   -0.02762
    4 Stretch      R5          4     1                       0.99400    0.02325
    5 Bend         A4          4     1     2               105.40000   -0.00340
    6*Torsion      D0          4     1     2     3           0.00000   -0.00000
    7 Stretch      R6          5     2                       1.38500    0.03259
    8 Bend         A5          5     2     3               122.50000   -0.00983
    9*Torsion      D180        5     2     3     4         180.00000   -0.00000
   10 Stretch      R7          6     3                       1.07800   -0.00666
   11 Bend         A6          6     3     2               120.00000   -0.00268
   12*Torsion      D180        6     3     2     1         180.00000   -0.00000
   13 Stretch      R8          7     3                       1.09900    0.00679
   14 Bend         A7          7     3     2               117.60000   -0.00397
   15*Torsion      D0          7     3     2     1           0.00000   -0.00000
 
 Restricting large step in mode    3 eval= 6.6D-02 step= 4.2D-01 new= 3.0D-01
                                 NWChem SCF Module
                                 -----------------
 
 
                                 F,H,F Reference 1
 
 

  ao basis        = "ao basis"
  functions       =   119
  atoms           =     7
  closed shells   =    16
  open shells     =     0
  charge          =   0.00
  wavefunction    = RHF 
  input vectors   = ./13R1_.movecs
  output vectors  = ./13R1_.movecs
  use symmetry    = T
  symmetry adapt  = T


 Summary of "ao basis" -> "ao basis" (spherical)
 ------------------------------------------------------------------------------
       Tag                 Description            Shells   Functions and Types
 ---------------- ------------------------------  ------  ---------------------
 O                        aug-cc-pVDZ                9       23   4s3p2d
 C                        aug-cc-pVDZ                9       23   4s3p2d
 H                        aug-cc-pVDZ                5        9   3s2p
 F                        aug-cc-pVDZ                9       23   4s3p2d


      Symmetry analysis of basis
      --------------------------
 
        a'         85
        a"         34
 

int_init: setting std/high accuracies to  1.0D-16  1.0D-32

 Forming initial guess at      29.1s


 Forcing the number of linearly dependent vectors to be  0

 Loading old vectors from job with title :

F,H,F Reference 1

 
      Symmetry analysis of molecular orbitals - initial
      -------------------------------------------------
 
  Numbering of irreducible representations: 
 
     1 a'          2 a"      
 
  Orbital symmetries:
 
     1 a'          2 a'          3 a'          4 a'          5 a'      
     6 a'          7 a'          8 a'          9 a'         10 a'      
    11 a"         12 a'         13 a"         14 a'         15 a'      
    16 a"         17 a'         18 a'         19 a'         20 a'      
    21 a"         22 a'         23 a"         24 a'         25 a'      
    26 a'      
 

 Starting SCF solution at      29.2s



 ----------------------------------------------
         Quadratically convergent ROHF

 Convergence threshold     :          1.000E-09
 Maximum no. of iterations :           99
 Final Fock-matrix accuracy:          1.000E-15
 ----------------------------------------------

 Warning: symmetry breaking in RHF:   3.548980473798546E-014

              iter       energy          gnorm     gmax       time
             ----- ------------------- --------- --------- --------
                 1     -251.7607349997  5.49D-01  8.33D-02     29.2
 Warning: symmetry breaking in RHF:   3.224331353664589E-014
                 2     -251.7808936193  3.89D-02  7.77D-03     30.6
 Warning: symmetry breaking in RHF:   3.339849296139575E-014
                 3     -251.7810625837  9.30D-04  1.93D-04     32.4
 Warning: symmetry breaking in RHF:   3.328811533281588E-014
                 4     -251.7810626791  4.25D-07  1.26D-07     35.9
 Warning: symmetry breaking in RHF:   3.328810906095970E-014
                 5     -251.7810626791  3.63D-11  4.54D-12     39.8


       Final RHF  results 
       ------------------ 

         Total SCF energy =   -251.781062679091
      One-electron energy =   -583.130000052897
      Two-electron energy =    211.955906541066
 Nuclear repulsion energy =    119.393030832740

        Time for solution =     11.1s


 
       Symmetry analysis of molecular orbitals - final
       -----------------------------------------------
 
  Numbering of irreducible representations: 
 
     1 a'          2 a"      
 
  Orbital symmetries:
 
     1 a'          2 a'          3 a'          4 a'          5 a'      
     6 a'          7 a'          8 a'          9 a'         10 a"      
    11 a'         12 a'         13 a'         14 a"         15 a'      
    16 a"         17 a'         18 a'         19 a'         20 a'      
    21 a"         22 a'         23 a"         24 a'         25 a'      
    26 a'      
 
             Final eigenvalues
             -----------------

              1      
    1  -26.3334
    2  -20.6296
    3  -11.4153
    4  -11.2463
    5   -1.6595
    6   -1.4341
    7   -1.0440
    8   -0.8813
    9   -0.7600
   10   -0.7181
   11   -0.7125
   12   -0.6393
   13   -0.6098
   14   -0.5829
   15   -0.5764
   16   -0.3667
   17    0.0302
   18    0.0473
   19    0.0582
   20    0.0937
   21    0.1051
   22    0.1237
   23    0.1246
   24    0.1407
   25    0.1632
   26    0.1733
 
                       ROHF Final Molecular Orbital Analysis
                       -------------------------------------
 
 Vector    6  Occ=2.000000D+00  E=-1.434100D+00  Symmetry=a'
              MO Center= -1.0D+00,  3.8D-01,  5.5D-30, r^2= 7.5D-01
   Bfn.  Coefficient  Atom+Function         Bfn.  Coefficient  Atom+Function  
  ----- ------------  ---------------      ----- ------------  ---------------
     3      0.458819  1 O  s                  2      0.415384  1 O  s          
    70      0.196479  4 H  s                 27     -0.172082  2 C  s          
 
 Vector    7  Occ=2.000000D+00  E=-1.043972D+00  Symmetry=a'
              MO Center=  6.2D-01,  4.5D-01, -4.4D-16, r^2= 1.4D+00
   Bfn.  Coefficient  Atom+Function         Bfn.  Coefficient  Atom+Function  
  ----- ------------  ---------------      ----- ------------  ---------------
    48      0.305384  3 C  s                 25      0.270292  2 C  s          
    49      0.167589  3 C  s                 28      0.164448  2 C  px         
 
 Vector    8  Occ=2.000000D+00  E=-8.812703D-01  Symmetry=a'
              MO Center= -3.3D-01, -1.0D-01, -1.5D-16, r^2= 2.2D+00
   Bfn.  Coefficient  Atom+Function         Bfn.  Coefficient  Atom+Function  
  ----- ------------  ---------------      ----- ------------  ---------------
    84      0.317519  5 F  py                26      0.298359  2 C  s          
     6     -0.252018  1 O  py                49     -0.245464  3 C  s          
    70     -0.237881  4 H  s                  5      0.194445  1 O  px         
    87      0.188755  5 F  py                28     -0.187162  2 C  px         
    25      0.173784  2 C  s                 27     -0.172586  2 C  s          
 
 Vector    9  Occ=2.000000D+00  E=-7.599991D-01  Symmetry=a'
              MO Center= -4.6D-02, -2.9D-01, -4.4D-17, r^2= 2.3D+00
   Bfn.  Coefficient  Atom+Function         Bfn.  Coefficient  Atom+Function  
  ----- ------------  ---------------      ----- ------------  ---------------
    83     -0.342718  5 F  px                27      0.335166  2 C  s          
    84     -0.290351  5 F  py                50     -0.284569  3 C  s          
    86     -0.234388  5 F  px                 6     -0.200294  1 O  py         
    87     -0.190632  5 F  py                28     -0.186019  2 C  px         
    70     -0.184193  4 H  s                 29      0.168430  2 C  py         
 
 Vector   10  Occ=2.000000D+00  E=-7.181171D-01  Symmetry=a"
              MO Center= -1.0D-01, -8.9D-01, -9.4D-17, r^2= 1.0D+00
   Bfn.  Coefficient  Atom+Function         Bfn.  Coefficient  Atom+Function  
  ----- ------------  ---------------      ----- ------------  ---------------
    85      0.569351  5 F  pz                88      0.389743  5 F  pz         
    30      0.201490  2 C  pz                 7      0.184273  1 O  pz         
 
 Vector   11  Occ=2.000000D+00  E=-7.124998D-01  Symmetry=a'
              MO Center=  3.0D-01,  2.8D-01,  9.2D-31, r^2= 2.8D+00
   Bfn.  Coefficient  Atom+Function         Bfn.  Coefficient  Atom+Function  
  ----- ------------  ---------------      ----- ------------  ---------------
     5      0.275451  1 O  px                51     -0.255856  3 C  px         
    29      0.251147  2 C  py                84     -0.238128  5 F  py         
   102     -0.235569  6 H  s                  8      0.183570  1 O  px         
    26      0.179895  2 C  s          
 
 Vector   12  Occ=2.000000D+00  E=-6.393229D-01  Symmetry=a'
              MO Center= -4.1D-01, -3.9D-01, -6.7D-31, r^2= 2.1D+00
   Bfn.  Coefficient  Atom+Function         Bfn.  Coefficient  Atom+Function  
  ----- ------------  ---------------      ----- ------------  ---------------
    83      0.450590  5 F  px                 6     -0.347096  1 O  py         
    86      0.326308  5 F  px                70     -0.260341  4 H  s          
    84     -0.216702  5 F  py                 3      0.208859  1 O  s          
     9     -0.190871  1 O  py               103      0.165106  6 H  s          
 
 Vector   13  Occ=2.000000D+00  E=-6.097592D-01  Symmetry=a'
              MO Center=  1.8D-01,  3.4D-01, -9.6D-15, r^2= 2.6D+00
   Bfn.  Coefficient  Atom+Function         Bfn.  Coefficient  Atom+Function  
  ----- ------------  ---------------      ----- ------------  ---------------
    83      0.308625  5 F  px                52      0.287969  3 C  py         
    28     -0.271292  2 C  px                 5      0.265202  1 O  px         
   111      0.246329  7 H  s                 86      0.221770  5 F  px         
   112      0.218784  7 H  s                 26     -0.200055  2 C  s          
     8      0.187305  1 O  px                51      0.157251  3 C  px         
 
 Vector   14  Occ=2.000000D+00  E=-5.829045D-01  Symmetry=a"
              MO Center= -9.0D-01,  1.0D-01,  9.0D-15, r^2= 1.3D+00
   Bfn.  Coefficient  Atom+Function         Bfn.  Coefficient  Atom+Function  
  ----- ------------  ---------------      ----- ------------  ---------------
     7      0.546686  1 O  pz                10      0.403697  1 O  pz         
    85     -0.300440  5 F  pz                88     -0.214483  5 F  pz         
 
 Vector   15  Occ=2.000000D+00  E=-5.763547D-01  Symmetry=a'
              MO Center=  8.0D-01,  7.2D-01,  6.4D-16, r^2= 2.6D+00
   Bfn.  Coefficient  Atom+Function         Bfn.  Coefficient  Atom+Function  
  ----- ------------  ---------------      ----- ------------  ---------------
   102      0.322269  6 H  s                103      0.284586  6 H  s          
    51      0.274944  3 C  px                52     -0.260943  3 C  py         
   111     -0.257362  7 H  s                112     -0.244120  7 H  s          
     5      0.241935  1 O  px                 6      0.165524  1 O  py         
     8      0.163460  1 O  px         
 
 Vector   16  Occ=2.000000D+00  E=-3.667271D-01  Symmetry=a"
              MO Center=  5.8D-01,  5.2D-01, -8.3D-16, r^2= 1.9D+00
   Bfn.  Coefficient  Atom+Function         Bfn.  Coefficient  Atom+Function  
  ----- ------------  ---------------      ----- ------------  ---------------
    53      0.423624  3 C  pz                30      0.318744  2 C  pz         
    56      0.292504  3 C  pz                 7     -0.240214  1 O  pz         
    33      0.209414  2 C  pz                10     -0.192022  1 O  pz         
 
 Vector   17  Occ=0.000000D+00  E= 3.015061D-02  Symmetry=a'
              MO Center= -4.7D-01,  2.8D+00, -7.7D-17, r^2= 1.3D+01
   Bfn.  Coefficient  Atom+Function         Bfn.  Coefficient  Atom+Function  
  ----- ------------  ---------------      ----- ------------  ---------------
   113     -1.995120  7 H  s                 27      1.872274  2 C  s          
    72     -1.357810  4 H  s                 50      1.237615  3 C  s          
    58      0.766867  3 C  py               112     -0.629562  7 H  s          
    11     -0.412719  1 O  px                49      0.367776  3 C  s          
     4     -0.302927  1 O  s                 12      0.299353  1 O  py         
 
 Vector   18  Occ=0.000000D+00  E= 4.733827D-02  Symmetry=a'
              MO Center=  2.0D+00,  7.4D-01, -1.5D-17, r^2= 2.1D+01
   Bfn.  Coefficient  Atom+Function         Bfn.  Coefficient  Atom+Function  
  ----- ------------  ---------------      ----- ------------  ---------------
   104      3.605300  6 H  s                 72     -2.179695  4 H  s          
    57     -1.421774  3 C  px                50     -1.268433  3 C  s          
   103      1.051833  6 H  s                 34     -0.954600  2 C  px         
     4     -0.617528  1 O  s                 54     -0.521048  3 C  px         
    82      0.513548  5 F  s                 27     -0.496812  2 C  s          
 
 Vector   19  Occ=0.000000D+00  E= 5.815403D-02  Symmetry=a'
              MO Center=  9.7D-01,  1.7D+00,  5.9D-17, r^2= 2.3D+01
   Bfn.  Coefficient  Atom+Function         Bfn.  Coefficient  Atom+Function  
  ----- ------------  ---------------      ----- ------------  ---------------
   113      6.051418  7 H  s                104     -4.187828  6 H  s          
    27      2.963137  2 C  s                 50     -2.760988  3 C  s          
    58     -2.634366  3 C  py                72     -2.480118  4 H  s          
    57      1.890764  3 C  px                35      1.553181  2 C  py         
   112      1.439645  7 H  s                 34     -0.857820  2 C  px         
 
 Vector   20  Occ=0.000000D+00  E= 9.372190D-02  Symmetry=a'
              MO Center= -7.9D-02, -7.8D-01, -1.2D-17, r^2= 1.9D+01
   Bfn.  Coefficient  Atom+Function         Bfn.  Coefficient  Atom+Function  
  ----- ------------  ---------------      ----- ------------  ---------------
    27     20.330445  2 C  s                 50    -18.516062  3 C  s          
    34      5.388401  2 C  px                57      4.624465  3 C  px         
    35      4.530194  2 C  py               113     -4.009921  7 H  s          
    58      3.628697  3 C  py                72      2.330463  4 H  s          
     4     -2.267628  1 O  s                 12     -1.280362  1 O  py         
 
 Vector   21  Occ=0.000000D+00  E= 1.050857D-01  Symmetry=a"
              MO Center=  1.2D+00,  9.0D-01, -9.8D-17, r^2= 9.8D+00
   Bfn.  Coefficient  Atom+Function         Bfn.  Coefficient  Atom+Function  
  ----- ------------  ---------------      ----- ------------  ---------------
    59      1.091926  3 C  pz                33     -0.334093  2 C  pz         
    30     -0.224727  2 C  pz         
 
 Vector   22  Occ=0.000000D+00  E= 1.237339D-01  Symmetry=a'
              MO Center=  3.3D-01,  1.3D-01,  2.2D-17, r^2= 1.7D+01
   Bfn.  Coefficient  Atom+Function         Bfn.  Coefficient  Atom+Function  
  ----- ------------  ---------------      ----- ------------  ---------------
    27      4.123165  2 C  s                 34     -3.599436  2 C  px         
     4     -3.556497  1 O  s                 57      2.904399  3 C  px         
    50      1.467230  3 C  s                104     -1.357923  6 H  s          
    26      1.245455  2 C  s                103     -1.044323  6 H  s          
    71      0.972120  4 H  s                 72     -0.813115  4 H  s          
 
 Vector   23  Occ=0.000000D+00  E= 1.245678D-01  Symmetry=a"
              MO Center=  2.6D-01,  6.9D-02,  1.8D-15, r^2= 1.4D+01
   Bfn.  Coefficient  Atom+Function         Bfn.  Coefficient  Atom+Function  
  ----- ------------  ---------------      ----- ------------  ---------------
    36      3.434968  2 C  pz                59     -2.356940  3 C  pz         
    13     -0.732389  1 O  pz                91     -0.537318  5 F  pz         
 
 Vector   24  Occ=0.000000D+00  E= 1.406613D-01  Symmetry=a'
              MO Center= -3.9D-01,  7.6D-01, -5.8D-16, r^2= 1.5D+01
   Bfn.  Coefficient  Atom+Function         Bfn.  Coefficient  Atom+Function  
  ----- ------------  ---------------      ----- ------------  ---------------
     4      4.798505  1 O  s                 34      3.640772  2 C  px         
    35     -3.485417  2 C  py                72      3.379207  4 H  s          
    58      2.815571  3 C  py                50     -2.604399  3 C  s          
   113     -1.380223  7 H  s                 27     -1.306943  2 C  s          
    11      1.136704  1 O  px                71     -1.052918  4 H  s          
 
 Vector   25  Occ=0.000000D+00  E= 1.632085D-01  Symmetry=a'
              MO Center=  7.3D-01,  1.4D+00, -6.2D-16, r^2= 1.6D+01
   Bfn.  Coefficient  Atom+Function         Bfn.  Coefficient  Atom+Function  
  ----- ------------  ---------------      ----- ------------  ---------------
    27     16.797908  2 C  s                 50     -8.515218  3 C  s          
    58      6.901629  3 C  py               113     -6.567406  7 H  s          
    34      6.033417  2 C  px               112     -2.810270  7 H  s          
    57      2.151809  3 C  px                82     -2.046868  5 F  s          
    72      1.639659  4 H  s                 71     -1.166048  4 H  s          
 
 Vector   26  Occ=0.000000D+00  E= 1.733331D-01  Symmetry=a'
              MO Center=  1.7D+00,  2.5D-01, -1.7D-16, r^2= 1.4D+01
   Bfn.  Coefficient  Atom+Function         Bfn.  Coefficient  Atom+Function  
  ----- ------------  ---------------      ----- ------------  ---------------
    27      8.982014  2 C  s                104     -6.440612  6 H  s          
    57      4.846949  3 C  px                50     -4.194460  3 C  s          
   113      3.834422  7 H  s                103     -3.580993  6 H  s          
    58     -3.472660  3 C  py                35      2.577820  2 C  py         
    82     -2.021341  5 F  s                112      1.903932  7 H  s          
 
 Vector   27  Occ=0.000000D+00  E= 2.037775D-01  Symmetry=a"
              MO Center=  5.7D-01,  5.8D-01,  1.2D-15, r^2= 5.6D+00
   Bfn.  Coefficient  Atom+Function         Bfn.  Coefficient  Atom+Function  
[...]
   13   -4.48021D-01  3.43445D+00  0.00000D+00 -5.17690D+00 -5.87298D-01  0.00000D+00  6.11853D-01 -2.34167D+00  0.00000D+00 -1.59313D+00
   14    1.30334D+00 -2.68938D+00  0.00000D+00 -7.82820D-01 -2.09307D+01  0.00000D+00  2.57959D-01 -3.35489D+00  0.00000D+00  1.05706D+00
   15    0.00000D+00  0.00000D+00  2.16444D-01  0.00000D+00  0.00000D+00 -3.20805D+00  0.00000D+00  0.00000D+00  6.29149D-01  0.00000D+00
   16   -4.15752D-01 -7.91881D-01  0.00000D+00 -5.23319D+00  4.69304D+00  0.00000D+00 -8.82765D+01  3.48397D+01  0.00000D+00  5.47503D-01
   17   -1.26835D+00 -3.41869D-01  0.00000D+00 -5.00743D+00  2.41094D+00  0.00000D+00  3.71938D+01 -3.25904D+01  0.00000D+00 -2.78575D-01
   18    0.00000D+00  0.00000D+00  2.94249D+00  0.00000D+00  0.00000D+00 -3.16340D-01  0.00000D+00  0.00000D+00 -5.84076D+00  0.00000D+00
   19    3.39439D-01  1.94131D-01  0.00000D+00  9.65179D-01 -6.90278D+00  0.00000D+00 -1.59995D+01  7.85537D+00  0.00000D+00 -1.05291D+00
   20    1.53273D-01  3.51381D-01  0.00000D+00  3.02676D+00 -3.67362D+00  0.00000D+00  5.69471D+00 -1.03774D+02  0.00000D+00 -1.22800D+00
   21    0.00000D+00  0.00000D+00 -1.39052D+00  0.00000D+00  0.00000D+00 -1.11687D+00  0.00000D+00  0.00000D+00 -5.90734D+00  0.00000D+00


              11           12           13           14           15           16           17           18           19           20
   ----- ----- ----- ----- -----
   11    5.16520D+02
   12    0.00000D+00  4.05838D+00
   13    6.27049D-01  0.00000D+00  4.46668D+00
   14    5.41599D-01  0.00000D+00 -8.19727D-01  2.15854D+01
   15    0.00000D+00  1.03429D+00  0.00000D+00  0.00000D+00  1.33250D+00
   16   -7.07572D-01  0.00000D+00  4.80176D-01  2.89456D-01  0.00000D+00  3.17480D+02
   17   -5.75129D-01  0.00000D+00  7.46978D-02  2.10734D-01  0.00000D+00 -1.30093D+02  1.10229D+02
   18    0.00000D+00 -1.63225D+00  0.00000D+00  0.00000D+00 -1.40230D+00  0.00000D+00  0.00000D+00  1.70947D+01
   19   -3.78263D-01  0.00000D+00 -7.43212D-01 -1.16862D+00  0.00000D+00  4.21128D+00  2.40373D+01  0.00000D+00  5.05942D+01
   20    2.33795D-01  0.00000D+00 -7.18099D-01  4.33008D-02  0.00000D+00 -3.71377D+00 -5.06860D+00  0.00000D+00 -2.26456D+01  3.74009D+02
   21    0.00000D+00  1.85432D+00  0.00000D+00  0.00000D+00  2.61916D+00  0.00000D+00  0.00000D+00  1.49565D-01  0.00000D+00  0.00000D+00


              21
   ----- ----- ----- ----- -----
   21    1.64018D+01

 center of mass
 --------------
 x =  -0.05515090 y =  -0.10864585 z =   0.00000000

 moments of inertia (a.u.)
 ------------------
         170.863048947606          -4.511858717491           0.000000000000
          -4.511858717491         174.849568867611           0.000000000000
           0.000000000000           0.000000000000         345.712617815217

 Rotational Constants
 --------------------
 A=   0.358497 cm-1  (  0.515786 K)
 B=   0.338605 cm-1  (  0.487166 K)
 C=   0.174134 cm-1  (  0.250534 K)


 Temperature                      =   298.15K
 frequency scaling parameter      =   1.0000

 Zero-Point correction to Energy  =   30.575 kcal/mol  (  0.048724 au)
 Thermal correction to Energy     =   33.190 kcal/mol  (  0.052891 au)
 Thermal correction to Enthalpy   =   33.782 kcal/mol  (  0.053835 au)

 Total Entropy                    =   66.079 cal/mol-K
   - Translational                =   38.277 cal/mol-K (mol. weight =  62.0168)
   - Rotational                   =   23.839 cal/mol-K (symmetry #  =        1)
   - Vibrational                  =    3.963 cal/mol-K

 Cv (constant volume heat capacity) =   14.001 cal/mol-K
   - Translational                  =    2.979 cal/mol-K
   - Rotational                     =    2.979 cal/mol-K
   - Vibrational                    =    8.042 cal/mol-K



          -------------------------------------------------
          NORMAL MODE EIGENVECTORS IN CARTESIAN COORDINATES
          -------------------------------------------------
             (Projected Frequencies expressed in cm-1)

                    1           2           3           4           5           6
 
 P.Frequency       -0.00       -0.00        0.00        0.00        0.00        0.00
 
           1     0.12766     0.00000     0.00000     0.00000    -0.03302     0.03251
           2     0.00173     0.00000     0.00000     0.00000    -0.00021     0.17819
           3     0.00000    -0.02159     0.22783    -0.00109     0.00000     0.00000
           4     0.12714     0.00000     0.00000     0.00000    -0.00705     0.00701
           5    -0.00017     0.00000     0.00000     0.00000     0.09442     0.08525
           6     0.00000     0.08309     0.07595     0.06195     0.00000     0.00000
           7     0.12824     0.00000     0.00000     0.00000    -0.06236     0.06133
           8    -0.00177     0.00000     0.00000     0.00000     0.17470     0.00641
           9     0.00000     0.24418     0.00286    -0.00892     0.00000     0.00000
          10     0.12906     0.00000     0.00000     0.00000    -0.10318     0.10141
          11     0.00179     0.00000     0.00000     0.00000    -0.00366     0.18157
          12     0.00000     0.03927     0.28326    -0.11466     0.00000     0.00000
          13     0.12519     0.00000     0.00000     0.00000     0.09043    -0.08873
          14    -0.00026     0.00000     0.00000     0.00000     0.09885     0.08090
          15     0.00000    -0.00197    -0.00057     0.21968     0.00000     0.00000
          16     0.12755     0.00000     0.00000     0.00000    -0.02774     0.02733
          17    -0.00319     0.00000     0.00000     0.00000     0.24552    -0.06314
          18     0.00000     0.30834    -0.12176     0.06268     0.00000     0.00000
          19     0.12982     0.00000     0.00000     0.00000    -0.14110     0.13865
          20    -0.00166     0.00000     0.00000     0.00000     0.16887     0.01214
          21     0.00000     0.30982     0.06783    -0.13682     0.00000     0.00000

                    7           8           9          10          11          12
 
 P.Frequency      318.70      445.47      537.92      640.50      695.03      753.87
 
           1     0.00000    -0.08938     0.04083     0.00000     0.00000     0.00000
           2     0.00000    -0.04967    -0.13750     0.00000     0.00000     0.00000
           3    -0.06174     0.00000     0.00000    -0.06932     0.03872     0.00544
           4     0.00000    -0.04769     0.07386     0.00000     0.00000     0.00000
           5     0.00000     0.07355     0.04492     0.00000     0.00000     0.00000
           6    -0.00581     0.00000     0.00000     0.25270     0.03910     0.03746
           7     0.00000     0.06637     0.08236     0.00000     0.00000     0.00000
           8     0.00000    -0.09255     0.06190     0.00000     0.00000     0.00000
           9    -0.01274     0.00000     0.00000    -0.06012     0.01088    -0.14044
          10     0.00000    -0.21454    -0.19353     0.00000     0.00000     0.00000
          11     0.00000    -0.05455    -0.15078     0.00000     0.00000     0.00000
          12     0.92589     0.00000     0.00000    -0.01617    -0.19914    -0.01115
          13     0.00000     0.05819    -0.13078     0.00000     0.00000     0.00000
          14     0.00000     0.08228     0.04848     0.00000     0.00000     0.00000
          15     0.01695     0.00000     0.00000    -0.04523    -0.04503    -0.00306
          16     0.00000    -0.08537     0.09590     0.00000     0.00000     0.00000
          17     0.00000    -0.41014     0.08693     0.00000     0.00000     0.00000
          18     0.15890     0.00000     0.00000    -0.26513     0.57416     0.67321
          19     0.00000     0.39905     0.05504     0.00000     0.00000     0.00000
          20     0.00000    -0.07185     0.06042     0.00000     0.00000     0.00000
          21    -0.20366     0.00000     0.00000    -0.05894    -0.73572     0.53544

                   13          14          15          16          17          18
 
 P.Frequency      919.58      959.36     1182.81     1381.92     1425.22     1745.99
 
           1    -0.11007    -0.08888     0.10027    -0.04128     0.02875     0.04221
           2     0.03948     0.01790     0.02988     0.05295     0.01448     0.00540
           3     0.00000     0.00000     0.00000     0.00000     0.00000     0.00000
           4     0.02701     0.02101    -0.04108     0.14477    -0.04568    -0.18267
           5     0.05344    -0.02146     0.09908    -0.15925    -0.07260    -0.12619
           6     0.00000     0.00000     0.00000     0.00000     0.00000     0.00000
           7     0.10483     0.09636    -0.02917    -0.02876    -0.05337     0.13181
           8     0.09865    -0.10236    -0.04738     0.03912    -0.02578     0.08999
           9     0.00000     0.00000     0.00000     0.00000     0.00000     0.00000
          10    -0.17635    -0.13735    -0.73187    -0.46232    -0.23465    -0.10904
          11     0.04154     0.01752    -0.03127     0.01953    -0.00792    -0.01328
          12     0.00000     0.00000     0.00000     0.00000     0.00000     0.00000
          13     0.00146     0.01376     0.01238    -0.00460     0.00363     0.00662
          14    -0.14083     0.04623    -0.05079     0.04226     0.01983     0.02169
          15     0.00000     0.00000     0.00000     0.00000     0.00000     0.00000
          16     0.09555     0.35604    -0.03322    -0.16643     0.23031     0.04596
          17     0.06059     0.43727    -0.03557    -0.25372     0.54341    -0.15214
          18     0.00000     0.00000     0.00000     0.00000     0.00000     0.00000
          19     0.23032    -0.46499    -0.22329    -0.01064     0.65894    -0.12599
          20     0.11507    -0.13603    -0.06546     0.02736     0.03228     0.10185
          21     0.00000     0.00000     0.00000     0.00000     0.00000     0.00000

                   19          20          21
 
 P.Frequency     3229.94     3346.56     3814.59
 
           1    -0.00005     0.00071     0.00610
           2    -0.00004    -0.00015    -0.05980
           3     0.00000     0.00000     0.00000
           4     0.00809    -0.00106    -0.00142
           5     0.00507     0.00197    -0.00232
           6     0.00000     0.00000     0.00000
           7    -0.04998    -0.05810    -0.00067
           8    -0.04381     0.07554     0.00014
           9     0.00000     0.00000     0.00000
          10    -0.00055     0.00299    -0.06983
          11    -0.00088     0.00037     0.96432
          12     0.00000     0.00000     0.00000
          13    -0.00009    -0.00002    -0.00004
          14     0.00017    -0.00057     0.00056
          15     0.00000     0.00000     0.00000
          16     0.55877     0.65260    -0.00083
          17    -0.27897    -0.30887    -0.00112
          18     0.00000     0.00000     0.00000
          19    -0.05693     0.03789    -0.00059
          20     0.73842    -0.60108     0.00115
          21     0.00000     0.00000     0.00000



 ----------------------------------------------------------------------------
 Normal Eigenvalue ||    Projected Derivative Dipole Moments (debye/angs)
  Mode   [cm**-1]  ||      [d/dqX]             [d/dqY]           [d/dqZ]
 ------ ---------- || ------------------ ------------------ -----------------
    1       -0.000 ||       0.004              -0.000             0.000
    2       -0.000 ||       0.000               0.000             0.178
    3        0.000 ||       0.000               0.000             0.114
    4        0.000 ||       0.000               0.000            -0.282
    5        0.000 ||      -0.177               0.010             0.000
    6        0.000 ||       0.173              -0.010             0.000
    7      318.702 ||       0.000               0.000             1.531
    8      445.474 ||      -0.384               0.174             0.000
    9      537.915 ||      -0.138               0.162             0.000
   10      640.502 ||       0.000               0.000            -0.048
   11      695.030 ||       0.000               0.000             0.426
   12      753.865 ||       0.000               0.000             1.336
   13      919.582 ||       0.598               0.971             0.000
   14      959.363 ||       0.382              -0.370             0.000
   15     1182.809 ||      -1.918               1.249             0.000
   16     1381.919 ||       0.721              -1.262             0.000
   17     1425.217 ||      -0.508              -0.172             0.000
   18     1745.988 ||      -2.488              -1.295             0.000
   19     3229.936 ||       0.376               0.028             0.000
   20     3346.563 ||       0.007               0.075             0.000
   21     3814.587 ||      -0.838               1.074             0.000
 ----------------------------------------------------------------------------



  
  
 ----------------------------------------------------------------------------
 Normal Eigenvalue ||           Projected Infra Red Intensities
  Mode   [cm**-1]  || [atomic units] [(debye/angs)**2] [(KM/mol)] [arbitrary]
 ------ ---------- || -------------- ----------------- ---------- -----------
    1       -0.000 ||    0.000001           0.000         0.001       0.000
    2       -0.000 ||    0.001377           0.032         1.343       0.280
    3        0.000 ||    0.000559           0.013         0.545       0.114
    4        0.000 ||    0.003437           0.079         3.351       0.699
    5        0.000 ||    0.001355           0.031         1.320       0.276
    6        0.000 ||    0.001306           0.030         1.274       0.266
    7      318.702 ||    0.101621           2.344        99.066      20.672
    8      445.474 ||    0.007692           0.177         7.499       1.565
    9      537.915 ||    0.001968           0.045         1.918       0.400
   10      640.502 ||    0.000101           0.002         0.098       0.021
   11      695.030 ||    0.007874           0.182         7.676       1.602
   12      753.865 ||    0.077396           1.786        75.450      15.744
   13      919.582 ||    0.056376           1.301        54.958      11.468
   14      959.363 ||    0.012267           0.283        11.958       2.495
   15     1182.809 ||    0.227089           5.239       221.377      46.195
   16     1381.919 ||    0.091612           2.114        89.308      18.636
   17     1425.217 ||    0.012488           0.288        12.174       2.540
   18     1745.988 ||    0.340993           7.867       332.417      69.365
   19     3229.936 ||    0.006167           0.142         6.012       1.254
   20     3346.563 ||    0.000245           0.006         0.239       0.050
   21     3814.587 ||    0.080414           1.855        78.392      16.358
 ----------------------------------------------------------------------------



 vib:animation  F

 Task  times  cpu:      938.0s     wall:      951.8s
 
 
                                NWChem Input Module
                                -------------------
 
 
 Summary of allocated global arrays
-----------------------------------
  No active global arrays



                         GA Statistics for process    0
                         ------------------------------

       create   destroy   get      put      acc     scatter   gather  read&inc
calls: 4.07e+04 4.07e+04 5.75e+06 4.49e+05 9.75e+05    0        0     5.66e+04 
number of processes/call -1.50e+12 4.04e+12 2.64e+12 0.00e+00 0.00e+00
bytes total:             2.50e+09 2.37e+09 6.71e+08 0.00e+00 0.00e+00 4.53e+05
bytes remote:            1.55e+09 1.56e+09 5.06e+08 0.00e+00 0.00e+00 0.00e+00
Max memory consumed for GA by this process: 26384720 bytes
 
MA_summarize_allocated_blocks: starting scan ...
MA_summarize_allocated_blocks: scan completed: 0 heap blocks, 0 stack blocks
MA usage statistics:

	allocation statistics:
					      heap	     stack
					      ----	     -----
	current number of blocks	         0	         0
	maximum number of blocks	        25	        39
	current total bytes		         0	         0
	maximum total bytes		  33586968	  26244776
	maximum total K-bytes		     33587	     26245
	maximum total M-bytes		        34	        27
 
 
                                     CITATION
                                     --------
                Please cite the following reference when publishing
                           results obtained with NWChem:
 
          E. Apr, E. J. Bylaska, W. A. de Jong, N. Govind, K. Kowalski,
       T. P. Straatsma, M. Valiev, H. J. J. van Dam, Y. Alexeev, J. Anchell,
       V. Anisimov, F. W. Aquino, R. Atta-Fynn, J. Autschbach, N. P. Bauman,
     J. C. Becca, D. E. Bernholdt, K. Bhaskaran-Nair, S. Bogatko, P. Borowski,
        J. Boschen, J. Brabec, A. Bruner, E. Caut, Y. Chen, G. N. Chuev,
      C. J. Cramer, J. Daily, M. J. O. Deegan, T. H. Dunning Jr., M. Dupuis,
   K. G. Dyall, G. I. Fann, S. A. Fischer, A. Fonari, H. Frchtl, L. Gagliardi,
      J. Garza, N. Gawande, S. Ghosh, K. Glaesemann, A. W. Gtz, J. Hammond,
       V. Helms, E. D. Hermes, K. Hirao, S. Hirata, M. Jacquelin, L. Jensen,
   B. G. Johnson, H. Jnsson, R. A. Kendall, M. Klemm, R. Kobayashi, V. Konkov,
      S. Krishnamoorthy, M. Krishnan, Z. Lin, R. D. Lins, R. J. Littlefield,
      A. J. Logsdail, K. Lopata, W. Ma, A. V. Marenich, J. Martin del Campo,
   D. Mejia-Rodriguez, J. E. Moore, J. M. Mullin, T. Nakajima, D. R. Nascimento,
    J. A. Nichols, P. J. Nichols, J. Nieplocha, A. Otero-de-la-Roza, B. Palmer,
    A. Panyala, T. Pirojsirikul, B. Peng, R. Peverati, J. Pittner, L. Pollack,
   R. M. Richard, P. Sadayappan, G. C. Schatz, W. A. Shelton, D. W. Silverstein,
   D. M. A. Smith, T. A. Soares, D. Song, M. Swart, H. L. Taylor, G. S. Thomas,
            V. Tipparaju, D. G. Truhlar, K. Tsemekhman, T. Van Voorhis,
     . Vzquez-Mayagoitia, P. Verma, O. Villa, A. Vishnu, K. D. Vogiatzis,
        D. Wang, J. H. Weare, M. J. Williamson, T. L. Windus, K. Woliski,
        A. T. Wong, Q. Wu, C. Yang, Q. Yu, M. Zacharias, Z. Zhang, Y. Zhao,
                                and R. J. Harrison
                        "NWChem: Past, present, and future
                         J. Chem. Phys. 152, 184102 (2020)
                               doi:10.1063/5.0004997
 
                                      AUTHORS
                                      -------
     E. Apra, E. J. Bylaska, N. Govind, K. Kowalski, M. Valiev, W. A. de Jong,
      T. P. Straatsma, H. J. J. van Dam, D. Wang, T. L. Windus, N. P. Bauman,
       A. Panyala, J. Hammond, J. Autschbach, K. Bhaskaran-Nair, J. Brabec,
    K. Lopata, S. A. Fischer, S. Krishnamoorthy, M. Jacquelin, W. Ma, M. Klemm,
       O. Villa, Y. Chen, V. Anisimov, F. Aquino, S. Hirata, M. T. Hackler,
           Eric Hermes, L. Jensen, J. E. Moore, J. C. Becca, V. Konjkov,
            D. Mejia-Rodriguez, T. Risthaus, M. Malagoli, A. Marenich,
   A. Otero-de-la-Roza, J. Mullin, P. Nichols, R. Peverati, J. Pittner, Y. Zhao,
        P.-D. Fan, A. Fonari, M. J. Williamson, R. J. Harrison, J. R. Rehr,
      M. Dupuis, D. Silverstein, D. M. A. Smith, J. Nieplocha, V. Tipparaju,
      M. Krishnan, B. E. Van Kuiken, A. Vazquez-Mayagoitia, M. Swart, Q. Wu,
   T. Van Voorhis, A. A. Auer, M. Nooijen, L. D. Crosby, E. Brown, G. Cisneros,
     G. I. Fann, H. Fruchtl, J. Garza, K. Hirao, R. A. Kendall, J. A. Nichols,
       K. Tsemekhman, K. Wolinski, J. Anchell, D. E. Bernholdt, P. Borowski,
       T. Clark, D. Clerc, H. Dachsel, M. J. O. Deegan, K. Dyall, D. Elwood,
      E. Glendening, M. Gutowski, A. C. Hess, J. Jaffe, B. G. Johnson, J. Ju,
        R. Kobayashi, R. Kutteh, Z. Lin, R. Littlefield, X. Long, B. Meng,
      T. Nakajima, S. Niu, L. Pollack, M. Rosing, K. Glaesemann, G. Sandrone,
      M. Stave, H. Taylor, G. Thomas, J. H. van Lenthe, A. T. Wong, Z. Zhang.

 Total times  cpu:     1194.8s     wall:     1213.9s
