 argument  1 = 13R2.nw
 


============================== echo of input deck ==============================
echo
start 13R2_
title "F,H,F Reference 2"
charge 0

geometry
 zmatrix
  O
  C  1  R1
  C  2  R2  1  A1
  H  1  R5  2  A4  3  D180
  F  2  R6  3  A5  4  D180
  H  3  R7  2  A6  1  D180
  H  3  R8  2  A7  1  D0
  variables
    R1  1.329
    R2  1.363
    A1  124.5
    R5  0.994
    A4  105.4
    R6  1.385
    A5  122.5
    R7  1.078
    A6  120.0
    R8  1.099
    A7  117.6
  constants
    D0  0.000
    D180 180.0
 end
end

basis spherical
 * library aug-cc-pVDZ
end

set lindep:n_dep 0

set cphf:maxsub 95
set cphf:maxiter 999
set int:acc_std 1d-16
set fock:densityscreen f

scf
 maxiter 99
 vectors input atomic
 thresh 1d-9
 tol2e 1d-15
end

mp2
 freeze atomic
 tight
end

driver
 clear
 maxiter 99
 tight
end

set "mp2:aotol2e fock" 1d-15
set mp2:aotol2e 1d-15
set mp2:backtol 1d-15


task mp2 optimize
task mp2 frequencies

================================================================================


                                         
                                         
 
 
             Northwest Computational Chemistry Package (NWChem) 7.0.0
             --------------------------------------------------------
 
 
                    Environmental Molecular Sciences Laboratory
                       Pacific Northwest National Laboratory
                                Richland, WA 99352
 
                              Copyright (c) 1994-2020
                       Pacific Northwest National Laboratory
                            Battelle Memorial Institute
 
             NWChem is an open-source computational chemistry package
                        distributed under the terms of the
                      Educational Community License (ECL) 2.0
             A copy of the license is included with this distribution
                              in the LICENSE.TXT file
 
                                  ACKNOWLEDGMENT
                                  --------------

            This software and its documentation were developed at the
            EMSL at Pacific Northwest National Laboratory, a multiprogram
            national laboratory, operated for the U.S. Department of Energy
            by Battelle under Contract Number DE-AC05-76RL01830. Support
            for this work was provided by the Department of Energy Office
            of Biological and Environmental Research, Office of Basic
            Energy Sciences, and the Office of Advanced Scientific Computing.


           Job information
           ---------------

    hostname        = compute-0-25.local
    program         = /scratch/nwchem.277679
    date            = Tue Apr  6 11:32:35 2021

    compiled        = Wed_Mar_31_13:42:43_2021
    source          = /home/edo/nwchem-7.0.1
    nwchem branch   = 7.0.1
    nwchem revision = de46fdf
    ga revision     = 5.7.1
    use scalapack   = T
    input           = 13R2.nw
    prefix          = 13R2_.
    data base       = ./13R2_.db
    status          = startup
    nproc           =       11
    time left       =     -1s



           Memory information
           ------------------

    heap     =  215205459 doubles =   1641.9 Mbytes
    stack    =  215205461 doubles =   1641.9 Mbytes
    global   =  122974549 doubles =    938.2 Mbytes (distinct from heap & stack)
    total    =  553385469 doubles =   4222.0 Mbytes
    verify   = yes
    hardfail = no 


           Directory information
           ---------------------
 
  0 permanent = .
  0 scratch   = /scratch
 
 
 
 
                                NWChem Input Module
                                -------------------
 
 
                                 F,H,F Reference 2
                                 -----------------

 Scaling coordinates for geometry "geometry" by  1.889725989
 (inverse scale =  0.529177249)

 CS  symmetry detected
 
 
                             Geometry "geometry" -> ""
                             -------------------------
 
 Output coordinates in angstroms (scale by  1.889725989 to convert to a.u.)
 
  No.       Tag          Charge          X              Y              Z
 ---- ---------------- ---------- -------------- -------------- --------------
    1 O                    8.0000    -1.28951941    -0.24252760     0.00000000
    2 C                    6.0000    -0.00082130     0.08227722     0.00000000
    3 C                    6.0000     0.47325091     1.36017570     0.00000000
    4 H                    1.0000    -1.31126837    -1.23628964     0.00000000
    5 F                    9.0000     0.83551328    -1.02170171     0.00000000
    6 H                    1.0000     1.53600916     1.54081043     0.00000000
    7 H                    1.0000    -0.26278271     2.17629793     0.00000000
 
      Atomic Mass 
      ----------- 
 
      O                 15.994910
      C                 12.000000
      H                  1.007825
      F                 18.998400
 

 Effective nuclear repulsion energy (a.u.)     117.7349377299

            Nuclear Dipole moment (a.u.) 
            ----------------------------
        X                 Y               Z
 ---------------- ---------------- ----------------
    -0.0000000000    -0.0000000000     0.0000000000
 
      Symmetry information
      --------------------
 
 Group name             Cs        
 Group number              2
 Group order               2
 No. of unique centers     7
 
      Symmetry unique atoms
 
     1    2    3    4    5    6    7
 


                                Z-matrix (user)
                                -------- 

 Units are Angstrom for bonds and degrees for angles

  Constants are marked with an asterisk (*).

  Constrained variables are marked with a plus sign (+).

 
      Type          Name      I     J     K     L     M      Value
      ----------- --------  ----- ----- ----- ----- ----- ----------
    1 Stretch      R1          2     1                       1.32900
    2 Stretch      R2          3     2                       1.36300
    3 Bend         A1          3     2     1               124.50000
    4 Stretch      R5          4     1                       0.99400
    5 Bend         A4          4     1     2               105.40000
    6*Torsion      D180        4     1     2     3         180.00000
    7 Stretch      R6          5     2                       1.38500
    8 Bend         A5          5     2     3               122.50000
    9*Torsion      D180        5     2     3     4         180.00000
   10 Stretch      R7          6     3                       1.07800
   11 Bend         A6          6     3     2               120.00000
   12*Torsion      D180        6     3     2     1         180.00000
   13 Stretch      R8          7     3                       1.09900
   14 Bend         A7          7     3     2               117.60000
   15*Torsion      D0          7     3     2     1           0.00000
 
 
            XYZ format geometry
            -------------------
     7
 geometry
 O                    -1.28951941    -0.24252760     0.00000000
 C                    -0.00082130     0.08227722     0.00000000
 C                     0.47325091     1.36017570     0.00000000
 H                    -1.31126837    -1.23628964     0.00000000
 F                     0.83551328    -1.02170171     0.00000000
 H                     1.53600916     1.54081043     0.00000000
 H                    -0.26278271     2.17629793     0.00000000
 
 ==============================================================================
                                internuclear distances
 ------------------------------------------------------------------------------
       center one      |      center two      | atomic units |  angstroms
 ------------------------------------------------------------------------------
    2 C                |   1 O                |     2.51145  |     1.32900
    3 C                |   2 C                |     2.57570  |     1.36300
    4 H                |   1 O                |     1.87839  |     0.99400
    5 F                |   2 C                |     2.61727  |     1.38500
    6 H                |   3 C                |     2.03712  |     1.07800
    7 H                |   3 C                |     2.07681  |     1.09900
 ------------------------------------------------------------------------------
                         number of included internuclear distances:          6
 ==============================================================================



 ==============================================================================
                                 internuclear angles
 ------------------------------------------------------------------------------
        center 1       |       center 2       |       center 3       |  degrees
 ------------------------------------------------------------------------------
    2 C                |   1 O                |   4 H                |   105.40
    1 O                |   2 C                |   3 C                |   124.50
    1 O                |   2 C                |   5 F                |   113.00
    3 C                |   2 C                |   5 F                |   122.50
    2 C                |   3 C                |   6 H                |   120.00
    2 C                |   3 C                |   7 H                |   117.60
    6 H                |   3 C                |   7 H                |   122.40
 ------------------------------------------------------------------------------
                            number of included internuclear angles:          7
 ==============================================================================





 Summary of "ao basis" -> "" (spherical)
 ------------------------------------------------------------------------------
       Tag                 Description            Shells   Functions and Types
 ---------------- ------------------------------  ------  ---------------------
 *                        aug-cc-pVDZ                 on all atoms 


 
  Deleted DRIVER restart files 
 
 
 
                           NWChem Geometry Optimization
                           ----------------------------
 
 
 
 
                                 F,H,F Reference 2
 
 
 maximum gradient threshold         (gmax) =   0.000015
 rms gradient threshold             (grms) =   0.000010
 maximum cartesian step threshold   (xmax) =   0.000060
 rms cartesian step threshold       (xrms) =   0.000040
 fixed trust radius                (trust) =   0.300000
 maximum step size to saddle      (sadstp) =   0.100000
 energy precision                  (eprec) =   1.0D-07
 maximum number of steps          (nptopt) =   99
 initial hessian option           (inhess) =    0
 line search option               (linopt) =    1
 hessian update option            (modupd) =    1
 saddle point option              (modsad) =    0
 initial eigen-mode to follow     (moddir) =    0
 initial variable to follow       (vardir) =    0
 follow first negative mode     (firstneg) =    T
 apply conjugacy                    (opcg) =    F
 source of zmatrix                         =   user    


          -------------------
          Energy Minimization
          -------------------

 
 Names of Z-matrix variables 
    1 R1           2 R2           3 A1           4 R5           5 A4      
    6 D180         7 R6           8 A5           9 D180        10 R7      
   11 A6          12 D180        13 R8          14 A7          15 D0      
 
 Variables with the same non-blank name are constrained to be equal
 
     variables named     D180 =     6    9   12 

 Number of frozen variables =    4
           Frozen variables =    6    9   12   15
 
 Using diagonal initial Hessian 
 Scaling for Hessian diagonals: bonds = 1.00  angles = 0.25  torsions = 0.10

          --------
          Step   0
          --------
 
 
                         Geometry "geometry" -> "geometry"
                         ---------------------------------
 
 Output coordinates in angstroms (scale by  1.889725989 to convert to a.u.)
 
  No.       Tag          Charge          X              Y              Z
 ---- ---------------- ---------- -------------- -------------- --------------
    1 O                    8.0000    -1.28951941    -0.24252760     0.00000000
    2 C                    6.0000    -0.00082130     0.08227722     0.00000000
    3 C                    6.0000     0.47325091     1.36017570     0.00000000
    4 H                    1.0000    -1.31126837    -1.23628964     0.00000000
    5 F                    9.0000     0.83551328    -1.02170171     0.00000000
    6 H                    1.0000     1.53600916     1.54081043     0.00000000
    7 H                    1.0000    -0.26278271     2.17629793     0.00000000
 
      Atomic Mass 
      ----------- 
 
      O                 15.994910
      C                 12.000000
      H                  1.007825
      F                 18.998400
 

 Effective nuclear repulsion energy (a.u.)     117.7349377299

            Nuclear Dipole moment (a.u.) 
            ----------------------------
        X                 Y               Z
 ---------------- ---------------- ----------------
    -0.0000000000    -0.0000000000     0.0000000000
 
      Symmetry information
      --------------------
 
 Group name             Cs        
 Group number              2
 Group order               2
 No. of unique centers     7
 
      Symmetry unique atoms
 
     1    2    3    4    5    6    7
 
                      Basis "ao basis" -> "ao basis" (spherical)
                      -----
  O (Oxygen)
  ----------
            Exponent  Coefficients 
       -------------- ---------------------------------------------------------
  1 S  1.17200000E+04  0.000710
  1 S  1.75900000E+03  0.005470
  1 S  4.00800000E+02  0.027837
  1 S  1.13700000E+02  0.104800
  1 S  3.70300000E+01  0.283062
  1 S  1.32700000E+01  0.448719
  1 S  5.02500000E+00  0.270952
  1 S  1.01300000E+00  0.015458
 
  2 S  1.17200000E+04 -0.000160
  2 S  1.75900000E+03 -0.001263
  2 S  4.00800000E+02 -0.006267
  2 S  1.13700000E+02 -0.025716
  2 S  3.70300000E+01 -0.070924
  2 S  1.32700000E+01 -0.165411
  2 S  5.02500000E+00 -0.116955
  2 S  1.01300000E+00  0.557368
 
  3 S  3.02300000E-01  1.000000
 
  4 S  7.89600000E-02  1.000000
 
  5 P  1.77000000E+01  0.043018
  5 P  3.85400000E+00  0.228913
  5 P  1.04600000E+00  0.508728
 
  6 P  2.75300000E-01  1.000000
 
  7 P  6.85600000E-02  1.000000
 
  8 D  1.18500000E+00  1.000000
 
  9 D  3.32000000E-01  1.000000
 
  C (Carbon)
  ----------
            Exponent  Coefficients 
       -------------- ---------------------------------------------------------
  1 S  6.66500000E+03  0.000692
  1 S  1.00000000E+03  0.005329
  1 S  2.28000000E+02  0.027077
  1 S  6.47100000E+01  0.101718
  1 S  2.10600000E+01  0.274740
  1 S  7.49500000E+00  0.448564
  1 S  2.79700000E+00  0.285074
  1 S  5.21500000E-01  0.015204
 
  2 S  6.66500000E+03 -0.000146
  2 S  1.00000000E+03 -0.001154
  2 S  2.28000000E+02 -0.005725
  2 S  6.47100000E+01 -0.023312
  2 S  2.10600000E+01 -0.063955
  2 S  7.49500000E+00 -0.149981
  2 S  2.79700000E+00 -0.127262
  2 S  5.21500000E-01  0.544529
 
  3 S  1.59600000E-01  1.000000
 
  4 S  4.69000000E-02  1.000000
 
  5 P  9.43900000E+00  0.038109
  5 P  2.00200000E+00  0.209480
  5 P  5.45600000E-01  0.508557
 
  6 P  1.51700000E-01  1.000000
 
  7 P  4.04100000E-02  1.000000
 
  8 D  5.50000000E-01  1.000000
 
  9 D  1.51000000E-01  1.000000
 
  H (Hydrogen)
  ------------
            Exponent  Coefficients 
       -------------- ---------------------------------------------------------
  1 S  1.30100000E+01  0.019685
  1 S  1.96200000E+00  0.137977
  1 S  4.44600000E-01  0.478148
 
  2 S  1.22000000E-01  1.000000
 
  3 S  2.97400000E-02  1.000000
 
  4 P  7.27000000E-01  1.000000
 
  5 P  1.41000000E-01  1.000000
 
  F (Fluorine)
  ------------
            Exponent  Coefficients 
       -------------- ---------------------------------------------------------
  1 S  1.47100000E+04  0.000721
  1 S  2.20700000E+03  0.005553
  1 S  5.02800000E+02  0.028267
  1 S  1.42600000E+02  0.106444
  1 S  4.64700000E+01  0.286814
  1 S  1.67000000E+01  0.448641
  1 S  6.35600000E+00  0.264761
  1 S  1.31600000E+00  0.015333
 
  2 S  1.47100000E+04 -0.000165
  2 S  2.20700000E+03 -0.001308
  2 S  5.02800000E+02 -0.006495
  2 S  1.42600000E+02 -0.026691
  2 S  4.64700000E+01 -0.073690
  2 S  1.67000000E+01 -0.170776
  2 S  6.35600000E+00 -0.112327
  2 S  1.31600000E+00  0.562814
 
  3 S  3.89700000E-01  1.000000
 
  4 S  9.86300000E-02  1.000000
 
  5 P  2.26700000E+01  0.044878
  5 P  4.97700000E+00  0.235718
  5 P  1.34700000E+00  0.508521
 
  6 P  3.47100000E-01  1.000000
 
  7 P  8.50200000E-02  1.000000
 
  8 D  1.64000000E+00  1.000000
 
  9 D  4.64000000E-01  1.000000
 


 Summary of "ao basis" -> "ao basis" (spherical)
 ------------------------------------------------------------------------------
       Tag                 Description            Shells   Functions and Types
 ---------------- ------------------------------  ------  ---------------------
 O                        aug-cc-pVDZ                9       23   4s3p2d
 C                        aug-cc-pVDZ                9       23   4s3p2d
 H                        aug-cc-pVDZ                5        9   3s2p
 F                        aug-cc-pVDZ                9       23   4s3p2d


                                 NWChem SCF Module
                                 -----------------
 
 
                                 F,H,F Reference 2
 
 

  ao basis        = "ao basis"
  functions       =   119
  atoms           =     7
  closed shells   =    16
  open shells     =     0
  charge          =   0.00
  wavefunction    = RHF 
  input vectors   = atomic
  output vectors  = ./13R2_.movecs
  use symmetry    = T
  symmetry adapt  = T


 Summary of "ao basis" -> "ao basis" (spherical)
 ------------------------------------------------------------------------------
       Tag                 Description            Shells   Functions and Types
 ---------------- ------------------------------  ------  ---------------------
 O                        aug-cc-pVDZ                9       23   4s3p2d
 C                        aug-cc-pVDZ                9       23   4s3p2d
 H                        aug-cc-pVDZ                5        9   3s2p
 F                        aug-cc-pVDZ                9       23   4s3p2d


      Symmetry analysis of basis
      --------------------------
 
        a'         85
        a"         34
 

int_init: setting std/high accuracies to  1.0D-16  1.0D-32

 Forming initial guess at       1.0s


 Forcing the number of linearly dependent vectors to be  0
 
      Superposition of Atomic Density Guess
      -------------------------------------
 
 Sum of atomic energies:        -250.98744697
 
      Non-variational initial energy
      ------------------------------

 Total energy =    -252.581440
 1-e energy   =    -577.899863
 2-e energy   =     207.583485
 HOMO         =      -0.261098
 LUMO         =       0.022155
 
 
      Symmetry analysis of molecular orbitals - initial
      -------------------------------------------------
 
  Numbering of irreducible representations: 
 
     1 a'          2 a"      
 
  Orbital symmetries:
 
     1 a'          2 a'          3 a'          4 a'          5 a'      
     6 a'          7 a'          8 a'          9 a'         10 a'      
    11 a"         12 a'         13 a'         14 a"         15 a'      
    16 a"         17 a'         18 a'         19 a'         20 a"      
    21 a'         22 a"         23 a'         24 a'         25 a'      
    26 a"      
 

 Starting SCF solution at       1.5s



 ----------------------------------------------
         Quadratically convergent ROHF

 Convergence threshold     :          1.000E-09
 Maximum no. of iterations :           99
 Final Fock-matrix accuracy:          1.000E-15
 ----------------------------------------------

 Warning: symmetry breaking in RHF:   2.208928142791425E-014

              iter       energy          gnorm     gmax       time
             ----- ------------------- --------- --------- --------
                 1     -251.6933518183  1.20D+00  2.37D-01      1.9
 Warning: symmetry breaking in RHF:   2.614710277087751E-014
 Warning: symmetry breaking in RHF:   2.522834069585764E-014
                 2     -251.7712333177  3.23D-01  4.93D-02      2.8
 Warning: symmetry breaking in RHF:   2.535776473918891E-014
                 3     -251.7816278356  2.76D-02  8.42D-03      4.2
 Warning: symmetry breaking in RHF:   2.535576272143196E-014
                 4     -251.7817580709  3.89D-04  7.17D-05      6.4
 Warning: symmetry breaking in RHF:   2.535488539243271E-014
                 5     -251.7817580932  1.48D-07  2.68D-08     10.0
 Warning: symmetry breaking in RHF:   2.535488502148492E-014
                 6     -251.7817580932  7.59D-11  1.38D-11     13.4


       Final RHF  results 
       ------------------ 

         Total SCF energy =   -251.781758093190
      One-electron energy =   -579.858645787229
      Two-electron energy =    210.341949964186
 Nuclear repulsion energy =    117.734937729852

        Time for solution =     12.0s


 
       Symmetry analysis of molecular orbitals - final
       -----------------------------------------------
 
  Numbering of irreducible representations: 
 
     1 a'          2 a"      
 
  Orbital symmetries:
 
     1 a'          2 a'          3 a'          4 a'          5 a'      
     6 a'          7 a'          8 a'          9 a'         10 a'      
    11 a"         12 a'         13 a'         14 a"         15 a'      
    16 a"         17 a'         18 a'         19 a'         20 a'      
    21 a"         22 a"         23 a'         24 a'         25 a'      
    26 a'      
 
             Final eigenvalues
             -----------------

              1      
    1  -26.3457
    2  -20.6391
    3  -11.4123
    4  -11.2373
    5   -1.6475
    6   -1.4468
    7   -1.0357
    8   -0.8383
    9   -0.7884
   10   -0.7234
   11   -0.7160
   12   -0.6152
   13   -0.6127
   14   -0.5991
   15   -0.5774
   16   -0.3524
   17    0.0336
   18    0.0489
   19    0.0572
   20    0.0988
   21    0.1090
   22    0.1201
   23    0.1217
   24    0.1427
   25    0.1693
   26    0.1869
 
                       ROHF Final Molecular Orbital Analysis
                       -------------------------------------
 
 Vector    6  Occ=2.000000D+00  E=-1.446831D+00  Symmetry=a'
              MO Center= -1.0D+00, -3.2D-01,  1.6D-17, r^2= 7.1D-01
   Bfn.  Coefficient  Atom+Function         Bfn.  Coefficient  Atom+Function  
  ----- ------------  ---------------      ----- ------------  ---------------
     3      0.458838  1 O  s                  2      0.415570  1 O  s          
    70      0.171013  4 H  s                 27     -0.159214  2 C  s          
 
 Vector    7  Occ=2.000000D+00  E=-1.035659D+00  Symmetry=a'
              MO Center=  1.7D-01,  6.3D-01,  1.4D-17, r^2= 1.5D+00
   Bfn.  Coefficient  Atom+Function         Bfn.  Coefficient  Atom+Function  
  ----- ------------  ---------------      ----- ------------  ---------------
    48      0.297703  3 C  s                 25      0.273478  2 C  s          
    29      0.166148  2 C  py                26      0.155348  2 C  s          
 
 Vector    8  Occ=2.000000D+00  E=-8.382878D-01  Symmetry=a'
              MO Center=  1.1D-01, -1.0D-01, -7.2D-18, r^2= 2.6D+00
   Bfn.  Coefficient  Atom+Function         Bfn.  Coefficient  Atom+Function  
  ----- ------------  ---------------      ----- ------------  ---------------
    27      0.378445  2 C  s                 50     -0.328956  3 C  s          
    26     -0.313518  2 C  s                 83      0.283126  5 F  px         
    49      0.281423  3 C  s                  5     -0.245694  1 O  px         
    84     -0.212243  5 F  py                29      0.207065  2 C  py         
    25     -0.193574  2 C  s                 86      0.186905  5 F  px         
 
 Vector    9  Occ=2.000000D+00  E=-7.884077D-01  Symmetry=a'
              MO Center= -3.7D-01, -4.3D-01,  4.1D-18, r^2= 1.9D+00
   Bfn.  Coefficient  Atom+Function         Bfn.  Coefficient  Atom+Function  
  ----- ------------  ---------------      ----- ------------  ---------------
     6      0.349304  1 O  py                70     -0.278532  4 H  s          
    84     -0.274326  5 F  py                28     -0.270092  2 C  px         
    87     -0.181495  5 F  py                 9      0.175618  1 O  py         
     5      0.170791  1 O  px                83      0.156833  5 F  px         
 
 Vector   10  Occ=2.000000D+00  E=-7.233783D-01  Symmetry=a'
              MO Center=  3.9D-01, -2.9D-01, -8.6D-33, r^2= 2.3D+00
   Bfn.  Coefficient  Atom+Function         Bfn.  Coefficient  Atom+Function  
  ----- ------------  ---------------      ----- ------------  ---------------
    83      0.368588  5 F  px                84      0.355856  5 F  py         
    86      0.255634  5 F  px                87      0.253286  5 F  py         
    27     -0.232756  2 C  s                 50      0.208688  3 C  s          
     3      0.160098  1 O  s                 52     -0.157400  3 C  py         
     5     -0.152432  1 O  px         
 
 Vector   11  Occ=2.000000D+00  E=-7.159602D-01  Symmetry=a"
              MO Center=  5.5D-01, -8.0D-01, -6.1D-17, r^2= 1.1D+00
   Bfn.  Coefficient  Atom+Function         Bfn.  Coefficient  Atom+Function  
  ----- ------------  ---------------      ----- ------------  ---------------
    85      0.582278  5 F  pz                88      0.396864  5 F  pz         
    30      0.186590  2 C  pz                 7      0.175132  1 O  pz         
 
 Vector   12  Occ=2.000000D+00  E=-6.152355D-01  Symmetry=a'
              MO Center=  2.6D-01,  6.4D-01,  9.5D-17, r^2= 2.4D+00
   Bfn.  Coefficient  Atom+Function         Bfn.  Coefficient  Atom+Function  
  ----- ------------  ---------------      ----- ------------  ---------------
    52      0.320906  3 C  py                29     -0.288960  2 C  py         
    84      0.253951  5 F  py                 6      0.225893  1 O  py         
   102      0.226752  6 H  s                 26     -0.189183  2 C  s          
   103      0.187792  6 H  s                 51      0.179087  3 C  px         
    70     -0.179043  4 H  s                 87      0.176407  5 F  py         
 
 Vector   13  Occ=2.000000D+00  E=-6.127142D-01  Symmetry=a'
              MO Center= -5.6D-01, -4.0D-01, -2.6D-16, r^2= 2.0D+00
   Bfn.  Coefficient  Atom+Function         Bfn.  Coefficient  Atom+Function  
  ----- ------------  ---------------      ----- ------------  ---------------
     5      0.398142  1 O  px                83      0.390448  5 F  px         
    86      0.278402  5 F  px                 6     -0.260282  1 O  py         
     8      0.255355  1 O  px                 3     -0.186615  1 O  s          
    28     -0.178313  2 C  px                 9     -0.171608  1 O  py         
 
 Vector   14  Occ=2.000000D+00  E=-5.990828D-01  Symmetry=a"
              MO Center= -8.1D-01, -3.3D-01, -6.9D-16, r^2= 1.4D+00
   Bfn.  Coefficient  Atom+Function         Bfn.  Coefficient  Atom+Function  
  ----- ------------  ---------------      ----- ------------  ---------------
     7      0.545712  1 O  pz                10      0.401627  1 O  pz         
    85     -0.283914  5 F  pz                88     -0.203766  5 F  pz         
    30      0.163900  2 C  pz         
 
 Vector   15  Occ=2.000000D+00  E=-5.774323D-01  Symmetry=a'
              MO Center=  4.5D-01,  1.4D+00, -5.0D-18, r^2= 1.7D+00
   Bfn.  Coefficient  Atom+Function         Bfn.  Coefficient  Atom+Function  
  ----- ------------  ---------------      ----- ------------  ---------------
    51      0.376708  3 C  px               111     -0.346290  7 H  s          
   102      0.296900  6 H  s                112     -0.291487  7 H  s          
   103      0.277152  6 H  s                 52     -0.184519  3 C  py         
    84     -0.169129  5 F  py         
 
 Vector   16  Occ=2.000000D+00  E=-3.523856D-01  Symmetry=a"
              MO Center=  1.5D-01,  7.5D-01,  1.7D-16, r^2= 1.9D+00
   Bfn.  Coefficient  Atom+Function         Bfn.  Coefficient  Atom+Function  
  ----- ------------  ---------------      ----- ------------  ---------------
    53      0.417171  3 C  pz                30      0.329528  2 C  pz         
    56      0.293620  3 C  pz                 7     -0.249226  1 O  pz         
    33      0.228575  2 C  pz                10     -0.204016  1 O  pz         
 
 Vector   17  Occ=0.000000D+00  E= 3.356017D-02  Symmetry=a'
              MO Center= -1.7D+00, -1.7D+00,  1.4D-17, r^2= 1.4D+01
   Bfn.  Coefficient  Atom+Function         Bfn.  Coefficient  Atom+Function  
  ----- ------------  ---------------      ----- ------------  ---------------
    50      3.645081  3 C  s                 72     -2.740659  4 H  s          
    35     -1.508326  2 C  py                34     -1.395119  2 C  px         
     4     -0.679697  1 O  s                 49      0.638798  3 C  s          
   103     -0.503119  6 H  s                 58     -0.478191  3 C  py         
    11     -0.473203  1 O  px               104     -0.409516  6 H  s          
 
 Vector   18  Occ=0.000000D+00  E= 4.885543D-02  Symmetry=a'
              MO Center=  9.3D-01,  1.6D+00,  8.2D-17, r^2= 2.1D+01
   Bfn.  Coefficient  Atom+Function         Bfn.  Coefficient  Atom+Function  
  ----- ------------  ---------------      ----- ------------  ---------------
   104      2.544709  6 H  s                 27     -1.816093  2 C  s          
    72     -1.807018  4 H  s                113      1.388343  7 H  s          
    35     -1.220223  2 C  py                58     -1.005747  3 C  py         
    34     -0.843782  2 C  px               103      0.734518  6 H  s          
   112      0.633580  7 H  s                 57     -0.604217  3 C  px         
 
 Vector   19  Occ=0.000000D+00  E= 5.722644D-02  Symmetry=a'
              MO Center=  3.2D-01,  2.5D+00,  6.5D-18, r^2= 2.1D+01
   Bfn.  Coefficient  Atom+Function         Bfn.  Coefficient  Atom+Function  
  ----- ------------  ---------------      ----- ------------  ---------------
   113     -5.439038  7 H  s                104      5.020043  6 H  s          
    57     -3.416599  3 C  px               112     -1.317801  7 H  s          
    34      1.117910  2 C  px                50      1.073771  3 C  s          
    58      1.004218  3 C  py                27     -0.997097  2 C  s          
   103      0.960108  6 H  s                 54     -0.500614  3 C  px         
 
 Vector   20  Occ=0.000000D+00  E= 9.875681D-02  Symmetry=a'
              MO Center=  3.7D-01, -1.4D-01, -6.3D-17, r^2= 1.9D+01
   Bfn.  Coefficient  Atom+Function         Bfn.  Coefficient  Atom+Function  
  ----- ------------  ---------------      ----- ------------  ---------------
    27     19.589532  2 C  s                 50    -19.398798  3 C  s          
    35      7.710838  2 C  py                58      5.777578  3 C  py         
    72      2.957040  4 H  s                113     -2.787808  7 H  s          
    34      2.096785  2 C  px                57      2.035632  3 C  px         
     4     -1.083202  1 O  s                112      1.052643  7 H  s          
 
 Vector   21  Occ=0.000000D+00  E= 1.089823D-01  Symmetry=a"
              MO Center=  2.9D-01,  6.4D-01,  6.7D-15, r^2= 1.1D+01
   Bfn.  Coefficient  Atom+Function         Bfn.  Coefficient  Atom+Function  
  ----- ------------  ---------------      ----- ------------  ---------------
    36      1.189945  2 C  pz                13     -0.357291  1 O  pz         
    59      0.342019  3 C  pz                33     -0.255499  2 C  pz         
    91     -0.254009  5 F  pz                30     -0.201610  2 C  pz         
 
 Vector   22  Occ=0.000000D+00  E= 1.201347D-01  Symmetry=a"
              MO Center=  3.0D-01,  6.7D-01,  9.2D-17, r^2= 1.3D+01
   Bfn.  Coefficient  Atom+Function         Bfn.  Coefficient  Atom+Function  
  ----- ------------  ---------------      ----- ------------  ---------------
    36      3.058910  2 C  pz                59     -2.421219  3 C  pz         
    13     -0.651499  1 O  pz                91     -0.429091  5 F  pz         
    33      0.252294  2 C  pz                30      0.160286  2 C  pz         
    56     -0.156234  3 C  pz         
 
 Vector   23  Occ=0.000000D+00  E= 1.217265D-01  Symmetry=a'
              MO Center= -3.2D-01,  1.2D+00,  2.4D-15, r^2= 1.6D+01
   Bfn.  Coefficient  Atom+Function         Bfn.  Coefficient  Atom+Function  
  ----- ------------  ---------------      ----- ------------  ---------------
    27      4.107238  2 C  s                 58      3.692365  3 C  py         
    50     -3.454295  3 C  s                 34      3.047172  2 C  px         
     4      2.497316  1 O  s                104     -1.547218  6 H  s          
    72      1.165128  4 H  s                 55      1.119025  3 C  py         
    26      1.084655  2 C  s                112     -1.011410  7 H  s          
 
 Vector   24  Occ=0.000000D+00  E= 1.427081D-01  Symmetry=a'
              MO Center= -5.5D-01, -7.1D-01, -3.4D-16, r^2= 1.6D+01
   Bfn.  Coefficient  Atom+Function         Bfn.  Coefficient  Atom+Function  
  ----- ------------  ---------------      ----- ------------  ---------------
    50      6.791133  3 C  s                 34     -5.124151  2 C  px         
     4     -4.788039  1 O  s                 35     -4.558104  2 C  py         
    72     -3.815278  4 H  s                 27      2.926281  2 C  s          
    57      1.663968  3 C  px               103     -1.206124  6 H  s          
    71      0.943804  4 H  s                 11     -0.887708  1 O  px         
 
 Vector   25  Occ=0.000000D+00  E= 1.693092D-01  Symmetry=a'
              MO Center=  3.5D-01,  7.0D-01, -5.5D-16, r^2= 1.4D+01
   Bfn.  Coefficient  Atom+Function         Bfn.  Coefficient  Atom+Function  
  ----- ------------  ---------------      ----- ------------  ---------------
    27     22.331018  2 C  s                 50    -14.493328  3 C  s          
    35      7.294410  2 C  py                58      5.530608  3 C  py         
    34      4.594642  2 C  px               113     -3.381327  7 H  s          
   104     -2.544450  6 H  s                 82     -2.422441  5 F  s          
    72      2.380508  4 H  s                  4     -1.513662  1 O  s          
 
 Vector   26  Occ=0.000000D+00  E= 1.868703D-01  Symmetry=a'
              MO Center=  8.3D-01,  1.9D+00,  5.0D-17, r^2= 1.5D+01
   Bfn.  Coefficient  Atom+Function         Bfn.  Coefficient  Atom+Function  
  ----- ------------  ---------------      ----- ------------  ---------------
   113      6.878838  7 H  s                 57      6.558770  3 C  px         
   104     -6.587349  6 H  s                 27     -3.673166  2 C  s          
   103     -3.587462  6 H  s                 50      3.386942  3 C  s          
    58     -3.138640  3 C  py               112      2.915573  7 H  s          
    34     -2.088173  2 C  px                 4      1.799582  1 O  s          
 
 Vector   27  Occ=0.000000D+00  E= 2.024808D-01  Symmetry=a"
              MO Center=  8.7D-02,  8.1D-01,  4.7D-15, r^2= 5.9D+00
   Bfn.  Coefficient  Atom+Function         Bfn.  Coefficient  Atom+Function  
  ----- ------------  ---------------      ----- ------------  ---------------
    59      1.117278  3 C  pz                13     -0.617281  1 O  pz         
    33      0.500927  2 C  pz                30      0.413812  2 C  pz         
    36     -0.415342  2 C  pz                53     -0.331076  3 C  pz         
    56     -0.266007  3 C  pz               110     -0.230460  6 H  pz         
   119     -0.217710  7 H  pz                45      0.158904  2 C  d  1       
 
 Vector   28  Occ=0.000000D+00  E= 2.057292D-01  Symmetry=a'
              MO Center= -6.3D-01,  3.5D-01, -6.6D-15, r^2= 1.3D+01
   Bfn.  Coefficient  Atom+Function         Bfn.  Coefficient  Atom+Function  
  ----- ------------  ---------------      ----- ------------  ---------------
    27     24.570598  2 C  s                 50    -20.002442  3 C  s          
     4     -7.077141  1 O  s                 58      4.819045  3 C  py         
   112      3.471130  7 H  s                 57      3.340419  3 C  px         
    35      3.059652  2 C  py                82     -2.854878  5 F  s          
    55     -2.766105  3 C  py                71      2.714405  4 H  s          
 
 Vector   29  Occ=0.000000D+00  E= 2.128133D-01  Symmetry=a'
              MO Center= -1.2D+00, -8.7D-01, -1.4D-15, r^2= 1.1D+01
   Bfn.  Coefficient  Atom+Function         Bfn.  Coefficient  Atom+Function  
  ----- ------------  ---------------      ----- ------------  ---------------
    50      8.238694  3 C  s                 27     -7.468612  2 C  s          
    34     -4.332905  2 C  px                35     -3.428872  2 C  py         
    55      2.639228  3 C  py                32      2.437310  2 C  py         
    12      2.371318  1 O  py                26      2.353686  2 C  s          
   112     -2.301983  7 H  s                  4     -2.260266  1 O  s          
 
 Vector   30  Occ=0.000000D+00  E= 2.253518D-01  Symmetry=a'
              MO Center=  1.4D-01,  1.1D+00, -1.1D-15, r^2= 1.2D+01
   Bfn.  Coefficient  Atom+Function         Bfn.  Coefficient  Atom+Function  
  ----- ------------  ---------------      ----- ------------  ---------------
    50     21.321404  3 C  s                 27    -18.901632  2 C  s          
    35     -6.302922  2 C  py                58     -3.829785  3 C  py         
    34     -3.590669  2 C  px                71      2.562282  4 H  s          
    49      2.480606  3 C  s                 12      2.353158  1 O  py         
   112     -1.927778  7 H  s                  4     -1.660250  1 O  s          
 
 Vector   31  Occ=0.000000D+00  E= 2.360810D-01  Symmetry=a"
              MO Center= -7.7D-01, -1.5D-01, -5.0D-18, r^2= 8.7D+00
   Bfn.  Coefficient  Atom+Function         Bfn.  Coefficient  Atom+Function  
  ----- ------------  ---------------      ----- ------------  ---------------
    13      1.933455  1 O  pz                36     -1.360595  2 C  pz         
    59      0.735338  3 C  pz                91     -0.574735  5 F  pz         
    45     -0.316066  2 C  d  1              78     -0.308064  4 H  pz         
     7     -0.172293  1 O  pz                10     -0.172257  1 O  pz         
   110     -0.164517  6 H  pz                43     -0.161934  2 C  d -1       
 
 Vector   32  Occ=0.000000D+00  E= 2.812631D-01  Symmetry=a'
              MO Center=  1.3D-01,  1.0D+00, -1.0D-15, r^2= 9.9D+00
   Bfn.  Coefficient  Atom+Function         Bfn.  Coefficient  Atom+Function  
  ----- ------------  ---------------      ----- ------------  ---------------
    50    -20.984231  3 C  s                 27     19.864632  2 C  s          
    35      5.179795  2 C  py                58      5.168946  3 C  py         
    34      2.302414  2 C  px               112      2.253598  7 H  s          
    72      2.020192  4 H  s                103      1.854114  6 H  s          
    57      1.844426  3 C  px                49     -1.366126  3 C  s          
 
 Vector   33  Occ=0.000000D+00  E= 3.016573D-01  Symmetry=a'
              MO Center= -3.3D-01,  6.2D-01, -7.6D-16, r^2= 8.9D+00
   Bfn.  Coefficient  Atom+Function         Bfn.  Coefficient  Atom+Function  
  ----- ------------  ---------------      ----- ------------  ---------------
    27     20.590427  2 C  s                 50    -18.639318  3 C  s          
    35      5.966817  2 C  py                58      5.749212  3 C  py         
    34      4.877133  2 C  px               103      2.683572  6 H  s          
   113     -2.450039  7 H  s                 72      2.403261  4 H  s          
    82     -2.382330  5 F  s                 71      2.219004  4 H  s          
 
 Vector   34  Occ=0.000000D+00  E= 3.166298D-01  Symmetry=a'
              MO Center=  6.8D-01, -1.1D+00, -1.0D-15, r^2= 9.4D+00
   Bfn.  Coefficient  Atom+Function         Bfn.  Coefficient  Atom+Function  
  ----- ------------  ---------------      ----- ------------  ---------------
    50      5.135469  3 C  s                 35     -4.243042  2 C  py         
     4     -3.171036  1 O  s                103     -2.851927  6 H  s          
    89     -2.798129  5 F  px                82      2.647302  5 F  s          
    11     -2.448353  1 O  px                90      2.428991  5 F  py         
    27     -2.394879  2 C  s                 32      2.026193  2 C  py         
 
 Vector   35  Occ=0.000000D+00  E= 3.253370D-01  Symmetry=a'
              MO Center=  7.4D-02, -7.0D-01, -9.1D-16, r^2= 8.9D+00
   Bfn.  Coefficient  Atom+Function         Bfn.  Coefficient  Atom+Function  
  ----- ------------  ---------------      ----- ------------  ---------------
    50      7.675405  3 C  s                 27     -6.289370  2 C  s          
    35     -4.235493  2 C  py                57     -2.891654  3 C  px         
    82     -2.205392  5 F  s                  4      1.963534  1 O  s          
   104      1.687402  6 H  s                 89      1.574125  5 F  px         
   112     -1.560541  7 H  s                 72     -1.446636  4 H  s          
 
 Vector   36  Occ=0.000000D+00  E= 3.287310D-01  Symmetry=a"
              MO Center=  1.4D-01, -7.8D-01, -1.0D-16, r^2= 8.7D+00
   Bfn.  Coefficient  Atom+Function         Bfn.  Coefficient  Atom+Function  
  ----- ------------  ---------------      ----- ------------  ---------------
    36      2.948183  2 C  pz                91     -1.721359  5 F  pz         
    59     -1.369906  3 C  pz                13     -1.334084  1 O  pz         
    56      0.387485  3 C  pz                78     -0.365029  4 H  pz         
    43     -0.361253  2 C  d -1             110     -0.284137  6 H  pz         
    88      0.265438  5 F  pz               119      0.247921  7 H  pz         
 
 Vector   37  Occ=0.000000D+00  E= 3.662106D-01  Symmetry=a"
              MO Center=  5.0D-01,  1.2D+00, -1.9D-18, r^2= 7.3D+00
   Bfn.  Coefficient  Atom+Function         Bfn.  Coefficient  Atom+Function  
  ----- ------------  ---------------      ----- ------------  ---------------
   119      1.313942  7 H  pz               110     -1.224741  6 H  pz         
    91      1.139617  5 F  pz                36     -0.738676  2 C  pz         
    68     -0.708288  3 C  d  1              45      0.631948  2 C  d  1       
    78     -0.346959  4 H  pz                43      0.261823  2 C  d -1       
    66     -0.259564  3 C  d -1              59      0.248487  3 C  pz         
 
 Vector   38  Occ=0.000000D+00  E= 3.771810D-01  Symmetry=a'
              MO Center= -2.8D-01,  1.5D-02, -7.0D-16, r^2= 7.7D+00
   Bfn.  Coefficient  Atom+Function         Bfn.  Coefficient  Atom+Function  
  ----- ------------  ---------------      ----- ------------  ---------------
    27     18.844437  2 C  s                  4     -9.110210  1 O  s          
    50     -9.129716  3 C  s                 82     -3.059108  5 F  s          
    49      2.974057  3 C  s                 58      2.835843  3 C  py         
    35      2.689363  2 C  py                71      2.116597  4 H  s          
    11     -2.065767  1 O  px                57      1.791041  3 C  px         
 
 Vector   39  Occ=0.000000D+00  E= 3.875894D-01  Symmetry=a'
              MO Center=  7.0D-01,  3.1D-01,  6.3D-16, r^2= 9.7D+00
   Bfn.  Coefficient  Atom+Function         Bfn.  Coefficient  Atom+Function  
  ----- ------------  ---------------      ----- ------------  ---------------
    27     22.678200  2 C  s                 50    -22.495077  3 C  s          
    35      8.098224  2 C  py                34      4.754974  2 C  px         
     4     -4.570174  1 O  s                103      4.512119  6 H  s          
    26     -4.223853  2 C  s                 55     -4.097800  3 C  py         
    49      4.007483  3 C  s                 58      3.757525  3 C  py         
 
 Vector   40  Occ=0.000000D+00  E= 4.102759D-01  Symmetry=a'
              MO Center=  3.2D-02,  1.1D+00, -3.8D-16, r^2= 8.9D+00
   Bfn.  Coefficient  Atom+Function         Bfn.  Coefficient  Atom+Function  
  ----- ------------  ---------------      ----- ------------  ---------------
    27      7.684816  2 C  s                 50     -6.128650  3 C  s          
     4     -5.527385  1 O  s                 55     -3.230316  3 C  py         
    71      3.106598  4 H  s                112      2.753533  7 H  s          
    26     -2.391848  2 C  s                 32     -1.919533  2 C  py         
    12      1.684365  1 O  py                57      1.597962  3 C  px         
 
 Vector   41  Occ=0.000000D+00  E= 4.225183D-01  Symmetry=a"
              MO Center= -7.2D-01, -5.9D-01, -1.1D-16, r^2= 6.6D+00
   Bfn.  Coefficient  Atom+Function         Bfn.  Coefficient  Atom+Function  
  ----- ------------  ---------------      ----- ------------  ---------------
    13      1.586551  1 O  pz                78     -1.572900  4 H  pz         
    36     -1.050628  2 C  pz                91      0.788461  5 F  pz         
   110      0.696839  6 H  pz                33     -0.432980  2 C  pz         
    10      0.376457  1 O  pz               119     -0.287412  7 H  pz         
    68      0.261262  3 C  d  1              56     -0.256403  3 C  pz         
 
 Vector   42  Occ=0.000000D+00  E= 4.497352D-01  Symmetry=a'
              MO Center=  1.1D-01,  5.9D-01,  6.5D-17, r^2= 9.9D+00
   Bfn.  Coefficient  Atom+Function         Bfn.  Coefficient  Atom+Function  
  ----- ------------  ---------------      ----- ------------  ---------------
     4      7.534467  1 O  s                 50     -6.376492  3 C  s          
    57      4.316985  3 C  px                27      4.102152  2 C  s          
    82     -3.957305  5 F  s                104     -3.939832  6 H  s          
    35      3.776785  2 C  py               112      3.681035  7 H  s          
   103     -3.094613  6 H  s                113      3.094041  7 H  s          
 
 Vector   43  Occ=0.000000D+00  E= 4.665547D-01  Symmetry=a'
              MO Center= -3.3D-01,  2.1D-01,  3.8D-17, r^2= 8.7D+00
   Bfn.  Coefficient  Atom+Function         Bfn.  Coefficient  Atom+Function  
  ----- ------------  ---------------      ----- ------------  ---------------
    27      7.834965  2 C  s                  4     -3.894411  1 O  s          
    50     -3.883861  3 C  s                 57      3.688223  3 C  px         
    82     -2.977016  5 F  s                104     -2.761879  6 H  s          
   113      2.127610  7 H  s                 54      1.915407  3 C  px         
    71      1.751430  4 H  s                 26      1.665465  2 C  s          
 
 Vector   44  Occ=0.000000D+00  E= 5.031264D-01  Symmetry=a"
              MO Center=  6.6D-01,  1.8D+00, -1.3D-15, r^2= 5.6D+00
   Bfn.  Coefficient  Atom+Function         Bfn.  Coefficient  Atom+Function  
  ----- ------------  ---------------      ----- ------------  ---------------
    56      1.781985  3 C  pz                59      1.573736  3 C  pz         
   110     -1.572733  6 H  pz               119     -1.482188  7 H  pz         
    36     -1.469720  2 C  pz                33     -0.644842  2 C  pz         
    91      0.522357  5 F  pz                13      0.480425  1 O  pz         
    53      0.277913  3 C  pz         
 

 center of mass
 --------------
 x =   0.02676847 y =  -0.10604706 z =   0.00000000

 moments of inertia (a.u.)
 ------------------
         184.145519714500          -0.000000000000           0.000000000000
          -0.000000000000         166.822883063998           0.000000000000
           0.000000000000           0.000000000000         350.968402778498
 
  Mulliken analysis of the total density
  --------------------------------------

    Atom       Charge   Shell Charges
 -----------   ------   -------------------------------------------------------
    1 O    8     8.64   2.00  0.83  0.98  0.14  2.83  1.74  0.08  0.02  0.01
    2 C    6     4.85   2.01  0.67  0.32 -0.14  1.80  0.04  0.09  0.21 -0.14
    3 C    6     5.64   2.01  0.64  0.44 -0.13  2.01  0.58  0.05  0.05 -0.02
    4 H    1     0.81   0.68  0.04 -0.01  0.08  0.02
    5 F    9     9.65   2.00  0.89  1.08  0.15  3.30  2.11  0.09  0.00  0.02
    6 H    1     1.25   0.76  0.49  0.01  0.03 -0.04
    7 H    1     1.17   0.75  0.42  0.01  0.03 -0.04
 
       Multipole analysis of the density wrt the origin
       ------------------------------------------------
 
     L   x y z        total         open         nuclear
     -   - - -        -----         ----         -------
     0   0 0 0     -0.000000      0.000000     32.000000
 
     1   1 0 0     -0.228855      0.000000     -0.000000
     1   0 1 0     -0.255924      0.000000     -0.000000
     1   0 0 1      0.000000      0.000000      0.000000
 
     2   2 0 0    -17.487959      0.000000     89.552404
     2   1 1 0      2.569139      0.000000      7.488087
     2   1 0 1     -0.000000      0.000000      0.000000
     2   0 2 0    -14.787558      0.000000    105.865248
     2   0 1 1     -0.000000      0.000000      0.000000
     2   0 0 2    -18.538403      0.000000      0.000000
 
                   NWChem MP2 Semi-direct Energy/Gradient Module
                   ---------------------------------------------
 
 
                                 F,H,F Reference 2
 
 

int_init: setting std/high accuracies to  1.0D-16  1.0D-32
  Basis functions       =    119
  Molecular orbitals    =    119
  Frozen core           =      4
  Frozen virtuals       =      0
  Active alpha occupied =     12
  Active beta occupied  =     12
  Active alpha virtual  =    103
  Active beta virtual   =    103
  Use MO symmetry       = T
  Use skeleton AO sym   = T

  AO/Fock/Back tols     =   1.0D-15  1.0D-15  1.0D-15

 GA uses MA = F    GA memory limited = T

 Available: 
  local mem=  3.77D+08
 global mem=  1.23D+08
 local disk=  0.00D+00

int_init: setting std/high accuracies to  1.0D-16  1.0D-32
  mp2_memr nvloc                     10
  nvloc new                     10
   1 passes of  12:        5242880                      77351                   3690901.
   1 passes of  12: M    376604931           G      122967027           F     371362051.
 
 Semi-direct pass number   1 of   1  for RHF alpha+beta  at       13.8s

int_init: setting std/high accuracies to  1.0D-16  1.0D-32
  vrange nnbf                   7140
  mp2_eaftype                     11  avail_ma_in_mb                   3283
 EAF : mp2_eaftype filesize          11    1468701.
  mp2_eaf for mointskh                      11
Node 0 wrote      6.9 Mb in      0.0 s     Agg I/O rate:  4323.1 Mb/s
 Done moints_semi at       15.0s
  mp2_eaftype                     11  avail_ma_in_mb                   3272
 EAF : mp2_eaftype filesize          11    1468701.
  mp2_eaf for kh                     11
  mp2_eaftype                     10  avail_ma_in_mb                   3272
 EAF : mp2_eaftype filesize          10     296640.
  mp2_eaf for ta tb                     10
  mp2_eaf for ta                      10
  mp2_eaf for tb                      10
 Done maket at       15.1s
 Done pijab at       15.1s
 Done wijab at       15.1s
 Done lai at       15.2s

int_init: setting std/high accuracies to  1.0D-16  1.0D-32
  mp2_eaftype                     12  avail_ma_in_mb                   3252
 EAF : mp2_eaftype filesize          12    1604644.
  mp2_eaf for 2pdm                      12
 Done nonsep at       20.0s
 Done multipass loop at       20.0s


          -------------------------------------------
          SCF energy                -251.781758093190
          Correlation energy          -0.680955191065
          Singlet pairs               -0.412220337589
          Triplet pairs               -0.268734853476
          Total MP2 energy          -252.462713284256
          -------------------------------------------



          ---------------------------------------------------
                    Spin Component Scaled (SCS) MP2
          Same spin pairs                     -0.179156568984
          Same spin scaling factor             0.333333333333
          Opposite spin pairs                 -0.501798622081
          Opposite spin scaling fact.          1.200000000000
          SCS-MP2 correlation energy          -0.661877202825
          Total SCS-MP2 energy              -252.443635296016
          ---------------------------------------------------


int_init: setting std/high accuracies to  1.0D-16  1.0D-32
                                NWChem CPHF Module
                                ------------------
 
 

int_init: setting std/high accuracies to  1.0D-16  1.0D-32
    scftype = RHF 
    nclosed =   16
      nopen =    0
  variables =     1648
  tolerance =   1.0D-06
  max. iter =  999

 Warning: symmetry breaking in RHF:   2.532432414531774E-014
 SCF residual:   7.594811610985937E-011

            ----- linear solve (tol: 1.0E-06 prod-acc: 3.9E-14) -----

               iter nbas    rnorm     rnorm-scal   ratio     time
               ---- ---- ----------- ----------- --------- -------
                  1    1  6.2034E-02  3.9386E-01    0.0000    21.2
                  2    2  1.2383E-02  7.8618E-02    0.1996    21.6
                  3    3  3.0658E-03  1.9465E-02    0.2476    22.1
                  4    4  1.1201E-03  7.1114E-03    0.3653    22.5
                  5    5  3.2440E-04  2.0596E-03    0.2896    23.0
                  6    6  9.3229E-05  5.9191E-04    0.2874    23.4
                  7    7  2.1129E-05  1.3415E-04    0.2266    23.9
                  8    8  5.8105E-06  3.6891E-05    0.2750    24.3
                  9    9  1.6335E-06  1.0371E-05    0.2811    24.8
                 10   10  6.7694E-07  4.2979E-06    0.4144    25.2
                 11   11  1.6665E-07  1.0580E-06    0.2462    25.7
                 12   12  3.9725E-08  2.5221E-07    0.2384    26.1

 CPHF converged to   2.5D-07 in   12 iters


int_init: setting std/high accuracies to  1.0D-16  1.0D-32
                Dipole Moments (a.u.)
                --------------
         Nuclear       SCF       SCF+MP2
       ----------- ----------- -----------
 X      -0.000000   -0.228855   -0.227528
 Y      -0.000000   -0.255924   -0.281414
 Z       0.000000    0.000000    0.000000
 

 MP2 RHF      natural orbital occupation numbers


              1      
    1    2.0000
    2    2.0000
    3    2.0000
    4    2.0000
    5    1.9891
    6    1.9861
    7    1.9805
    8    1.9734
    9    1.9733
   10    1.9680
   11    1.9675
   12    1.9652
   13    1.9634
   14    1.9578
   15    1.9562
   16    1.9341
   17    0.0532
   18    0.0378
   19    0.0279
   20    0.0257
   21    0.0204
   22    0.0171
   23    0.0158
   24    0.0154
   25    0.0152
   26    0.0144
   27    0.0124
   28    0.0101
   29    0.0095
   30    0.0083
   31    0.0078
   32    0.0074
   33    0.0069
   34    0.0063
   35    0.0059
   36    0.0056
   37    0.0056
   38    0.0049
   39    0.0049
   40    0.0046
   41    0.0045
   42    0.0044
   43    0.0044
   44    0.0030
   45    0.0022
   46    0.0019
   47    0.0017
   48    0.0015
   49    0.0014
   50    0.0013
   51    0.0013
   52    0.0013
   53    0.0011
   54    0.0010
   55    0.0008
   56    0.0007
   57    0.0007
   58    0.0006
   59    0.0006
   60    0.0006
   61    0.0006
   62    0.0005
   63    0.0005
   64    0.0005
   65    0.0004
   66    0.0004
   67    0.0004
   68    0.0004
   69    0.0003
   70    0.0003
   71    0.0003
   72    0.0003
   73    0.0003
   74    0.0003
   75    0.0002
   76    0.0002
   77    0.0002
   78    0.0002
   79    0.0002
   80    0.0002
   81    0.0001
   82    0.0001
   83    0.0001
   84    0.0001
   85    0.0001
   86    0.0001
   87    0.0001
   88    0.0001
   89    0.0001
   90    0.0001
   91    0.0001
   92    0.0000
   93    0.0000
   94    0.0000
   95    0.0000
   96    0.0000
   97    0.0000
   98    0.0000
   99    0.0000
  100    0.0000
  101    0.0000
  102    0.0000
  103    0.0000
  104    0.0000
  105    0.0000
  106    0.0000
  107    0.0000
  108    0.0000
  109    0.0000
  110    0.0000
  111    0.0000
  112   -0.0000
  113   -0.0000
  114   -0.0000
  115   -0.0000
  116   -0.0001
  117   -0.0001
  118   -0.0001
  119   -0.0003
 
  MP2 natural orbitals output to ./13R2_.mp2nos
 

int_init: setting std/high accuracies to  1.0D-16  1.0D-32
  Using symmetry

int_init: setting std/high accuracies to  1.0D-16  1.0D-32


                         mp2 ENERGY GRADIENTS

    atom               coordinates                        gradient
                 x          y          z           x          y          z
   1 O      -2.436838  -0.458311   0.000000    0.013042   0.036437   0.000000
   2 C      -0.001552   0.155481   0.000000   -0.031035  -0.027514   0.000000
   3 C       0.894315   2.570359   0.000000    0.015053   0.019600   0.000000
   4 H      -2.477938  -2.336249   0.000000    0.004984  -0.020582   0.000000
   5 F       1.578891  -1.930736   0.000000    0.010066  -0.011632   0.000000
   6 H       2.902636   2.911710   0.000000   -0.006123  -0.001539   0.000000
   7 H      -0.496587   4.112607   0.000000   -0.005988   0.005230   0.000000
 
                 ----------------------------------------
                 |  Time  |  1-e(secs)   |  2-e(secs)   |
                 ----------------------------------------
                 |  CPU   |       0.00   |       2.60   |
                 ----------------------------------------
                 |  WALL  |       0.00   |       2.60   |
                 ----------------------------------------
 -----------------------
 Performance information
 -----------------------

 Timer overhead =  2.00D-07 seconds/call

               Nr. of calls         CPU time (s)                 Wall time (s)                GFlops
             ---------------    -------------------     ------------------------------   -------------------
Name         Min   Avg   Max    Min     Avg     Max     Min     Avg     Max   Mx/calls   Min     Max     Sum
mp2: moin     1     1     1    1.1     1.1     1.2      1.2     1.2     1.2     1.2      0.0     0.0     0.0   
mp2: make     1     1     1   6.60E-2 6.80E-2 7.00E-2  7.03E-2 7.05E-2 7.07E-2 7.07E-2   0.0     0.0     0.0   
mp2: pija     1     1     1   6.00E-3 6.54E-3 7.00E-3  6.92E-3 6.93E-3 7.07E-3 7.07E-3   0.0     0.0     0.0   
mp2: wija     1     1     1   6.00E-3 7.27E-3 8.00E-3  7.54E-3 7.54E-3 7.54E-3 7.54E-3   0.0     0.0     0.0   
mp2: lai      1     1     1   0.17    0.17    0.18     0.17    0.17    0.17    0.17      0.0     0.0     0.0   
mp2: back     1     1     1   0.10    0.10    0.11     0.11    0.11    0.11    0.11      0.0     0.0     0.0   
mp2: nons     1     1     1    3.7     4.2     4.7      3.7     4.2     4.7     4.7      0.0     0.0     0.0   
mp2: laif     1     1     1   0.49    0.49    0.49     0.50    0.50    0.50    0.50      0.0     0.0     0.0   
mp2: cphf     1     1     1    5.9     5.9     5.9      6.0     6.0     6.0     6.0      0.0     0.0     0.0   
mp2: wijf     1     1     1   0.49    0.49    0.49     0.50    0.50    0.50    0.50      0.0     0.0     0.0   
mp2: sep      1     1     1    2.6     2.6     2.6      2.6     2.6     2.6     2.6      0.0     0.0     0.0   
mp2: tota     1     1     1    16.     16.     16.      16.     16.     16.     16.      0.0     0.0     0.0   

 The average no. of pstat calls per process was 1.20D+01
 with a timing overhead of 2.40D-06s


@ Step       Energy      Delta E   Gmax     Grms     Xrms     Xmax   Walltime
@ ---- ---------------- -------- -------- -------- -------- -------- --------
@    0    -252.46271328  0.0D+00  0.02286  0.01111  0.00000  0.00000     29.7
                                                                    



                                Z-matrix (user)
                                -------- 

 Units are Angstrom for bonds and degrees for angles

  Constants are marked with an asterisk (*).

  Constrained variables are marked with a plus sign (+).

 
      Type          Name      I     J     K     L     M      Value     Gradient
      ----------- --------  ----- ----- ----- ----- ----- ---------- ----------
    1 Stretch      R1          2     1                       1.32900   -0.02135
    2 Stretch      R2          3     2                       1.36300    0.02286
    3 Bend         A1          3     2     1               124.50000   -0.00918
    4 Stretch      R5          4     1                       0.99400    0.02047
    5 Bend         A4          4     1     2               105.40000   -0.00540
    6*Torsion      D180        4     1     2     3         180.00000    0.00000
    7 Stretch      R6          5     2                       1.38500    0.01535
    8 Bend         A5          5     2     3               122.50000   -0.00139
    9*Torsion      D180        5     2     3     4         180.00000   -0.00000
   10 Stretch      R7          6     3                       1.07800   -0.00629
   11 Bend         A6          6     3     2               120.00000   -0.00053
   12*Torsion      D180        6     3     2     1         180.00000   -0.00000
   13 Stretch      R8          7     3                       1.09900    0.00789
   14 Bend         A7          7     3     2               117.60000   -0.00104
   15*Torsion      D0          7     3     2     1           0.00000   -0.00000
 
                                 NWChem SCF Module
                                 -----------------
 
 
                                 F,H,F Reference 2
 
 

  ao basis        = "ao basis"
  functions       =   119
  atoms           =     7
  closed shells   =    16
  open shells     =     0
  charge          =   0.00
  wavefunction    = RHF 
  input vectors   = ./13R2_.movecs
  output vectors  = ./13R2_.movecs
  use symmetry    = T
  symmetry adapt  = T


 Summary of "ao basis" -> "ao basis" (spherical)
 ------------------------------------------------------------------------------
       Tag                 Description            Shells   Functions and Types
 ---------------- ------------------------------  ------  ---------------------
 O                        aug-cc-pVDZ                9       23   4s3p2d
 C                        aug-cc-pVDZ                9       23   4s3p2d
 H                        aug-cc-pVDZ                5        9   3s2p
 F                        aug-cc-pVDZ                9       23   4s3p2d


      Symmetry analysis of basis
      --------------------------
 
        a'         85
        a"         34
 

int_init: setting std/high accuracies to  1.0D-16  1.0D-32

 Forming initial guess at      29.8s


 Forcing the number of linearly dependent vectors to be  0

 Loading old vectors from job with title :

F,H,F Reference 2

 
      Symmetry analysis of molecular orbitals - initial
      -------------------------------------------------
 
  Numbering of irreducible representations: 
 
     1 a'          2 a"      
 
  Orbital symmetries:
 
     1 a'          2 a'          3 a'          4 a'          5 a'      
     6 a'          7 a'          8 a'          9 a'         10 a'      
    11 a"         12 a'         13 a'         14 a"         15 a'      
    16 a"         17 a'         18 a'         19 a'         20 a'      
    21 a"         22 a"         23 a'         24 a'         25 a'      
    26 a'      
 

 Starting SCF solution at      29.8s



 ----------------------------------------------
         Quadratically convergent ROHF

 Convergence threshold     :          1.000E-09
 Maximum no. of iterations :           99
 Final Fock-matrix accuracy:          1.000E-15
 ----------------------------------------------

 Warning: symmetry breaking in RHF:   2.393758694823818E-014

              iter       energy          gnorm     gmax       time
             ----- ------------------- --------- --------- --------
                 1     -251.7843236665  2.18D-01  4.68D-02     29.8
 Warning: symmetry breaking in RHF:   2.331584000707785E-014
                 2     -251.7876306706  9.87D-03  1.74D-03     31.2
 Warning: symmetry breaking in RHF:   2.330019906399214E-014
                 3     -251.7876415447  4.14D-05  7.68D-06     33.8
 Warning: symmetry breaking in RHF:   2.330058227772483E-014
                 4     -251.7876415449  1.03D-09  1.83D-10     38.3
 Warning: symmetry breaking in RHF:   2.334061450598234E-014
                 5     -251.7876415449  3.66D-11  7.63D-12     40.0


       Final RHF  results 
       ------------------ 

         Total SCF energy =   -251.787641544887
      One-electron energy =   -581.598101927956
      Two-electron energy =    211.206775223951
 Nuclear repulsion energy =    118.603685159118

        Time for solution =     10.7s


 
       Symmetry analysis of molecular orbitals - final
       -----------------------------------------------
 
  Numbering of irreducible representations: 
 
     1 a'          2 a"      
 
  Orbital symmetries:
 
     1 a'          2 a'          3 a'          4 a'          5 a'      
     6 a'          7 a'          8 a'          9 a'         10 a'      
    11 a"         12 a'         13 a'         14 a"         15 a'      
    16 a"         17 a'         18 a'         19 a'         20 a'      
    21 a"         22 a"         23 a'         24 a'         25 a'      
    26 a'      
 
             Final eigenvalues
             -----------------

              1      
    1  -26.3436
    2  -20.6278
    3  -11.4099
    4  -11.2382
    5   -1.6569
    6   -1.4327
    7   -1.0476
    8   -0.8454
    9   -0.7875
   10   -0.7278
   11   -0.7199
   12   -0.6277
   13   -0.5970
   14   -0.5873
   15   -0.5810
   16   -0.3620
   17    0.0351
   18    0.0484
   19    0.0566
   20    0.0984
   21    0.1085
   22    0.1211
   23    0.1213
   24    0.1452
   25    0.1708
   26    0.1860
 
                       ROHF Final Molecular Orbital Analysis
                       -------------------------------------
 
 Vector    6  Occ=2.000000D+00  E=-1.432747D+00  Symmetry=a'
              MO Center= -1.0D+00, -3.8D-01, -1.0D-31, r^2= 7.2D-01
   Bfn.  Coefficient  Atom+Function         Bfn.  Coefficient  Atom+Function  
  ----- ------------  ---------------      ----- ------------  ---------------
     3      0.455944  1 O  s                  2      0.417427  1 O  s          
    70      0.190710  4 H  s          
 
 Vector    7  Occ=2.000000D+00  E=-1.047561D+00  Symmetry=a'
              MO Center=  1.9D-01,  6.4D-01,  1.9D-17, r^2= 1.4D+00
   Bfn.  Coefficient  Atom+Function         Bfn.  Coefficient  Atom+Function  
  ----- ------------  ---------------      ----- ------------  ---------------
    48      0.298963  3 C  s                 25      0.278148  2 C  s          
    29      0.169635  2 C  py         
 
 Vector    8  Occ=2.000000D+00  E=-8.453626D-01  Symmetry=a'
              MO Center=  1.1D-01, -1.4D-01,  9.3D-18, r^2= 2.5D+00
   Bfn.  Coefficient  Atom+Function         Bfn.  Coefficient  Atom+Function  
  ----- ------------  ---------------      ----- ------------  ---------------
    27      0.422548  2 C  s                 50     -0.361396  3 C  s          
    26     -0.320971  2 C  s                 49      0.298903  3 C  s          
    83      0.284377  5 F  px                 5     -0.229247  1 O  px         
    84     -0.225234  5 F  py                29      0.216503  2 C  py         
    25     -0.189134  2 C  s                 86      0.184134  5 F  px         
 
 Vector    9  Occ=2.000000D+00  E=-7.874691D-01  Symmetry=a'
              MO Center= -3.8D-01, -4.4D-01, -1.4D-33, r^2= 1.8D+00
   Bfn.  Coefficient  Atom+Function         Bfn.  Coefficient  Atom+Function  
  ----- ------------  ---------------      ----- ------------  ---------------
     6      0.356067  1 O  py                84     -0.291016  5 F  py         
    70     -0.285099  4 H  s                 28     -0.273818  2 C  px         
    87     -0.188649  5 F  py                 9      0.168763  1 O  py         
 
 Vector   10  Occ=2.000000D+00  E=-7.278022D-01  Symmetry=a'
              MO Center=  3.8D-01, -2.5D-01,  3.8D-18, r^2= 2.3D+00
   Bfn.  Coefficient  Atom+Function         Bfn.  Coefficient  Atom+Function  
  ----- ------------  ---------------      ----- ------------  ---------------
    83      0.393747  5 F  px                84      0.326113  5 F  py         
    86      0.271288  5 F  px                87      0.235698  5 F  py         
    27     -0.234139  2 C  s                 50      0.207827  3 C  s          
    52     -0.165877  3 C  py                 3      0.159673  1 O  s          
   111     -0.158503  7 H  s          
 
 Vector   11  Occ=2.000000D+00  E=-7.198970D-01  Symmetry=a"
              MO Center=  5.4D-01, -7.8D-01,  2.1D-17, r^2= 9.9D-01
   Bfn.  Coefficient  Atom+Function         Bfn.  Coefficient  Atom+Function  
  ----- ------------  ---------------      ----- ------------  ---------------
    85      0.585763  5 F  pz                88      0.400225  5 F  pz         
    30      0.187677  2 C  pz                 7      0.159371  1 O  pz         
 
 Vector   12  Occ=2.000000D+00  E=-6.277151D-01  Symmetry=a'
              MO Center=  3.1D-01,  6.8D-01,  4.6D-17, r^2= 2.4D+00
   Bfn.  Coefficient  Atom+Function         Bfn.  Coefficient  Atom+Function  
  ----- ------------  ---------------      ----- ------------  ---------------
    52      0.323125  3 C  py                29     -0.288243  2 C  py         
    84      0.256298  5 F  py               102      0.228654  6 H  s          
     6      0.211139  1 O  py                26     -0.200838  2 C  s          
   103      0.189930  6 H  s                 51      0.181779  3 C  px         
    87      0.176641  5 F  py                70     -0.168516  4 H  s          
 
 Vector   13  Occ=2.000000D+00  E=-5.969921D-01  Symmetry=a'
              MO Center= -6.9D-01, -4.3D-01, -2.5D-16, r^2= 1.8D+00
   Bfn.  Coefficient  Atom+Function         Bfn.  Coefficient  Atom+Function  
  ----- ------------  ---------------      ----- ------------  ---------------
     5      0.426823  1 O  px                83      0.377018  5 F  px         
     8      0.284472  1 O  px                86      0.270660  5 F  px         
     6     -0.256805  1 O  py                 3     -0.188432  1 O  s          
    28     -0.175082  2 C  px                 9     -0.164831  1 O  py         
 
 Vector   14  Occ=2.000000D+00  E=-5.873105D-01  Symmetry=a"
              MO Center= -8.6D-01, -3.5D-01,  2.0D-16, r^2= 1.3D+00
   Bfn.  Coefficient  Atom+Function         Bfn.  Coefficient  Atom+Function  
  ----- ------------  ---------------      ----- ------------  ---------------
     7      0.550369  1 O  pz                10      0.406641  1 O  pz         
    85     -0.271503  5 F  pz                88     -0.196209  5 F  pz         
    30      0.161506  2 C  pz         
 
 Vector   15  Occ=2.000000D+00  E=-5.810479D-01  Symmetry=a'
              MO Center=  4.9D-01,  1.4D+00,  5.1D-18, r^2= 1.7D+00
   Bfn.  Coefficient  Atom+Function         Bfn.  Coefficient  Atom+Function  
  ----- ------------  ---------------      ----- ------------  ---------------
    51      0.377878  3 C  px               111     -0.340744  7 H  s          
   102      0.303261  6 H  s                112     -0.295181  7 H  s          
   103      0.287609  6 H  s                 52     -0.183553  3 C  py         
    84     -0.172841  5 F  py         
 
 Vector   16  Occ=2.000000D+00  E=-3.619530D-01  Symmetry=a"
              MO Center=  1.5D-01,  7.4D-01,  1.5D-16, r^2= 1.9D+00
   Bfn.  Coefficient  Atom+Function         Bfn.  Coefficient  Atom+Function  
  ----- ------------  ---------------      ----- ------------  ---------------
    53      0.416815  3 C  pz                30      0.332683  2 C  pz         
    56      0.287638  3 C  pz                 7     -0.247583  1 O  pz         
    33      0.222844  2 C  pz                10     -0.199071  1 O  pz         
 
 Vector   17  Occ=0.000000D+00  E= 3.508686D-02  Symmetry=a'
              MO Center= -1.4D+00, -1.4D+00,  3.6D-17, r^2= 1.6D+01
   Bfn.  Coefficient  Atom+Function         Bfn.  Coefficient  Atom+Function  
  ----- ------------  ---------------      ----- ------------  ---------------
    50      3.785978  3 C  s                 72     -2.604694  4 H  s          
    35     -1.464253  2 C  py                34     -1.355715  2 C  px         
    49      0.709326  3 C  s                  4     -0.622747  1 O  s          
   104     -0.604825  6 H  s                103     -0.531125  6 H  s          
    11     -0.455411  1 O  px                58     -0.392874  3 C  py         
 
 Vector   18  Occ=0.000000D+00  E= 4.835228D-02  Symmetry=a'
              MO Center=  8.3D-01,  1.2D+00,  8.2D-17, r^2= 2.2D+01
   Bfn.  Coefficient  Atom+Function         Bfn.  Coefficient  Atom+Function  
  ----- ------------  ---------------      ----- ------------  ---------------
   104      2.588123  6 H  s                 72     -2.003055  4 H  s          
    27     -1.914440  2 C  s                 35     -1.374572  2 C  py         
   113      1.223970  7 H  s                 58     -0.981356  3 C  py         
    34     -0.941483  2 C  px               103      0.676700  6 H  s          
    57     -0.659332  3 C  px               112      0.590104  7 H  s          
 
 Vector   19  Occ=0.000000D+00  E= 5.663897D-02  Symmetry=a'
              MO Center=  2.7D-01,  2.5D+00,  2.9D-18, r^2= 2.0D+01
   Bfn.  Coefficient  Atom+Function         Bfn.  Coefficient  Atom+Function  
  ----- ------------  ---------------      ----- ------------  ---------------
   113      5.480191  7 H  s                104     -4.940724  6 H  s          
    57      3.365163  3 C  px               112      1.364331  7 H  s          
    50     -1.132384  3 C  s                 34     -1.117296  2 C  px         
    58     -1.066152  3 C  py                27      0.928358  2 C  s          
   103     -0.912500  6 H  s                 54      0.474278  3 C  px         
 
 Vector   20  Occ=0.000000D+00  E= 9.835972D-02  Symmetry=a'
              MO Center=  4.6D-01,  4.6D-02, -4.4D-17, r^2= 1.9D+01
   Bfn.  Coefficient  Atom+Function         Bfn.  Coefficient  Atom+Function  
  ----- ------------  ---------------      ----- ------------  ---------------
    27     21.324779  2 C  s                 50    -20.701883  3 C  s          
    35      7.889284  2 C  py                58      6.118235  3 C  py         
    72      2.913756  4 H  s                113     -2.829795  7 H  s          
    57      2.281178  3 C  px                34      2.252120  2 C  px         
     4     -1.057078  1 O  s                103      1.042499  6 H  s          
 
 Vector   21  Occ=0.000000D+00  E= 1.084553D-01  Symmetry=a"
              MO Center=  3.5D-01,  8.6D-01,  7.1D-15, r^2= 1.1D+01
   Bfn.  Coefficient  Atom+Function         Bfn.  Coefficient  Atom+Function  
  ----- ------------  ---------------      ----- ------------  ---------------
    36      0.967524  2 C  pz                59      0.517810  3 C  pz         
    13     -0.317198  1 O  pz                33     -0.258796  2 C  pz         
    91     -0.221907  5 F  pz                30     -0.204829  2 C  pz         
 
 Vector   22  Occ=0.000000D+00  E= 1.211320D-01  Symmetry=a"
              MO Center=  2.8D-01,  5.7D-01,  6.2D-17, r^2= 1.4D+01
   Bfn.  Coefficient  Atom+Function         Bfn.  Coefficient  Atom+Function  
  ----- ------------  ---------------      ----- ------------  ---------------
    36      3.250475  2 C  pz                59     -2.497384  3 C  pz         
    13     -0.694080  1 O  pz                91     -0.457102  5 F  pz         
    33      0.231217  2 C  pz                56     -0.161731  3 C  pz         
 
 Vector   23  Occ=0.000000D+00  E= 1.212555D-01  Symmetry=a'
              MO Center= -3.1D-01,  1.1D+00,  1.8D-15, r^2= 1.6D+01
   Bfn.  Coefficient  Atom+Function         Bfn.  Coefficient  Atom+Function  
  ----- ------------  ---------------      ----- ------------  ---------------
    27      4.214158  2 C  s                 58      3.654553  3 C  py         
    50     -3.415750  3 C  s                 34      3.206563  2 C  px         
     4      2.343672  1 O  s                104     -1.420706  6 H  s          
    26      1.092872  2 C  s                 82     -1.074913  5 F  s          
    72      1.055104  4 H  s                 55      1.020893  3 C  py         
 
 Vector   24  Occ=0.000000D+00  E= 1.451864D-01  Symmetry=a'
              MO Center= -5.2D-01, -6.0D-01, -4.0D-16, r^2= 1.7D+01
   Bfn.  Coefficient  Atom+Function         Bfn.  Coefficient  Atom+Function  
  ----- ------------  ---------------      ----- ------------  ---------------
    50      6.980819  3 C  s                  4     -5.008208  1 O  s          
    34     -5.009105  2 C  px                35     -4.698227  2 C  py         
    72     -3.710031  4 H  s                 27      3.274992  2 C  s          
    57      1.596993  3 C  px               103     -1.208577  6 H  s          
    71      1.043054  4 H  s                112     -1.022502  7 H  s          
 
 Vector   25  Occ=0.000000D+00  E= 1.707963D-01  Symmetry=a'
              MO Center=  5.5D-01,  6.8D-01, -5.7D-16, r^2= 1.4D+01
   Bfn.  Coefficient  Atom+Function         Bfn.  Coefficient  Atom+Function  
  ----- ------------  ---------------      ----- ------------  ---------------
    27     20.845690  2 C  s                 50    -13.918246  3 C  s          
    35      7.465909  2 C  py                58      4.795675  3 C  py         
    34      4.704436  2 C  px               104     -3.071237  6 H  s          
   113     -2.620463  7 H  s                 72      2.440751  4 H  s          
    82     -2.217134  5 F  s                103     -1.538338  6 H  s          
 
 Vector   26  Occ=0.000000D+00  E= 1.859543D-01  Symmetry=a'
              MO Center=  5.6D-01,  2.1D+00, -3.4D-16, r^2= 1.5D+01
   Bfn.  Coefficient  Atom+Function         Bfn.  Coefficient  Atom+Function  
  ----- ------------  ---------------      ----- ------------  ---------------
   113      7.245725  7 H  s                 57      6.658706  3 C  px         
   104     -6.392052  6 H  s                 27     -4.410457  2 C  s          
    50      3.705932  3 C  s                 58     -3.432902  3 C  py         
   112      3.343161  7 H  s                103     -3.172874  6 H  s          
    34     -2.664240  2 C  px                 4      1.217312  1 O  s          
 
 Vector   27  Occ=0.000000D+00  E= 2.063686D-01  Symmetry=a"
              MO Center=  1.0D-01,  8.1D-01,  4.0D-15, r^2= 5.6D+00
   Bfn.  Coefficient  Atom+Function         Bfn.  Coefficient  Atom+Function  
  ----- ------------  ---------------      ----- ------------  ---------------
    59      1.073261  3 C  pz                13     -0.569878  1 O  pz         
    33      0.491293  2 C  pz                30      0.422769  2 C  pz         
    36     -0.386806  2 C  pz                53     -0.334646  3 C  pz         
    56     -0.248687  3 C  pz               110     -0.239962  6 H  pz         
   119     -0.224222  7 H  pz                43     -0.162852  2 C  d -1       
 
 Vector   28  Occ=0.000000D+00  E= 2.087963D-01  Symmetry=a'
              MO Center= -5.5D-01,  1.9D-01, -4.7D-15, r^2= 1.3D+01
   Bfn.  Coefficient  Atom+Function         Bfn.  Coefficient  Atom+Function  
  ----- ------------  ---------------      ----- ------------  ---------------
    27     29.378732  2 C  s                 50    -24.387189  3 C  s          
[...]
   13   -3.33056D+00  2.33090D+00  0.00000D+00 -9.56582D+00  6.19574D+00  0.00000D+00  3.05215D-01  1.37536D-01  0.00000D+00  5.59414D-01
   14    8.00055D-01  4.85384D-01  0.00000D+00  5.65758D+00 -1.46282D+01  0.00000D+00  2.88617D+00 -2.84700D+00  0.00000D+00  5.74234D-01
   15    0.00000D+00  0.00000D+00  5.20596D-01  0.00000D+00  0.00000D+00 -2.93072D+00  0.00000D+00  0.00000D+00  5.76090D-01  0.00000D+00
   16    5.82909D-01 -2.94962D-01  0.00000D+00 -2.45902D+00  1.57457D+00  0.00000D+00 -1.04020D+02 -1.55751D+01  0.00000D+00 -2.43943D-01
   17   -1.85274D-01 -1.49692D+00  0.00000D+00 -8.31264D+00 -3.43012D-01  0.00000D+00 -1.29419D+01 -1.73675D+01  0.00000D+00 -1.53891D+00
   18    0.00000D+00  0.00000D+00  1.43502D+00  0.00000D+00  0.00000D+00 -6.32620D-02  0.00000D+00  0.00000D+00 -5.80680D+00  0.00000D+00
   19   -1.39133D-01  1.16043D-02  0.00000D+00  1.75593D+00 -2.91955D+00  0.00000D+00 -5.35140D+01  4.58093D+01  0.00000D+00  2.59488D-01
   20    7.85935D-02  4.64614D-01  0.00000D+00  6.50258D+00 -4.15551D+00  0.00000D+00  4.33831D+01 -6.75616D+01  0.00000D+00  2.66519D-01
   21    0.00000D+00  0.00000D+00 -4.69610D-01  0.00000D+00  0.00000D+00 -9.70693D-01  0.00000D+00  0.00000D+00 -6.51492D+00  0.00000D+00


              11           12           13           14           15           16           17           18           19           20
   ----- ----- ----- ----- -----
   11    5.16274D+02
   12    0.00000D+00  1.55980D+00
   13    1.65168D+00  0.00000D+00  1.01475D+01
   14   -1.53187D-01  0.00000D+00 -7.46198D+00  1.36278D+01
   15    0.00000D+00 -3.10879D-01  0.00000D+00  0.00000D+00  1.19288D+00
   16    2.45957D-01  0.00000D+00  2.27231D-01  2.72339D-01  0.00000D+00  3.72308D+02
   17   -7.34718D-02  0.00000D+00  7.48988D-02  4.93909D-01  0.00000D+00  5.47205D+01  5.67047D+01
   18    0.00000D+00  3.55173D+00  0.00000D+00  0.00000D+00 -1.50460D+00  0.00000D+00  0.00000D+00  1.75073D+01
   19    2.55621D-01  0.00000D+00  3.78608D-01 -1.11702D+00  0.00000D+00 -7.95286D+00  2.05727D+01  0.00000D+00  1.85202D+02
   20    4.10620D-01  0.00000D+00 -4.68071D-01 -1.14271D+00  0.00000D+00 -6.66315D+00  8.30029D+00  0.00000D+00 -1.64021D+02  2.41868D+02
   21    0.00000D+00 -1.96938D+00  0.00000D+00  0.00000D+00  2.68731D+00  0.00000D+00  0.00000D+00  1.21923D-02  0.00000D+00  0.00000D+00


              21
   ----- ----- ----- ----- -----
   21    1.79905D+01

 center of mass
 --------------
 x =   0.02306287 y =  -0.09568189 z =   0.00000000

 moments of inertia (a.u.)
 ------------------
         179.255605109589          -4.611074437394           0.000000000000
          -4.611074437394         167.997214268644           0.000000000000
           0.000000000000           0.000000000000         347.252819378232

 Rotational Constants
 --------------------
 A=   0.361889 cm-1  (  0.520666 K)
 B=   0.332776 cm-1  (  0.478780 K)
 C=   0.173361 cm-1  (  0.249423 K)


 Temperature                      =   298.15K
 frequency scaling parameter      =   1.0000

 Zero-Point correction to Energy  =   30.238 kcal/mol  (  0.048188 au)
 Thermal correction to Energy     =   33.066 kcal/mol  (  0.052695 au)
 Thermal correction to Enthalpy   =   33.659 kcal/mol  (  0.053638 au)

 Total Entropy                    =   68.082 cal/mol-K
   - Translational                =   38.277 cal/mol-K (mol. weight =  62.0168)
   - Rotational                   =   23.851 cal/mol-K (symmetry #  =        1)
   - Vibrational                  =    5.955 cal/mol-K

 Cv (constant volume heat capacity) =   14.389 cal/mol-K
   - Translational                  =    2.979 cal/mol-K
   - Rotational                     =    2.979 cal/mol-K
   - Vibrational                    =    8.430 cal/mol-K



          -------------------------------------------------
          NORMAL MODE EIGENVECTORS IN CARTESIAN COORDINATES
          -------------------------------------------------
             (Projected Frequencies expressed in cm-1)

                    1           2           3           4           5           6
 
 P.Frequency       -0.00       -0.00       -0.00       -0.00        0.00        0.00
 
           1     0.00000     0.12840     0.00000     0.00000     0.00793    -0.01005
           2     0.00000    -0.01175     0.00000     0.00000     0.03410     0.18014
           3     0.01067     0.00000     0.23017    -0.01373     0.00000     0.00000
           4     0.00000     0.12537     0.00000     0.00000    -0.01278     0.02170
           5     0.00000    -0.00123     0.00000     0.00000     0.10585     0.07014
           6     0.09186     0.00000     0.06807     0.05914     0.00000     0.00000
           7     0.00000     0.11520     0.00000     0.00000    -0.08220     0.12813
           8     0.00000     0.00253     0.00000     0.00000     0.13150     0.03082
           9     0.24221     0.00000    -0.01984    -0.01241     0.00000     0.00000
          10     0.00000     0.13624     0.00000     0.00000     0.06143    -0.09205
          11     0.00000    -0.01200     0.00000     0.00000     0.03240     0.18274
          12    -0.09493     0.00000     0.25962     0.06794     0.00000     0.00000
          13     0.00000     0.13410     0.00000     0.00000     0.04679    -0.06961
          14     0.00000     0.00552     0.00000     0.00000     0.15196    -0.00054
          15     0.00147     0.00000    -0.00086     0.22062     0.00000     0.00000
          16     0.00000     0.11380     0.00000     0.00000    -0.09175     0.14276
          17     0.00000     0.01121     0.00000     0.00000     0.19075    -0.06001
          18     0.29446     0.00000    -0.15004     0.05966     0.00000     0.00000
          19     0.00000     0.10851     0.00000     0.00000    -0.12783     0.19808
          20     0.00000    -0.00320     0.00000     0.00000     0.09244     0.09069
          21     0.30933     0.00000     0.04089    -0.14161     0.00000     0.00000

                    7           8           9          10          11          12
 
 P.Frequency      113.07      429.69      520.41      622.87      713.41      772.73
 
           1     0.00000     0.04812    -0.09936     0.00000     0.00000     0.00000
           2     0.00000     0.09922     0.08933     0.00000     0.00000     0.00000
           3    -0.07472     0.00000     0.00000    -0.05883     0.01377    -0.00260
           4     0.00000     0.08432    -0.02989     0.00000     0.00000     0.00000
           5     0.00000    -0.03528    -0.07810     0.00000     0.00000     0.00000
           6     0.01646     0.00000     0.00000     0.25381     0.03016     0.03413
           7     0.00000    -0.10667    -0.02254     0.00000     0.00000     0.00000
           8     0.00000     0.03449    -0.09649     0.00000     0.00000     0.00000
           9     0.02749     0.00000     0.00000    -0.06146    -0.00821    -0.13971
          10     0.00000    -0.09589    -0.31962     0.00000     0.00000     0.00000
          11     0.00000     0.10578     0.09636     0.00000     0.00000     0.00000
          12     0.92068     0.00000     0.00000    -0.13869     0.20932     0.02237
          13     0.00000     0.00735     0.13419     0.00000     0.00000     0.00000
          14     0.00000    -0.09849     0.04133     0.00000     0.00000     0.00000
          15    -0.01388     0.00000     0.00000    -0.04648    -0.03996     0.00314
          16     0.00000    -0.16508    -0.01588     0.00000     0.00000     0.00000
          17     0.00000     0.37630    -0.14135     0.00000     0.00000     0.00000
          18    -0.13986     0.00000     0.00000    -0.22989     0.70341     0.55880
          19     0.00000    -0.37502     0.00711     0.00000     0.00000     0.00000
          20     0.00000    -0.19079    -0.07316     0.00000     0.00000     0.00000
          21     0.14338     0.00000     0.00000    -0.11174    -0.63945     0.65795

                   13          14          15          16          17          18
 
 P.Frequency      893.26      959.05     1193.78     1341.38     1413.15     1777.98
 
           1    -0.09666    -0.11324    -0.00779     0.10428     0.01207     0.02024
           2    -0.02129    -0.04414    -0.05855    -0.01439     0.02291     0.02813
           3     0.00000     0.00000     0.00000     0.00000     0.00000     0.00000
           4    -0.02958     0.02505     0.11140    -0.18888    -0.03797    -0.08907
           5     0.06798     0.00856    -0.06982     0.05685    -0.06779    -0.20587
           6     0.00000     0.00000     0.00000     0.00000     0.00000     0.00000
           7     0.00170     0.14175     0.00328     0.05303    -0.02379     0.05400
           8     0.13653     0.00067     0.07726    -0.00554    -0.06411     0.14470
           9     0.00000     0.00000     0.00000     0.00000     0.00000     0.00000
          10     0.03369     0.03969    -0.73050    -0.48097     0.20054     0.19813
          11    -0.03133    -0.05547    -0.02081     0.02355     0.01115     0.01227
          12     0.00000     0.00000     0.00000     0.00000     0.00000     0.00000
          13     0.08645    -0.00074    -0.03687     0.02658    -0.00125    -0.00386
          14    -0.12472     0.02212     0.02981    -0.02754     0.00960     0.01798
          15     0.00000     0.00000     0.00000     0.00000     0.00000     0.00000
          16     0.03228     0.04827     0.01544     0.01194    -0.13368     0.12198
          17    -0.00303     0.56099     0.07901     0.21207     0.62728    -0.08060
          18     0.00000     0.00000     0.00000     0.00000     0.00000     0.00000
          19     0.17024    -0.26290     0.16827    -0.06940     0.50047    -0.15093
          20     0.28822    -0.33189     0.22057    -0.09904     0.38743     0.01136
          21     0.00000     0.00000     0.00000     0.00000     0.00000     0.00000

                   19          20          21
 
 P.Frequency     3239.95     3361.41     3809.86
 
           1     0.00029     0.00049     0.00488
           2    -0.00020     0.00033     0.05994
           3     0.00000     0.00000     0.00000
           4     0.00345    -0.00192    -0.00068
           5     0.00898     0.00106     0.00199
           6     0.00000     0.00000     0.00000
           7    -0.02010    -0.09053    -0.00046
           8    -0.06269     0.03105    -0.00087
           9     0.00000     0.00000     0.00000
          10    -0.00227     0.00074    -0.05400
          11     0.00092     0.00001    -0.96532
          12     0.00000     0.00000     0.00000
          13    -0.00015     0.00031    -0.00046
          14     0.00010    -0.00053     0.00007
          15     0.00000     0.00000     0.00000
          16     0.65703     0.67438    -0.00037
          17     0.10430     0.11728    -0.00032
          18     0.00000     0.00000     0.00000
          19    -0.45836     0.41185    -0.00083
          20     0.53559    -0.49491    -0.00023
          21     0.00000     0.00000     0.00000



 ----------------------------------------------------------------------------
 Normal Eigenvalue ||    Projected Derivative Dipole Moments (debye/angs)
  Mode   [cm**-1]  ||      [d/dqX]             [d/dqY]           [d/dqZ]
 ------ ---------- || ------------------ ------------------ -----------------
    1       -0.000 ||       0.000               0.000            -0.082
    2       -0.000 ||       0.005              -0.003             0.000
    3       -0.000 ||       0.000               0.000             0.064
    4       -0.000 ||       0.000               0.000             0.023
    5        0.000 ||       0.035              -0.022             0.000
    6        0.000 ||      -0.054               0.034             0.000
    7      113.066 ||       0.000               0.000             1.581
    8      429.694 ||      -0.088              -0.003             0.000
    9      520.414 ||      -0.583              -0.327             0.000
   10      622.865 ||       0.000               0.000            -0.196
   11      713.409 ||       0.000               0.000             0.489
   12      772.731 ||       0.000               0.000             1.364
   13      893.257 ||      -0.033               1.299             0.000
   14      959.050 ||       0.834               0.344             0.000
   15     1193.785 ||      -0.077              -0.691             0.000
   16     1341.379 ||      -2.736              -0.069             0.000
   17     1413.152 ||       0.105              -0.095             0.000
   18     1777.981 ||      -0.878              -2.371             0.000
   19     3239.947 ||       0.161               0.336             0.000
   20     3361.414 ||       0.057               0.006             0.000
   21     3809.863 ||      -0.651              -1.671             0.000
 ----------------------------------------------------------------------------



  
  
 ----------------------------------------------------------------------------
 Normal Eigenvalue ||           Projected Infra Red Intensities
  Mode   [cm**-1]  || [atomic units] [(debye/angs)**2] [(KM/mol)] [arbitrary]
 ------ ---------- || -------------- ----------------- ---------- -----------
    1       -0.000 ||    0.000289           0.007         0.282       0.055
    2       -0.000 ||    0.000002           0.000         0.002       0.000
    3       -0.000 ||    0.000178           0.004         0.173       0.034
    4       -0.000 ||    0.000023           0.001         0.022       0.004
    5        0.000 ||    0.000075           0.002         0.073       0.014
    6        0.000 ||    0.000177           0.004         0.173       0.034
    7      113.066 ||    0.108388           2.501       105.662      20.706
    8      429.694 ||    0.000336           0.008         0.328       0.064
    9      520.414 ||    0.019370           0.447        18.883       3.700
   10      622.865 ||    0.001668           0.038         1.626       0.319
   11      713.409 ||    0.010384           0.240        10.123       1.984
   12      772.731 ||    0.080701           1.862        78.671      15.417
   13      893.257 ||    0.073231           1.689        71.389      13.990
   14      959.050 ||    0.035263           0.814        34.377       6.737
   15     1193.785 ||    0.020954           0.483        20.427       4.003
   16     1341.379 ||    0.324755           7.492       316.587      62.040
   17     1413.152 ||    0.000874           0.020         0.852       0.167
   18     1777.981 ||    0.277035           6.391       270.068      52.924
   19     3239.947 ||    0.006025           0.139         5.874       1.151
   20     3361.414 ||    0.000144           0.003         0.141       0.028
   21     3809.863 ||    0.139398           3.216       135.892      26.630
 ----------------------------------------------------------------------------



 vib:animation  F

 Task  times  cpu:      961.1s     wall:      975.8s
 
 
                                NWChem Input Module
                                -------------------
 
 
 Summary of allocated global arrays
-----------------------------------
  No active global arrays



                         GA Statistics for process    0
                         ------------------------------

       create   destroy   get      put      acc     scatter   gather  read&inc
calls: 4.29e+04 4.29e+04 5.74e+06 4.52e+05 9.76e+05    0        0     5.83e+04 
number of processes/call -1.47e+12 4.03e+12 2.70e+12 0.00e+00 0.00e+00
bytes total:             2.52e+09 2.38e+09 6.83e+08 0.00e+00 0.00e+00 4.66e+05
bytes remote:            1.57e+09 1.57e+09 5.16e+08 0.00e+00 0.00e+00 0.00e+00
Max memory consumed for GA by this process: 26384720 bytes
 
MA_summarize_allocated_blocks: starting scan ...
MA_summarize_allocated_blocks: scan completed: 0 heap blocks, 0 stack blocks
MA usage statistics:

	allocation statistics:
					      heap	     stack
					      ----	     -----
	current number of blocks	         0	         0
	maximum number of blocks	        25	        39
	current total bytes		         0	         0
	maximum total bytes		  33586936	  26244744
	maximum total K-bytes		     33587	     26245
	maximum total M-bytes		        34	        27
 
 
                                     CITATION
                                     --------
                Please cite the following reference when publishing
                           results obtained with NWChem:
 
          E. Apr, E. J. Bylaska, W. A. de Jong, N. Govind, K. Kowalski,
       T. P. Straatsma, M. Valiev, H. J. J. van Dam, Y. Alexeev, J. Anchell,
       V. Anisimov, F. W. Aquino, R. Atta-Fynn, J. Autschbach, N. P. Bauman,
     J. C. Becca, D. E. Bernholdt, K. Bhaskaran-Nair, S. Bogatko, P. Borowski,
        J. Boschen, J. Brabec, A. Bruner, E. Caut, Y. Chen, G. N. Chuev,
      C. J. Cramer, J. Daily, M. J. O. Deegan, T. H. Dunning Jr., M. Dupuis,
   K. G. Dyall, G. I. Fann, S. A. Fischer, A. Fonari, H. Frchtl, L. Gagliardi,
      J. Garza, N. Gawande, S. Ghosh, K. Glaesemann, A. W. Gtz, J. Hammond,
       V. Helms, E. D. Hermes, K. Hirao, S. Hirata, M. Jacquelin, L. Jensen,
   B. G. Johnson, H. Jnsson, R. A. Kendall, M. Klemm, R. Kobayashi, V. Konkov,
      S. Krishnamoorthy, M. Krishnan, Z. Lin, R. D. Lins, R. J. Littlefield,
      A. J. Logsdail, K. Lopata, W. Ma, A. V. Marenich, J. Martin del Campo,
   D. Mejia-Rodriguez, J. E. Moore, J. M. Mullin, T. Nakajima, D. R. Nascimento,
    J. A. Nichols, P. J. Nichols, J. Nieplocha, A. Otero-de-la-Roza, B. Palmer,
    A. Panyala, T. Pirojsirikul, B. Peng, R. Peverati, J. Pittner, L. Pollack,
   R. M. Richard, P. Sadayappan, G. C. Schatz, W. A. Shelton, D. W. Silverstein,
   D. M. A. Smith, T. A. Soares, D. Song, M. Swart, H. L. Taylor, G. S. Thomas,
            V. Tipparaju, D. G. Truhlar, K. Tsemekhman, T. Van Voorhis,
     . Vzquez-Mayagoitia, P. Verma, O. Villa, A. Vishnu, K. D. Vogiatzis,
        D. Wang, J. H. Weare, M. J. Williamson, T. L. Windus, K. Woliski,
        A. T. Wong, Q. Wu, C. Yang, Q. Yu, M. Zacharias, Z. Zhang, Y. Zhao,
                                and R. J. Harrison
                        "NWChem: Past, present, and future
                         J. Chem. Phys. 152, 184102 (2020)
                               doi:10.1063/5.0004997
 
                                      AUTHORS
                                      -------
     E. Apra, E. J. Bylaska, N. Govind, K. Kowalski, M. Valiev, W. A. de Jong,
      T. P. Straatsma, H. J. J. van Dam, D. Wang, T. L. Windus, N. P. Bauman,
       A. Panyala, J. Hammond, J. Autschbach, K. Bhaskaran-Nair, J. Brabec,
    K. Lopata, S. A. Fischer, S. Krishnamoorthy, M. Jacquelin, W. Ma, M. Klemm,
       O. Villa, Y. Chen, V. Anisimov, F. Aquino, S. Hirata, M. T. Hackler,
           Eric Hermes, L. Jensen, J. E. Moore, J. C. Becca, V. Konjkov,
            D. Mejia-Rodriguez, T. Risthaus, M. Malagoli, A. Marenich,
   A. Otero-de-la-Roza, J. Mullin, P. Nichols, R. Peverati, J. Pittner, Y. Zhao,
        P.-D. Fan, A. Fonari, M. J. Williamson, R. J. Harrison, J. R. Rehr,
      M. Dupuis, D. Silverstein, D. M. A. Smith, J. Nieplocha, V. Tipparaju,
      M. Krishnan, B. E. Van Kuiken, A. Vazquez-Mayagoitia, M. Swart, Q. Wu,
   T. Van Voorhis, A. A. Auer, M. Nooijen, L. D. Crosby, E. Brown, G. Cisneros,
     G. I. Fann, H. Fruchtl, J. Garza, K. Hirao, R. A. Kendall, J. A. Nichols,
       K. Tsemekhman, K. Wolinski, J. Anchell, D. E. Bernholdt, P. Borowski,
       T. Clark, D. Clerc, H. Dachsel, M. J. O. Deegan, K. Dyall, D. Elwood,
      E. Glendening, M. Gutowski, A. C. Hess, J. Jaffe, B. G. Johnson, J. Ju,
        R. Kobayashi, R. Kutteh, Z. Lin, R. Littlefield, X. Long, B. Meng,
      T. Nakajima, S. Niu, L. Pollack, M. Rosing, K. Glaesemann, G. Sandrone,
      M. Stave, H. Taylor, G. Thomas, J. H. van Lenthe, A. T. Wong, Z. Zhang.

 Total times  cpu:     1220.1s     wall:     1239.7s
