 Entering Gaussian System, Link 0=g16
 Input=14.gjf
 Output=14.log
 Initial command:
 /sw/contrib/gaussian/g16/A03/g16/l1.exe "/gscratch/scrubbed/gds001/Gau-10847.inp" -scrdir="/gscratch/scrubbed/gds001/"
 Entering Link 1 = /sw/contrib/gaussian/g16/A03/g16/l1.exe PID=     10858.
  
 Copyright (c) 1988,1990,1992,1993,1995,1998,2003,2009,2016,
            Gaussian, Inc.  All Rights Reserved.
  
 This is part of the Gaussian(R) 16 program.  It is based on
 the Gaussian(R) 09 system (copyright 2009, Gaussian, Inc.),
 the Gaussian(R) 03 system (copyright 2003, Gaussian, Inc.),
 the Gaussian(R) 98 system (copyright 1998, Gaussian, Inc.),
 the Gaussian(R) 94 system (copyright 1995, Gaussian, Inc.),
 the Gaussian 92(TM) system (copyright 1992, Gaussian, Inc.),
 the Gaussian 90(TM) system (copyright 1990, Gaussian, Inc.),
 the Gaussian 88(TM) system (copyright 1988, Gaussian, Inc.),
 the Gaussian 86(TM) system (copyright 1986, Carnegie Mellon
 University), and the Gaussian 82(TM) system (copyright 1983,
 Carnegie Mellon University). Gaussian is a federally registered
 trademark of Gaussian, Inc.
  
 This software contains proprietary and confidential information,
 including trade secrets, belonging to Gaussian, Inc.
  
 This software is provided under written license and may be
 used, copied, transmitted, or stored only in accord with that
 written license.
  
 The following legend is applicable only to US Government
 contracts under FAR:
  
                    RESTRICTED RIGHTS LEGEND
  
 Use, reproduction and disclosure by the US Government is
 subject to restrictions as set forth in subparagraphs (a)
 and (c) of the Commercial Computer Software - Restricted
 Rights clause in FAR 52.227-19.
  
 Gaussian, Inc.
 340 Quinnipiac St., Bldg. 40, Wallingford CT 06492
  
  
 ---------------------------------------------------------------
 Warning -- This program may not be used in any manner that
 competes with the business of Gaussian, Inc. or will provide
 assistance to any competitor of Gaussian, Inc.  The licensee
 of this program is prohibited from giving any competitor of
 Gaussian, Inc. access to this program.  By using this program,
 the user acknowledges that Gaussian, Inc. is engaged in the
 business of creating and licensing software in the field of
 computational chemistry and represents and warrants to the
 licensee that it is not a competitor of Gaussian, Inc. and that
 it will not use this program in any manner prohibited above.
 ---------------------------------------------------------------
  

 Cite this work as:
 Gaussian 16, Revision A.03,
 M. J. Frisch, G. W. Trucks, H. B. Schlegel, G. E. Scuseria, 
 M. A. Robb, J. R. Cheeseman, G. Scalmani, V. Barone, 
 G. A. Petersson, H. Nakatsuji, X. Li, M. Caricato, A. V. Marenich, 
 J. Bloino, B. G. Janesko, R. Gomperts, B. Mennucci, H. P. Hratchian, 
 J. V. Ortiz, A. F. Izmaylov, J. L. Sonnenberg, D. Williams-Young, 
 F. Ding, F. Lipparini, F. Egidi, J. Goings, B. Peng, A. Petrone, 
 T. Henderson, D. Ranasinghe, V. G. Zakrzewski, J. Gao, N. Rega, 
 G. Zheng, W. Liang, M. Hada, M. Ehara, K. Toyota, R. Fukuda, 
 J. Hasegawa, M. Ishida, T. Nakajima, Y. Honda, O. Kitao, H. Nakai, 
 T. Vreven, K. Throssell, J. A. Montgomery, Jr., J. E. Peralta, 
 F. Ogliaro, M. J. Bearpark, J. J. Heyd, E. N. Brothers, K. N. Kudin, 
 V. N. Staroverov, T. A. Keith, R. Kobayashi, J. Normand, 
 K. Raghavachari, A. P. Rendell, J. C. Burant, S. S. Iyengar, 
 J. Tomasi, M. Cossi, J. M. Millam, M. Klene, C. Adamo, R. Cammi, 
 J. W. Ochterski, R. L. Martin, K. Morokuma, O. Farkas, 
 J. B. Foresman, and D. J. Fox, Gaussian, Inc., Wallingford CT, 2016.
 
 ******************************************
 Gaussian 16:  ES64L-G16RevA.03 25-Dec-2016
                27-Oct-2020 
 ******************************************
 %nprocshared=28
 Will use up to   28 processors via shared memory.
 %mem=41GB
 %chk=14.chk
 -------------------------------------------------------
 # MP2/6-31G** Opt=(Recalc=50) Freq=(vibrot, anharmonic)
 -------------------------------------------------------
 1/10=4,18=20,19=15,38=1,71=50,80=1/1,3;
 2/9=110,12=2,17=6,18=5,40=1/2;
 3/5=1,6=6,7=101,11=9,25=1,30=1,71=2,140=1/1,2,3;
 4//1;
 5/5=2,38=5/2;
 8/6=3,8=1,10=2,19=11,30=-1/1;
 9/15=3,16=-3/6;
 11/6=1,8=1,15=11,17=12,24=-1,27=1,28=-2,29=300,32=6,42=3/1,2,10;
 10/6=2,21=1/2;
 8/6=4,8=1,10=2,19=11,30=-1/11,4;
 10/5=1,20=4/2;
 11/12=2,14=11,16=1,17=2,28=-2,42=3/2,10,12;
 6/7=2,8=2,9=2,10=2/1;
 7/10=1,12=2,25=1,44=2/1,2,3,16;
 1/10=4,18=20,19=15,71=50,80=1/3(3);
 2/9=110/2;
 7/9=1,25=1,44=-1/16;
 99//99;
 2/9=110/2;
 3/5=1,6=6,7=101,11=9,25=1,30=1,71=2,140=1/1,2,3;
 4/5=5,16=3,69=1/1;
 5/5=2,38=5/2;
 8/6=3,8=1,10=2,19=11,30=-1/1;
 9/15=3,16=-3/6;
 11/6=1,8=1,15=11,17=12,24=-1,27=1,28=-2,29=300,32=6,42=3/1,2,10;
 10/6=2,21=1/2;
 8/6=4,8=1,10=2,19=11,30=-1/11,4;
 10/5=1,20=4/2;
 11/12=2,14=11,16=1,17=2,28=-2,42=3/2,10,12;
 7/10=1,12=2,25=1,44=2/1,2,3,16;
 1/18=20,19=15,71=50,80=1/3(-12);
 2/9=110/2;
 6/7=2,8=2,9=2,10=2/1;
 7/9=1,25=1,44=-1/16;
 99//99;
 -------
 Fme,H,H
 -------
 Symbolic Z-matrix:
 Charge =  0 Multiplicity = 1
 C                    -0.38898   3.42018  -0.0885 
 C                    -0.23397   2.11815   0.21593 
 C                     1.07841   1.44317   0.14821 
 O                     0.67879   4.22308  -0.48917 
 O                     2.09734   2.03549  -0.18957 
 C                    -1.73598   4.10633  -0.0173 
 H                     1.50001   3.67986  -0.50056 
 H                    -1.06937   1.49997   0.52684 
 H                     1.07279   0.37532   0.42202 
 F                    -1.73752   5.1364    0.86553 
 F                    -2.72011   3.25443   0.38143 
 F                    -2.11998   4.60193  -1.22036 
 

 GradGradGradGradGradGradGradGradGradGradGradGradGradGradGradGradGradGrad
 Berny optimization.
 Initialization pass.
                           ----------------------------
                           !    Initial Parameters    !
                           ! (Angstroms and Degrees)  !
 --------------------------                            --------------------------
 ! Name  Definition              Value          Derivative Info.                !
 --------------------------------------------------------------------------------
 ! R1    R(1,2)                  1.3461         calculate D2E/DX2 analytically  !
 ! R2    R(1,4)                  1.3948         calculate D2E/DX2 analytically  !
 ! R3    R(1,6)                  1.5134         calculate D2E/DX2 analytically  !
 ! R4    R(2,3)                  1.4773         calculate D2E/DX2 analytically  !
 ! R5    R(2,8)                  1.0848         calculate D2E/DX2 analytically  !
 ! R6    R(3,5)                  1.226          calculate D2E/DX2 analytically  !
 ! R7    R(3,9)                  1.1024         calculate D2E/DX2 analytically  !
 ! R8    R(4,7)                  0.9847         calculate D2E/DX2 analytically  !
 ! R9    R(6,10)                 1.3566         calculate D2E/DX2 analytically  !
 ! R10   R(6,11)                 1.3613         calculate D2E/DX2 analytically  !
 ! R11   R(6,12)                 1.3566         calculate D2E/DX2 analytically  !
 ! A1    A(2,1,4)              122.2506         calculate D2E/DX2 analytically  !
 ! A2    A(2,1,6)              122.0332         calculate D2E/DX2 analytically  !
 ! A3    A(4,1,6)              115.7162         calculate D2E/DX2 analytically  !
 ! A4    A(1,2,3)              122.2665         calculate D2E/DX2 analytically  !
 ! A5    A(1,2,8)              121.8266         calculate D2E/DX2 analytically  !
 ! A6    A(3,2,8)              115.9069         calculate D2E/DX2 analytically  !
 ! A7    A(2,3,5)              122.0177         calculate D2E/DX2 analytically  !
 ! A8    A(2,3,9)              115.2545         calculate D2E/DX2 analytically  !
 ! A9    A(5,3,9)              122.7278         calculate D2E/DX2 analytically  !
 ! A10   A(1,4,7)              108.9184         calculate D2E/DX2 analytically  !
 ! A11   A(1,6,10)             112.0792         calculate D2E/DX2 analytically  !
 ! A12   A(1,6,11)             111.9311         calculate D2E/DX2 analytically  !
 ! A13   A(1,6,12)             112.077          calculate D2E/DX2 analytically  !
 ! A14   A(10,6,11)            106.4826         calculate D2E/DX2 analytically  !
 ! A15   A(10,6,12)            107.421          calculate D2E/DX2 analytically  !
 ! A16   A(11,6,12)            106.4826         calculate D2E/DX2 analytically  !
 ! D1    D(4,1,2,3)             -0.0017         calculate D2E/DX2 analytically  !
 ! D2    D(4,1,2,8)           -179.9994         calculate D2E/DX2 analytically  !
 ! D3    D(6,1,2,3)            179.9999         calculate D2E/DX2 analytically  !
 ! D4    D(6,1,2,8)              0.0022         calculate D2E/DX2 analytically  !
 ! D5    D(2,1,4,7)             -0.0041         calculate D2E/DX2 analytically  !
 ! D6    D(6,1,4,7)            179.9945         calculate D2E/DX2 analytically  !
 ! D7    D(2,1,6,10)           119.5986         calculate D2E/DX2 analytically  !
 ! D8    D(2,1,6,11)             0.0354         calculate D2E/DX2 analytically  !
 ! D9    D(2,1,6,12)          -119.5262         calculate D2E/DX2 analytically  !
 ! D10   D(4,1,6,10)           -60.3999         calculate D2E/DX2 analytically  !
 ! D11   D(4,1,6,11)          -179.9631         calculate D2E/DX2 analytically  !
 ! D12   D(4,1,6,12)            60.4752         calculate D2E/DX2 analytically  !
 ! D13   D(1,2,3,5)              0.0083         calculate D2E/DX2 analytically  !
 ! D14   D(1,2,3,9)           -179.9909         calculate D2E/DX2 analytically  !
 ! D15   D(8,2,3,5)           -179.9939         calculate D2E/DX2 analytically  !
 ! D16   D(8,2,3,9)              0.0069         calculate D2E/DX2 analytically  !
 --------------------------------------------------------------------------------
 Trust Radius=3.00D-01 FncErr=1.00D-07 GrdErr=1.00D-07 EigMax=2.50D+02 EigMin=1.00D-04
 Number of steps in this run=     53 maximum allowed number of steps=    100.
 GradGradGradGradGradGradGradGradGradGradGradGradGradGradGradGradGradGrad

                          Input orientation:                          
 ---------------------------------------------------------------------
 Center     Atomic      Atomic             Coordinates (Angstroms)
 Number     Number       Type             X           Y           Z
 ---------------------------------------------------------------------
      1          6           0       -0.388983    3.420175   -0.088500
      2          6           0       -0.233971    2.118146    0.215931
      3          6           0        1.078415    1.443169    0.148205
      4          8           0        0.678789    4.223083   -0.489168
      5          8           0        2.097344    2.035492   -0.189572
      6          6           0       -1.735978    4.106332   -0.017300
      7          1           0        1.500011    3.679862   -0.500562
      8          1           0       -1.069374    1.499970    0.526838
      9          1           0        1.072786    0.375319    0.422021
     10          9           0       -1.737520    5.136401    0.865532
     11          9           0       -2.720106    3.254428    0.381431
     12          9           0       -2.119984    4.601931   -1.220363
 ---------------------------------------------------------------------
                    Distance matrix (angstroms):
                    1          2          3          4          5
     1  C    0.000000
     2  C    1.346101   0.000000
     3  C    2.473427   1.477341   0.000000
     4  O    1.394752   2.400220   2.879907   0.000000
     5  O    2.847698   2.367761   1.226033   2.624425   0.000000
     6  C    1.513365   2.502660   3.878226   2.463207   4.360323
     7  H    1.950777   2.441109   2.366736   0.984694   1.776929
     8  H    2.128088   1.084759   2.181647   3.391708   3.290612
     9  H    3.415926   2.188043   1.102411   3.973762   2.044490
    10  F    2.382050   3.434022   4.699363   2.916832   5.043319
    11  F    2.383787   2.738503   4.214714   3.639880   5.001967
    12  F    2.382021   3.433537   4.698990   2.917414   5.043312
                    6          7          8          9         10
     6  C    0.000000
     7  H    3.299551   0.000000
     8  H    2.744735   3.522671   0.000000
     9  H    4.690695   3.457410   2.421709   0.000000
    10  F    1.356627   3.803856   3.712784   5.546389   0.000000
    11  F    1.361336   4.332239   2.413335   4.762032   2.177533
    12  F    1.356628   3.804299   3.711961   5.545760   2.186983
                   11         12
    11  F    0.000000
    12  F    2.177534   0.000000
 Stoichiometry    C4H3F3O2
 Framework group  C1[X(C4H3F3O2)]
 Deg. of freedom    30
 Full point group                 C1      NOp   1
 Largest Abelian subgroup         C1      NOp   1
 Largest concise Abelian subgroup C1      NOp   1
                         Standard orientation:                         
 ---------------------------------------------------------------------
 Center     Atomic      Atomic             Coordinates (Angstroms)
 Number     Number       Type             X           Y           Z
 ---------------------------------------------------------------------
      1          6           0        0.186873   -0.137099    0.000025
      2          6           0        1.038288    0.905532   -0.000006
      3          6           0        2.504716    0.726292    0.000027
      4          8           0        0.629761   -1.459666    0.000054
      5          8           0        3.023810   -0.384427   -0.000067
      6          6           0       -1.314553    0.052628   -0.000006
      7          1           0        1.614431   -1.466613   -0.000018
      8          1           0        0.686232    1.931572   -0.000019
      9          1           0        3.092542    1.658907    0.000154
     10          9           0       -1.898297   -0.499517   -1.093082
     11          9           0       -1.660671    1.369228   -0.000847
     12          9           0       -1.898112   -0.498071    1.093901
 ---------------------------------------------------------------------
 Rotational constants (GHZ):           3.3248935           0.9935359           0.8869438
 Standard basis: 6-31G(d,p) (6D, 7F)
 There are   150 symmetry adapted cartesian basis functions of A   symmetry.
 There are   150 symmetry adapted basis functions of A   symmetry.
   150 basis functions,   273 primitive gaussians,   150 cartesian basis functions
    35 alpha electrons       35 beta electrons
       nuclear repulsion energy       472.2204772634 Hartrees.
 NAtoms=   12 NActive=   12 NUniq=   12 SFac= 1.00D+00 NAtFMM=   60 NAOKFM=F Big=F
 Integral buffers will be    131072 words long.
 Raffenetti 1 integral format.
 Two-electron integral symmetry is turned on.
 One-electron integrals computed using PRISM.
 NBasis=   150 RedAO= T EigKep=  1.41D-03  NBF=   150
 NBsUse=   150 1.00D-06 EigRej= -1.00D+00 NBFU=   150
 ExpMin= 1.61D-01 ExpMax= 7.00D+03 ExpMxC= 1.05D+03 IAcc=3 IRadAn=         5 AccDes= 0.00D+00
 Harris functional with IExCor=  205 and IRadAn=       5 diagonalized for initial guess.
 HarFok:  IExCor=  205 AccDes= 0.00D+00 IRadAn=         5 IDoV= 1 UseB2=F ITyADJ=14
 ICtDFT=  3500011 ScaDFX=  1.000000  1.000000  1.000000  1.000000
 FoFCou: FMM=F IPFlag=           0 FMFlag=      100000 FMFlg1=           0
         NFxFlg=           0 DoJE=T BraDBF=F KetDBF=T FulRan=T
         wScrn=  0.000000 ICntrl=       500 IOpCl=  0 I1Cent=   200000004 NGrid=           0
         NMat0=    1 NMatS0=      1 NMatT0=    0 NMatD0=    1 NMtDS0=    0 NMtDT0=    0
 Petite list used in FoFCou.
 Keep R1 ints in memory in canonical form, NReq=70087743.
 Requested convergence on RMS density matrix=1.00D-08 within 128 cycles.
 Requested convergence on MAX density matrix=1.00D-06.
 Requested convergence on             energy=1.00D-06.
 No special actions if energy rises.
 SCF Done:  E(RHF) =  -601.241175309     A.U. after   14 cycles
            NFock= 14  Conv=0.96D-08     -V/T= 2.0032
 ExpMin= 1.61D-01 ExpMax= 7.00D+03 ExpMxC= 1.05D+03 IAcc=3 IRadAn=         5 AccDes= 0.00D+00
 HarFok:  IExCor=  205 AccDes= 0.00D+00 IRadAn=         5 IDoV=-2 UseB2=F ITyADJ=14
 ICtDFT= 12500011 ScaDFX=  1.000000  1.000000  1.000000  1.000000
 Range of M.O.s used for correlation:    10   150
 NBasis=   150 NAE=    35 NBE=    35 NFC=     9 NFV=     0
 NROrb=    141 NOA=    26 NOB=    26 NVA=   115 NVB=   115

 **** Warning!!: The largest alpha MO coefficient is  0.11108444D+02

 Disk-based method using ON**2 memory for 26 occupieds at a time.
 Permanent disk used for amplitudes=    20100850 words.
 Estimated scratch disk usage=   161785910 words.
 Actual    scratch disk usage=   151824438 words.
 JobTyp=1 Pass  1:  I=  10 to  35 NPSUse= 28 ParTrn=T ParDer=T DoDerP=T.
 (rs|ai) integrals will be sorted in core.
 Spin components of T(2) and E(2):
     alpha-alpha T2 =       0.5348585226D-01 E2=     -0.1907162175D+00
     alpha-beta  T2 =       0.2830469232D+00 E2=     -0.1009927727D+01
     beta-beta   T2 =       0.5348585226D-01 E2=     -0.1907162175D+00
 ANorm=    0.1178990512D+01
 E2 =    -0.1391360162D+01 EUMP2 =    -0.60263253547088D+03
 G2DrvN: will do    13 centers at a time, making    1 passes.
 Calling FoFCou, ICntrl=  3107 FMM=F I1Cent=   0 AccDes= 0.00D+00.
 End of G2Drv F.D. properties file   721 does not exist.
 End of G2Drv F.D. properties file   722 does not exist.
 End of G2Drv F.D. properties file   788 does not exist.
          IDoAtm=111111111111
          Differentiating once with respect to electric field.
                with respect to dipole field.
          Differentiating once with respect to nuclear coordinates.
 Keep R1 ints in memory in canonical form, NReq=70089300.
          There are    39 degrees of freedom in the 1st order CPHF.  IDoFFX=6 NUNeed=    39.
     36 vectors produced by pass  0 Test12= 1.03D-14 2.56D-09 XBig12= 1.50D+01 2.74D+00.
 AX will form    36 AO Fock derivatives at one time.
     36 vectors produced by pass  1 Test12= 1.03D-14 2.56D-09 XBig12= 9.38D-01 1.55D-01.
     36 vectors produced by pass  2 Test12= 1.03D-14 2.56D-09 XBig12= 3.64D-02 6.14D-02.
     36 vectors produced by pass  3 Test12= 1.03D-14 2.56D-09 XBig12= 5.38D-04 5.84D-03.
     36 vectors produced by pass  4 Test12= 1.03D-14 2.56D-09 XBig12= 6.62D-06 3.81D-04.
     36 vectors produced by pass  5 Test12= 1.03D-14 2.56D-09 XBig12= 3.60D-08 2.69D-05.
     35 vectors produced by pass  6 Test12= 1.03D-14 2.56D-09 XBig12= 2.03D-10 1.64D-06.
     13 vectors produced by pass  7 Test12= 1.03D-14 2.56D-09 XBig12= 9.86D-13 1.10D-07.
      3 vectors produced by pass  8 Test12= 1.03D-14 2.56D-09 XBig12= 4.62D-15 9.33D-09.
 InvSVY:  IOpt=1 It=  1 EMax= 1.33D-15
 Solved reduced A of dimension   267 with    39 vectors.
 End of Minotr F.D. properties file   721 does not exist.
 End of Minotr F.D. properties file   722 does not exist.
 End of Minotr F.D. properties file   788 does not exist.
 MDV=  5502926848.
 Form MO integral derivatives with frozen-active canonical formalism.
 Discarding MO integrals.
 Reordered first order wavefunction length =     32401250
 In DefCFB: NBatch=  1 ICI= 35 ICA=115 LFMax= 58
            Large arrays: LIAPS=   362250000 LIARS=    63393750 words.
 Semi-Direct transformation.
 ModeAB=           4 MOrb=            35 LenV=    5502294370
 LASXX=     49056910 LTotXX=    49056910 LenRXX=    99239035
 LTotAB=    50182125 MaxLAS=    56736750 LenRXY=           0
 NonZer=   148295945 LenScr=   222822400 LnRSAI=    56736750
 LnScr1=    85458944 LExtra=           0 Total=    464257129
 MaxDsk=          -1 SrtSym=           T ITran=            4
 JobTyp=0 Pass  1:  I=   1 to  35.
 (rs|ai) integrals will be sorted in core.
 SymMOI:  orbitals are not symmetric.
 Spin components of T(2) and E(2):
     alpha-alpha T2 =       0.5348585226D-01 E2=     -0.1907162175D+00
     alpha-beta  T2 =       0.2830469232D+00 E2=     -0.1009927727D+01
     beta-beta   T2 =       0.5348585226D-01 E2=     -0.1907162175D+00
 ANorm=    0.1667344372D+01
 E2 =    -0.1391360162D+01 EUMP2 =    -0.60263253547088D+03
          IDoAtm=111111111111
          Differentiating once with respect to electric field.
                with respect to dipole field.
          Differentiating once with respect to nuclear coordinates.
          There are     1 degrees of freedom in the 1st order CPHF.  IDoFFX=0 NUNeed=     1.
 LinEq1:  Iter=  0 NonCon=     1 RMS=5.68D-03 Max=1.71D-01 NDo=     1
 LinEq1:  Iter=  1 NonCon=     1 RMS=2.16D-03 Max=4.13D-02 NDo=     1
 LinEq1:  Iter=  2 NonCon=     1 RMS=6.16D-04 Max=1.92D-02 NDo=     1
 LinEq1:  Iter=  3 NonCon=     1 RMS=2.35D-04 Max=3.45D-03 NDo=     1
 LinEq1:  Iter=  4 NonCon=     1 RMS=9.18D-05 Max=2.26D-03 NDo=     1
 LinEq1:  Iter=  5 NonCon=     1 RMS=3.26D-05 Max=8.14D-04 NDo=     1
 LinEq1:  Iter=  6 NonCon=     1 RMS=1.02D-05 Max=1.73D-04 NDo=     1
 LinEq1:  Iter=  7 NonCon=     1 RMS=3.93D-06 Max=1.41D-04 NDo=     1
 LinEq1:  Iter=  8 NonCon=     1 RMS=1.19D-06 Max=2.00D-05 NDo=     1
 LinEq1:  Iter=  9 NonCon=     1 RMS=3.11D-07 Max=4.87D-06 NDo=     1
 LinEq1:  Iter= 10 NonCon=     1 RMS=9.51D-08 Max=2.01D-06 NDo=     1
 LinEq1:  Iter= 11 NonCon=     1 RMS=3.03D-08 Max=3.35D-07 NDo=     1
 LinEq1:  Iter= 12 NonCon=     1 RMS=1.18D-08 Max=2.64D-07 NDo=     1
 LinEq1:  Iter= 13 NonCon=     1 RMS=3.15D-09 Max=4.51D-08 NDo=     1
 LinEq1:  Iter= 14 NonCon=     1 RMS=6.32D-10 Max=8.85D-09 NDo=     1
 LinEq1:  Iter= 15 NonCon=     1 RMS=1.71D-10 Max=1.93D-09 NDo=     1
 LinEq1:  Iter= 16 NonCon=     0 RMS=5.80D-11 Max=6.57D-10 NDo=     1
 Linear equations converged to 1.000D-10 1.000D-09 after    16 iterations.
 End of Minotr F.D. properties file   721 does not exist.
 End of Minotr F.D. properties file   722 does not exist.
 End of Minotr F.D. properties file   788 does not exist.
 Symmetrizing basis deriv contribution to polar:
 IMax=3 JMax=2 DiffMx= 0.00D+00
 G2DrvN: will do    13 centers at a time, making    1 passes.
 Calling FoFCou, ICntrl=  3107 FMM=F I1Cent=   0 AccDes= 0.00D+00.
 End of G2Drv F.D. properties file   721 does not exist.
 End of G2Drv F.D. properties file   722 does not exist.
 End of G2Drv F.D. properties file   788 does not exist.
 R2 and R3 integrals will be kept in memory, NReq=   129988350.
 DD1Dir will call FoFMem   1 times, MxPair=      1260
 NAB=   630 NAA=     0 NBB=     0.
 Discarding MO integrals.

 **********************************************************************

            Population analysis using the SCF density.

 **********************************************************************

 Orbital symmetries:
       Occupied  (A) (A) (A) (A) (A) (A) (A) (A) (A) (A) (A) (A)
                 (A) (A) (A) (A) (A) (A) (A) (A) (A) (A) (A) (A)
                 (A) (A) (A) (A) (A) (A) (A) (A) (A) (A) (A)
       Virtual   (A) (A) (A) (A) (A) (A) (A) (A) (A) (A) (A) (A)
                 (A) (A) (A) (A) (A) (A) (A) (A) (A) (A) (A) (A)
                 (A) (A) (A) (A) (A) (A) (A) (A) (A) (A) (A) (A)
                 (A) (A) (A) (A) (A) (A) (A) (A) (A) (A) (A) (A)
                 (A) (A) (A) (A) (A) (A) (A) (A) (A) (A) (A) (A)
                 (A) (A) (A) (A) (A) (A) (A) (A) (A) (A) (A) (A)
                 (A) (A) (A) (A) (A) (A) (A) (A) (A) (A) (A) (A)
                 (A) (A) (A) (A) (A) (A) (A) (A) (A) (A) (A) (A)
                 (A) (A) (A) (A) (A) (A) (A) (A) (A) (A) (A) (A)
                 (A) (A) (A) (A) (A) (A) (A)
 The electronic state is 1-A.
 Alpha  occ. eigenvalues --  -26.36027 -26.35402 -26.35400 -20.62237 -20.60021
 Alpha  occ. eigenvalues --  -11.54318 -11.37928 -11.37659 -11.27285  -1.73091
 Alpha  occ. eigenvalues --   -1.63896  -1.63626  -1.43343  -1.40465  -1.11593
 Alpha  occ. eigenvalues --   -1.01348  -0.91058  -0.85449  -0.82422  -0.82040
 Alpha  occ. eigenvalues --   -0.78122  -0.72120  -0.71419  -0.70749  -0.69046
 Alpha  occ. eigenvalues --   -0.66697  -0.66617  -0.65474  -0.65297  -0.61219
 Alpha  occ. eigenvalues --   -0.60375  -0.57011  -0.55580  -0.46041  -0.39678
 Alpha virt. eigenvalues --    0.05472   0.21840   0.22551   0.25621   0.29240
 Alpha virt. eigenvalues --    0.34728   0.38033   0.40359   0.42236   0.43599
 Alpha virt. eigenvalues --    0.46773   0.55289   0.58173   0.67864   0.69249
 Alpha virt. eigenvalues --    0.72526   0.72601   0.73334   0.79485   0.81207
 Alpha virt. eigenvalues --    0.85216   0.87218   0.87566   0.89778   0.95874
 Alpha virt. eigenvalues --    1.01182   1.04666   1.08197   1.09881   1.16351
 Alpha virt. eigenvalues --    1.20540   1.23576   1.25570   1.28402   1.32630
 Alpha virt. eigenvalues --    1.33006   1.33895   1.38475   1.40927   1.42119
 Alpha virt. eigenvalues --    1.47217   1.51423   1.56671   1.60994   1.61350
 Alpha virt. eigenvalues --    1.62680   1.63451   1.64005   1.65822   1.67361
 Alpha virt. eigenvalues --    1.69872   1.71007   1.82434   1.84544   1.87169
 Alpha virt. eigenvalues --    1.89681   1.92354   1.96120   1.98379   2.02796
 Alpha virt. eigenvalues --    2.05564   2.05941   2.10382   2.10962   2.13090
 Alpha virt. eigenvalues --    2.13373   2.19372   2.23122   2.23626   2.27186
 Alpha virt. eigenvalues --    2.27843   2.29478   2.33607   2.34485   2.36153
 Alpha virt. eigenvalues --    2.37216   2.40432   2.43138   2.44202   2.58565
 Alpha virt. eigenvalues --    2.60789   2.63506   2.67618   2.74198   2.74280
 Alpha virt. eigenvalues --    2.75896   2.81762   2.87338   2.89885   2.91437
 Alpha virt. eigenvalues --    2.96666   3.01435   3.03244   3.09609   3.09721
 Alpha virt. eigenvalues --    3.14201   3.25696   3.29011   3.37280   3.37356
 Alpha virt. eigenvalues --    3.38012   3.46505   3.53618   3.62497   3.85900
 Alpha virt. eigenvalues --    3.98928   4.35554   4.47846   4.56735   4.63027
 Alpha virt. eigenvalues --    4.66925   4.82797   4.96688   5.08105   6.01091
          Condensed to atoms (all electrons):
               1          2          3          4          5          6
     1  C    4.639932   0.532795  -0.047318   0.300838   0.005046   0.398502
     2  C    0.532795   5.355070   0.354841  -0.061919  -0.083020  -0.045810
     3  C   -0.047318   0.354841   4.389697  -0.000419   0.503674   0.001058
     4  O    0.300838  -0.061919  -0.000419   8.188700  -0.026169  -0.035432
     5  O    0.005046  -0.083020   0.503674  -0.026169   8.167156   0.000160
     6  C    0.398502  -0.045810   0.001058  -0.035432   0.000160   3.644062
     7  H   -0.016858  -0.008737  -0.005934   0.299162   0.041043   0.002400
     8  H   -0.018230   0.381288  -0.021427   0.001659   0.002016   0.000110
     9  H    0.003530  -0.085677   0.411849  -0.000171  -0.034300  -0.000006
    10  F   -0.035031   0.001452  -0.000018   0.000918   0.000000   0.281106
    11  F   -0.040693   0.003414   0.000282   0.000441  -0.000000   0.290168
    12  F   -0.035036   0.001449  -0.000018   0.000916   0.000000   0.281094
               7          8          9         10         11         12
     1  C   -0.016858  -0.018230   0.003530  -0.035031  -0.040693  -0.035036
     2  C   -0.008737   0.381288  -0.085677   0.001452   0.003414   0.001449
     3  C   -0.005934  -0.021427   0.411849  -0.000018   0.000282  -0.000018
     4  O    0.299162   0.001659  -0.000171   0.000918   0.000441   0.000916
     5  O    0.041043   0.002016  -0.034300   0.000000  -0.000000   0.000000
     6  C    0.002400   0.000110  -0.000006   0.281106   0.290168   0.281094
     7  H    0.257105   0.000005   0.000761  -0.000047  -0.000017  -0.000047
     8  H    0.000005   0.451959   0.001812   0.000107   0.003736   0.000107
     9  H    0.000761   0.001812   0.549632   0.000000  -0.000001   0.000000
    10  F   -0.000047   0.000107   0.000000   9.177356  -0.032354  -0.031667
    11  F   -0.000017   0.003736  -0.000001  -0.032354   9.183894  -0.032355
    12  F   -0.000047   0.000107   0.000000  -0.031667  -0.032355   9.177383
 Mulliken charges:
               1
     1  C    0.312523
     2  C   -0.345144
     3  C    0.413732
     4  O   -0.668523
     5  O   -0.575605
     6  C    1.182588
     7  H    0.431163
     8  H    0.196857
     9  H    0.152572
    10  F   -0.361822
    11  F   -0.376513
    12  F   -0.361827
 Sum of Mulliken charges =  -0.00000
 Mulliken charges with hydrogens summed into heavy atoms:
               1
     1  C    0.312523
     2  C   -0.148287
     3  C    0.566304
     4  O   -0.237360
     5  O   -0.575605
     6  C    1.182588
    10  F   -0.361822
    11  F   -0.376513
    12  F   -0.361827
 APT charges:
               1
     1  C    0.411699
     2  C   -0.504805
     3  C    0.798131
     4  O   -0.621718
     5  O   -0.558980
     6  C    1.675392
     7  H    0.366313
     8  H    0.075531
     9  H   -0.048922
    10  F   -0.543620
    11  F   -0.505360
    12  F   -0.543662
 Sum of APT charges =  -0.00000
 APT charges with hydrogens summed into heavy atoms:
               1
     1  C    0.411699
     2  C   -0.429275
     3  C    0.749210
     4  O   -0.255405
     5  O   -0.558980
     6  C    1.675392
    10  F   -0.543620
    11  F   -0.505360
    12  F   -0.543662
 Electronic spatial extent (au):  <R**2>=           1223.8559
 Charge=             -0.0000 electrons
 Dipole moment (field-independent basis, Debye):
    X=              1.4591    Y=              2.9454    Z=              0.0001  Tot=              3.2870
 Quadrupole moment (field-independent basis, Debye-Ang):
   XX=            -53.6923   YY=            -47.4604   ZZ=            -49.8501
   XY=              5.4511   XZ=              0.0006   YZ=              0.0003
 Traceless Quadrupole moment (field-independent basis, Debye-Ang):
   XX=             -3.3580   YY=              2.8739   ZZ=              0.4841
   XY=              5.4511   XZ=              0.0006   YZ=              0.0003
 Octapole moment (field-independent basis, Debye-Ang**2):
  XXX=            -40.2024  YYY=              2.4326  ZZZ=             -0.0029  XYY=              2.9691
  XXY=             14.6035  XXZ=              0.0020  XZZ=             -6.4809  YZZ=             -0.9499
  YYZ=              0.0023  XYZ=              0.0007
 Hexadecapole moment (field-independent basis, Debye-Ang**3):
 XXXX=          -1054.5965 YYYY=           -245.0889 ZZZZ=           -105.9947 XXXY=             44.1260
 XXXZ=              0.0068 YYYX=             -3.8369 YYYZ=              0.0017 ZZZX=              0.0038
 ZZZY=             -0.0000 XXYY=           -180.5096 XXZZ=           -181.2191 YYZZ=            -61.5517
 XXYZ=              0.0002 YYXZ=             -0.0032 ZZXY=             -5.2642
 N-N= 4.722204772634D+02 E-N=-2.368839938911D+03  KE= 5.993176713190D+02
  Exact polarizability:  62.530   5.839  53.962  -0.000   0.001  27.062
 Approx polarizability:  47.102   3.346  50.754  -0.000   0.000  27.687
 Calling FoFJK, ICntrl=  10100127 FMM=F ISym2X=0 I1Cent= 0 IOpClX= 0 NMat=1 NMatS=1 NMatT=0.
 ***** Axes restored to original set *****
 -------------------------------------------------------------------
 Center     Atomic                   Forces (Hartrees/Bohr)
 Number     Number              X              Y              Z
 -------------------------------------------------------------------
      1        6           0.041296736    0.019195022   -0.012451324
      2        6           0.001364701   -0.027245732    0.006710841
      3        6          -0.031168444    0.007401615    0.003809765
      4        8          -0.043397095   -0.005929276    0.009458095
      5        8           0.022276246    0.002002155   -0.004589158
      6        6          -0.013307695    0.012242929   -0.000692346
      7        1          -0.007926365   -0.006913102    0.003216053
      8        1          -0.000265812    0.006769409   -0.001680049
      9        1           0.004623216    0.002082764   -0.001376022
     10        9           0.006082075   -0.006821907   -0.006039779
     11        9           0.012120143    0.000922138   -0.002460920
     12        9           0.008302293   -0.003706016    0.006094843
 -------------------------------------------------------------------
 Cartesian Forces:  Max     0.043397095 RMS     0.014440004
 FormGI is forming the generalized inverse of G from B-inverse, IUseBI=4.

 GradGradGradGradGradGradGradGradGradGradGradGradGradGradGradGradGradGrad
 Berny optimization.
 Internal  Forces:  Max     0.050325177 RMS     0.011065032
 Search for a local minimum.
 Step number   1 out of a maximum of   53
 All quantities printed in internal units (Hartrees-Bohrs-Radians)
 Mixed Optimization -- RFO/linear search
 Second derivative matrix not updated -- analytic derivatives used.
 ITU=  0
     Eigenvalues ---    0.00129   0.00930   0.01356   0.01804   0.02396
     Eigenvalues ---    0.06463   0.09011   0.11323   0.12668   0.13256
     Eigenvalues ---    0.13939   0.17321   0.18547   0.19900   0.21872
     Eigenvalues ---    0.23426   0.25202   0.26526   0.29572   0.32491
     Eigenvalues ---    0.34876   0.36770   0.37033   0.37416   0.40735
     Eigenvalues ---    0.47732   0.51640   0.51861   0.73257   0.84948
 RFO step:  Lambda=-1.61556374D-02 EMin= 1.28521153D-03
 Linear search not attempted -- first point.
 Iteration  1 RMS(Cart)=  0.06896932 RMS(Int)=  0.00167886
 Iteration  2 RMS(Cart)=  0.00222313 RMS(Int)=  0.00013269
 Iteration  3 RMS(Cart)=  0.00000217 RMS(Int)=  0.00013268
 Iteration  4 RMS(Cart)=  0.00000000 RMS(Int)=  0.00013268
 Variable       Old X    -DE/DX   Delta X   Delta X   Delta X     New X
                                 (Linear)    (Quad)   (Total)
    R1        2.54376   0.00898   0.00000   0.02572   0.02572   2.56948
    R2        2.63570  -0.05033   0.00000  -0.14918  -0.14918   2.48652
    R3        2.85985  -0.01070   0.00000  -0.01204  -0.01204   2.84780
    R4        2.79177  -0.00894   0.00000  -0.06064  -0.06064   2.73113
    R5        2.04990  -0.00413   0.00000  -0.01495  -0.01495   2.03494
    R6        2.31687   0.02074   0.00000   0.03666   0.03666   2.35352
    R7        2.08326  -0.00238   0.00000  -0.00878  -0.00878   2.07448
    R8        1.86080  -0.00283   0.00000   0.01326   0.01326   1.87407
    R9        2.56365  -0.00912   0.00000  -0.01970  -0.01970   2.54396
   R10        2.57255  -0.01006   0.00000  -0.02439  -0.02439   2.54816
   R11        2.56366  -0.00911   0.00000  -0.01968  -0.01968   2.54398
    A1        2.13368   0.01511   0.00000   0.05781   0.05781   2.19148
    A2        2.12988   0.00447   0.00000   0.01620   0.01620   2.14609
    A3        2.01963  -0.01958   0.00000  -0.07401  -0.07401   1.94562
    A4        2.13395  -0.00403   0.00000  -0.05837  -0.05837   2.07559
    A5        2.12628  -0.00375   0.00000  -0.01956  -0.01956   2.10671
    A6        2.02296   0.00778   0.00000   0.07793   0.07793   2.10089
    A7        2.12961   0.01148   0.00000   0.02094   0.02094   2.15055
    A8        2.01157  -0.00086   0.00000   0.03618   0.03618   2.04775
    A9        2.14200  -0.01062   0.00000  -0.05712  -0.05712   2.08488
   A10        1.90098  -0.01977   0.00000  -0.05759  -0.05759   1.84339
   A11        1.95615  -0.00666   0.00000  -0.02662  -0.02696   1.92919
   A12        1.95357  -0.00881   0.00000  -0.01001  -0.01008   1.94348
   A13        1.95611  -0.00665   0.00000  -0.02659  -0.02693   1.92918
   A14        1.85847   0.00909   0.00000   0.02834   0.02827   1.88674
   A15        1.87485   0.00592   0.00000   0.01248   0.01190   1.88675
   A16        1.85847   0.00909   0.00000   0.02833   0.02825   1.88673
    D1       -0.00003  -0.00000   0.00000   0.00000   0.00000  -0.00003
    D2       -3.14158  -0.00000   0.00000  -0.00002  -0.00002   3.14159
    D3        3.14159  -0.00000   0.00000  -0.00007  -0.00007   3.14152
    D4        0.00004  -0.00000   0.00000  -0.00009  -0.00010  -0.00006
    D5       -0.00007   0.00000   0.00000   0.00005   0.00005  -0.00002
    D6        3.14150   0.00000   0.00000   0.00012   0.00012  -3.14156
    D7        2.08739   0.00093   0.00000   0.01091   0.01070   2.09809
    D8        0.00062   0.00000   0.00000  -0.00004  -0.00004   0.00058
    D9       -2.08613  -0.00093   0.00000  -0.01098  -0.01078  -2.09691
   D10       -1.05418   0.00092   0.00000   0.01083   0.01063  -1.04355
   D11       -3.14095  -0.00000   0.00000  -0.00011  -0.00011  -3.14106
   D12        1.05549  -0.00093   0.00000  -0.01106  -0.01085   1.04464
   D13        0.00015  -0.00000   0.00000  -0.00008  -0.00008   0.00007
   D14       -3.14143  -0.00000   0.00000  -0.00008  -0.00008  -3.14151
   D15       -3.14149  -0.00000   0.00000  -0.00006  -0.00006  -3.14154
   D16        0.00012  -0.00000   0.00000  -0.00006  -0.00006   0.00006
         Item               Value     Threshold  Converged?
 Maximum Force            0.050325     0.000450     NO 
 RMS     Force            0.011065     0.000300     NO 
 Maximum Displacement     0.189056     0.001800     NO 
 RMS     Displacement     0.069103     0.001200     NO 
 Predicted change in Energy=-8.570193D-03
 GradGradGradGradGradGradGradGradGradGradGradGradGradGradGradGradGradGrad

                          Input orientation:                          
 ---------------------------------------------------------------------
 Center     Atomic      Atomic             Coordinates (Angstroms)
 Number     Number       Type             X           Y           Z
 ---------------------------------------------------------------------
      1          6           0       -0.389883    3.390124   -0.080603
      2          6           0       -0.249261    2.073875    0.230084
      3          6           0        1.061686    1.471573    0.144000
      4          8           0        0.579079    4.193818   -0.463414
      5          8           0        2.079657    2.099684   -0.202859
      6          6           0       -1.712790    4.109533   -0.022363
      7          1           0        1.399966    3.637425   -0.471464
      8          1           0       -1.098995    1.487186    0.535608
      9          1           0        1.145247    0.407493    0.400596
     10          9           0       -1.654196    5.136112    0.846524
     11          9           0       -2.703773    3.283913    0.370788
     12          9           0       -2.035309    4.603573   -1.232405
 ---------------------------------------------------------------------
                    Distance matrix (angstroms):
                    1          2          3          4          5
     1  C    0.000000
     2  C    1.359711   0.000000
     3  C    2.416265   1.445254   0.000000
     4  O    1.315810   2.379338   2.830632   0.000000
     5  O    2.789051   2.368959   1.245431   2.589405   0.000000
     6  C    1.506992   2.519831   3.832000   2.335443   4.295896
     7  H    1.848645   2.378405   2.276872   0.991713   1.702579
     8  H    2.122200   1.076846   2.195938   3.337640   3.320288
     9  H    3.388844   2.179577   1.097766   3.924706   2.025041
    10  F    2.346599   3.425075   4.615019   2.755245   4.925724
    11  F    2.359899   2.740186   4.185055   3.507270   4.961116
    12  F    2.346600   3.424648   4.614681   2.755770   4.925684
                    6          7          8          9         10
     6  C    0.000000
     7  H    3.180225   0.000000
     8  H    2.750414   3.447105   0.000000
     9  H    4.695995   3.355270   2.494110   0.000000
    10  F    1.346203   3.648433   3.703995   5.513218   0.000000
    11  F    1.348430   4.204169   2.414686   4.805168   2.181417
    12  F    1.346216   3.648779   3.703299   5.512686   2.179631
                   11         12
    11  F    0.000000
    12  F    2.181416   0.000000
 Stoichiometry    C4H3F3O2
 Framework group  C1[X(C4H3F3O2)]
 Deg. of freedom    30
 Full point group                 C1      NOp   1
 Largest Abelian subgroup         C1      NOp   1
 Largest concise Abelian subgroup C1      NOp   1
                         Standard orientation:                         
 ---------------------------------------------------------------------
 Center     Atomic      Atomic             Coordinates (Angstroms)
 Number     Number       Type             X           Y           Z
 ---------------------------------------------------------------------
      1          6           0        0.196623   -0.104192   -0.000040
      2          6           0        1.056218    0.949331   -0.000042
      3          6           0        2.478229    0.691176    0.000018
      4          8           0        0.542179   -1.373816   -0.000014
      5          8           0        2.963414   -0.455861    0.000001
      6          6           0       -1.301412    0.059875   -0.000005
      7          1           0        1.533869   -1.380618   -0.000014
      8          1           0        0.686458    1.960704   -0.000071
      9          1           0        3.148287    1.560723    0.000095
     10          9           0       -1.839903   -0.519289   -1.089436
     11          9           0       -1.652758    1.361726   -0.000703
     12          9           0       -1.839707   -0.518052    1.090195
 ---------------------------------------------------------------------
 Rotational constants (GHZ):           3.3922960           1.0297794           0.9197316
 Standard basis: 6-31G(d,p) (6D, 7F)
 There are   150 symmetry adapted cartesian basis functions of A   symmetry.
 There are   150 symmetry adapted basis functions of A   symmetry.
   150 basis functions,   273 primitive gaussians,   150 cartesian basis functions
    35 alpha electrons       35 beta electrons
       nuclear repulsion energy       478.8127819499 Hartrees.
 NAtoms=   12 NActive=   12 NUniq=   12 SFac= 1.00D+00 NAtFMM=   60 NAOKFM=F Big=F
 Integral buffers will be    131072 words long.
 Raffenetti 1 integral format.
 Two-electron integral symmetry is turned on.
 One-electron integrals computed using PRISM.
 NBasis=   150 RedAO= T EigKep=  1.34D-03  NBF=   150
 NBsUse=   150 1.00D-06 EigRej= -1.00D+00 NBFU=   150
 Initial guess from the checkpoint file:  "14.chk"
 B after Tr=    -0.000000   -0.000000   -0.000000
         Rot=    0.999994   -0.000028   -0.000002    0.003330 Ang=  -0.38 deg.
 ExpMin= 1.61D-01 ExpMax= 7.00D+03 ExpMxC= 1.05D+03 IAcc=2 IRadAn=         4 AccDes= 0.00D+00
 Harris functional with IExCor=  205 and IRadAn=       4 diagonalized for initial guess.
 HarFok:  IExCor=  205 AccDes= 0.00D+00 IRadAn=         4 IDoV= 1 UseB2=F ITyADJ=14
 ICtDFT=  3500011 ScaDFX=  1.000000  1.000000  1.000000  1.000000
 FoFCou: FMM=F IPFlag=           0 FMFlag=      100000 FMFlg1=           0
         NFxFlg=           0 DoJE=T BraDBF=F KetDBF=T FulRan=T
         wScrn=  0.000000 ICntrl=       500 IOpCl=  0 I1Cent=   200000004 NGrid=           0
         NMat0=    1 NMatS0=      1 NMatT0=    0 NMatD0=    1 NMtDS0=    0 NMtDT0=    0
 Petite list used in FoFCou.
 Keep R1 ints in memory in canonical form, NReq=70089006.
 Requested convergence on RMS density matrix=1.00D-08 within 128 cycles.
 Requested convergence on MAX density matrix=1.00D-06.
 Requested convergence on             energy=1.00D-06.
 No special actions if energy rises.
 SCF Done:  E(RHF) =  -601.250446708     A.U. after   13 cycles
            NFock= 13  Conv=0.58D-08     -V/T= 2.0027
 ExpMin= 1.61D-01 ExpMax= 7.00D+03 ExpMxC= 1.05D+03 IAcc=3 IRadAn=         5 AccDes= 0.00D+00
 HarFok:  IExCor=  205 AccDes= 0.00D+00 IRadAn=         5 IDoV=-2 UseB2=F ITyADJ=14
 ICtDFT= 12500011 ScaDFX=  1.000000  1.000000  1.000000  1.000000
 Range of M.O.s used for correlation:    10   150
 NBasis=   150 NAE=    35 NBE=    35 NFC=     9 NFV=     0
 NROrb=    141 NOA=    26 NOB=    26 NVA=   115 NVB=   115

 **** Warning!!: The largest alpha MO coefficient is  0.11646494D+02

 Fully direct method using O(ONN) memory.
 JobTyp=1 Pass  1:  I=  10 to  35 NPSUse= 28 ParTrn=T ParDer=T DoDerP=T.
 Spin components of T(2) and E(2):
     alpha-alpha T2 =       0.5340927007D-01 E2=     -0.1912581187D+00
     alpha-beta  T2 =       0.2799128712D+00 E2=     -0.1007220008D+01
     beta-beta   T2 =       0.5340927007D-01 E2=     -0.1912581187D+00
 ANorm=    0.1177595606D+01
 E2 =    -0.1389736246D+01 EUMP2 =    -0.60264018295345D+03
          IDoAtm=111111111111
          Differentiating once with respect to electric field.
                with respect to dipole field.
          Differentiating once with respect to nuclear coordinates.
 Keep R1 ints in memory in canonical form, NReq=70097056.
          There are     1 degrees of freedom in the 1st order CPHF.  IDoFFX=0 NUNeed=     1.
 LinEq1:  Iter=  0 NonCon=     1 RMS=5.77D-03 Max=1.73D-01 NDo=     1
 AX will form     1 AO Fock derivatives at one time.
 LinEq1:  Iter=  1 NonCon=     1 RMS=2.15D-03 Max=4.74D-02 NDo=     1
 LinEq1:  Iter=  2 NonCon=     1 RMS=6.45D-04 Max=1.99D-02 NDo=     1
 LinEq1:  Iter=  3 NonCon=     1 RMS=2.53D-04 Max=4.75D-03 NDo=     1
 LinEq1:  Iter=  4 NonCon=     1 RMS=9.85D-05 Max=2.37D-03 NDo=     1
 LinEq1:  Iter=  5 NonCon=     1 RMS=3.74D-05 Max=1.35D-03 NDo=     1
 LinEq1:  Iter=  6 NonCon=     1 RMS=1.16D-05 Max=2.07D-04 NDo=     1
 LinEq1:  Iter=  7 NonCon=     1 RMS=4.03D-06 Max=1.33D-04 NDo=     1
 LinEq1:  Iter=  8 NonCon=     1 RMS=1.21D-06 Max=1.93D-05 NDo=     1
 LinEq1:  Iter=  9 NonCon=     1 RMS=3.26D-07 Max=6.03D-06 NDo=     1
 LinEq1:  Iter= 10 NonCon=     1 RMS=8.86D-08 Max=1.42D-06 NDo=     1
 LinEq1:  Iter= 11 NonCon=     1 RMS=2.75D-08 Max=2.87D-07 NDo=     1
 LinEq1:  Iter= 12 NonCon=     1 RMS=1.09D-08 Max=2.52D-07 NDo=     1
 LinEq1:  Iter= 13 NonCon=     1 RMS=3.26D-09 Max=4.88D-08 NDo=     1
 LinEq1:  Iter= 14 NonCon=     1 RMS=6.79D-10 Max=7.59D-09 NDo=     1
 LinEq1:  Iter= 15 NonCon=     1 RMS=1.98D-10 Max=2.91D-09 NDo=     1
 LinEq1:  Iter= 16 NonCon=     0 RMS=5.39D-11 Max=5.98D-10 NDo=     1
 Linear equations converged to 1.000D-10 1.000D-09 after    16 iterations.
 End of Minotr F.D. properties file   721 does not exist.
 End of Minotr F.D. properties file   722 does not exist.
 End of Minotr F.D. properties file   788 does not exist.
 Symmetrizing basis deriv contribution to polar:
 IMax=3 JMax=2 DiffMx= 0.00D+00
 Calling FoFJK, ICntrl=  10002127 FMM=F ISym2X=0 I1Cent= 0 IOpClX= 0 NMat=1 NMatS=1 NMatT=0.
 ***** Axes restored to original set *****
 -------------------------------------------------------------------
 Center     Atomic                   Forces (Hartrees/Bohr)
 Number     Number              X              Y              Z
 -------------------------------------------------------------------
      1        6          -0.008806078   -0.005512361    0.003024794
      2        6          -0.000194955   -0.002612329    0.000703262
      3        6          -0.002253049   -0.000776205    0.000609839
      4        8           0.008464722    0.008280082   -0.003667089
      5        8           0.002046779    0.001314444   -0.000711278
      6        6          -0.001676028   -0.000580479    0.000453636
      7        1           0.002568205   -0.001272530   -0.000145882
      8        1          -0.000530831    0.000786446   -0.000103616
      9        1           0.000641073    0.000076271   -0.000135715
     10        9           0.000065152    0.000211640   -0.000049605
     11        9          -0.000386284   -0.000120081    0.000100452
     12        9           0.000061294    0.000205103   -0.000078799
 -------------------------------------------------------------------
 Cartesian Forces:  Max     0.008806078 RMS     0.002904897

 GradGradGradGradGradGradGradGradGradGradGradGradGradGradGradGradGradGrad
 Berny optimization.
 Using GEDIIS/GDIIS optimizer.
 FormGI is forming the generalized inverse of G from B-inverse, IUseBI=4.
 Internal  Forces:  Max     0.013514156 RMS     0.002243636
 Search for a local minimum.
 Step number   2 out of a maximum of   53
 All quantities printed in internal units (Hartrees-Bohrs-Radians)
 Mixed Optimization -- RFO/linear search
 Update second derivatives using D2CorX and points    1    2
 DE= -7.65D-03 DEPred=-8.57D-03 R= 8.92D-01
 TightC=F SS=  1.41D+00  RLast= 2.47D-01 DXNew= 5.0454D-01 7.4067D-01
 Trust test= 8.92D-01 RLast= 2.47D-01 DXMaxT set to 5.05D-01
 ITU=  1  0
 Use linear search instead of GDIIS.
     Eigenvalues ---    0.00129   0.00930   0.01355   0.01803   0.02394
     Eigenvalues ---    0.06463   0.09011   0.11203   0.12666   0.13270
     Eigenvalues ---    0.13887   0.17400   0.18756   0.20016   0.21872
     Eigenvalues ---    0.23140   0.25228   0.26550   0.31571   0.32553
     Eigenvalues ---    0.35739   0.36892   0.37033   0.37401   0.40520
     Eigenvalues ---    0.49453   0.51807   0.54720   0.73404   0.84097
 RFO step:  Lambda=-3.45570191D-04 EMin= 1.28519201D-03
 Quartic linear search produced a step of -0.08998.
 Iteration  1 RMS(Cart)=  0.00685842 RMS(Int)=  0.00003522
 Iteration  2 RMS(Cart)=  0.00003201 RMS(Int)=  0.00001189
 Iteration  3 RMS(Cart)=  0.00000000 RMS(Int)=  0.00001189
 Variable       Old X    -DE/DX   Delta X   Delta X   Delta X     New X
                                 (Linear)    (Quad)   (Total)
    R1        2.56948   0.00123  -0.00231   0.00462   0.00231   2.57179
    R2        2.48652   0.01351   0.01342   0.01820   0.03162   2.51814
    R3        2.84780   0.00158   0.00108   0.00178   0.00286   2.85066
    R4        2.73113   0.00015   0.00546  -0.00653  -0.00107   2.73006
    R5        2.03494  -0.00004   0.00135  -0.00182  -0.00047   2.03447
    R6        2.35352   0.00253  -0.00330   0.00689   0.00359   2.35711
    R7        2.07448  -0.00006   0.00079  -0.00182  -0.00103   2.07345
    R8        1.87407   0.00284  -0.00119   0.00741   0.00622   1.88028
    R9        2.54396   0.00013   0.00177  -0.00252  -0.00075   2.54321
   R10        2.54816   0.00039   0.00219  -0.00239  -0.00019   2.54797
   R11        2.54398   0.00013   0.00177  -0.00254  -0.00077   2.54321
    A1        2.19148  -0.00130  -0.00520   0.00308  -0.00212   2.18936
    A2        2.14609  -0.00075  -0.00146   0.00097  -0.00048   2.14560
    A3        1.94562   0.00205   0.00666  -0.00405   0.00261   1.94822
    A4        2.07559  -0.00174   0.00525  -0.00780  -0.00255   2.07304
    A5        2.10671  -0.00010   0.00176  -0.01137  -0.00961   2.09710
    A6        2.10089   0.00184  -0.00701   0.01918   0.01216   2.11305
    A7        2.15055  -0.00052  -0.00188   0.00237   0.00049   2.15104
    A8        2.04775   0.00094  -0.00326   0.01056   0.00730   2.05506
    A9        2.08488  -0.00042   0.00514  -0.01293  -0.00779   2.07709
   A10        1.84339   0.00076   0.00518  -0.01584  -0.01066   1.83273
   A11        1.92919  -0.00010   0.00243  -0.00347  -0.00101   1.92818
   A12        1.94348   0.00038   0.00091  -0.00124  -0.00032   1.94316
   A13        1.92918  -0.00010   0.00242  -0.00346  -0.00101   1.92817
   A14        1.88674  -0.00002  -0.00254   0.00384   0.00130   1.88804
   A15        1.88675  -0.00016  -0.00107   0.00084  -0.00018   1.88657
   A16        1.88673  -0.00001  -0.00254   0.00386   0.00132   1.88805
    D1       -0.00003  -0.00000  -0.00000   0.00004   0.00004   0.00001
    D2        3.14159  -0.00000   0.00000   0.00001   0.00001  -3.14159
    D3        3.14152  -0.00000   0.00001   0.00008   0.00009  -3.14158
    D4       -0.00006  -0.00000   0.00001   0.00005   0.00006  -0.00000
    D5       -0.00002   0.00000  -0.00000   0.00006   0.00005   0.00003
    D6       -3.14156   0.00000  -0.00001   0.00002   0.00001  -3.14156
    D7        2.09809   0.00016  -0.00096   0.00089  -0.00005   2.09803
    D8        0.00058  -0.00000   0.00000  -0.00080  -0.00080  -0.00022
    D9       -2.09691  -0.00016   0.00097  -0.00253  -0.00158  -2.09848
   D10       -1.04355   0.00016  -0.00096   0.00093  -0.00001  -1.04356
   D11       -3.14106  -0.00000   0.00001  -0.00077  -0.00076   3.14137
   D12        1.04464  -0.00017   0.00098  -0.00249  -0.00153   1.04311
   D13        0.00007  -0.00000   0.00001  -0.00013  -0.00012  -0.00006
   D14       -3.14151  -0.00000   0.00001  -0.00014  -0.00014   3.14154
   D15       -3.14154  -0.00000   0.00001  -0.00010  -0.00010   3.14155
   D16        0.00006  -0.00000   0.00001  -0.00011  -0.00011  -0.00004
         Item               Value     Threshold  Converged?
 Maximum Force            0.013514     0.000450     NO 
 RMS     Force            0.002244     0.000300     NO 
 Maximum Displacement     0.023079     0.001800     NO 
 RMS     Displacement     0.006856     0.001200     NO 
 Predicted change in Energy=-2.540882D-04
 GradGradGradGradGradGradGradGradGradGradGradGradGradGradGradGradGradGrad

                          Input orientation:                          
 ---------------------------------------------------------------------
 Center     Atomic      Atomic             Coordinates (Angstroms)
 Number     Number       Type             X           Y           Z
 ---------------------------------------------------------------------
      1          6           0       -0.392155    3.388382   -0.079847
      2          6           0       -0.251925    2.070972    0.231443
      3          6           0        1.059683    1.471605    0.144486
      4          8           0        0.591292    4.199678   -0.467533
      5          8           0        2.078025    2.102288   -0.203442
      6          6           0       -1.716421    4.108451   -0.021434
      7          1           0        1.407820    3.631089   -0.471713
      8          1           0       -1.107744    1.493163    0.536023
      9          1           0        1.153416    0.408504    0.399300
     10          9           0       -1.656466    5.134533    0.847338
     11          9           0       -2.707105    3.282334    0.371076
     12          9           0       -2.036992    4.603310   -1.231205
 ---------------------------------------------------------------------
                    Distance matrix (angstroms):
                    1          2          3          4          5
     1  C    0.000000
     2  C    1.360932   0.000000
     3  C    2.414994   1.444687   0.000000
     4  O    1.332543   2.393946   2.834845   0.000000
     5  O    2.787670   2.370395   1.247331   2.584408   0.000000
     6  C    1.508506   2.521908   3.832394   2.352205   4.296002
     7  H    1.858057   2.383936   2.272504   0.995002   1.690673
     8  H    2.117362   1.076595   2.202613   3.349489   3.326704
     9  H    3.390878   2.183337   1.097224   3.929426   2.021659
    10  F    2.346741   3.425998   4.613947   2.766813   4.923928
    11  F    2.360841   2.741314   4.185544   3.524799   4.961859
    12  F    2.346734   3.426155   4.614055   2.766584   4.923897
                    6          7          8          9         10
     6  C    0.000000
     7  H    3.192414   0.000000
     8  H    2.742440   3.451713   0.000000
     9  H    4.701340   3.347901   2.511578   0.000000
    10  F    1.345809   3.659246   3.695617   5.516478   0.000000
    11  F    1.348328   4.214799   2.405473   4.812829   2.182042
    12  F    1.345807   3.659067   3.695891   5.516670   2.178838
                   11         12
    11  F    0.000000
    12  F    2.182048   0.000000
 Stoichiometry    C4H3F3O2
 Framework group  C1[X(C4H3F3O2)]
 Deg. of freedom    30
 Full point group                 C1      NOp   1
 Largest Abelian subgroup         C1      NOp   1
 Largest concise Abelian subgroup C1      NOp   1
                         Standard orientation:                         
 ---------------------------------------------------------------------
 Center     Atomic      Atomic             Coordinates (Angstroms)
 Number     Number       Type             X           Y           Z
 ---------------------------------------------------------------------
      1          6           0        0.196380   -0.101274   -0.000004
      2          6           0        1.054393    0.955112    0.000006
      3          6           0        2.475764    0.696604   -0.000014
      4          8           0        0.551926   -1.385508   -0.000019
      5          8           0        2.961886   -0.452099    0.000019
      6          6           0       -1.303444    0.060338    0.000003
      7          1           0        1.546894   -1.377396    0.000011
      8          1           0        0.672770    1.961800    0.000019
      9          1           0        3.152096    1.560592   -0.000058
     10          9           0       -1.839496   -0.519916   -1.089563
     11          9           0       -1.656618    1.361590    0.000297
     12          9           0       -1.839532   -0.520431    1.089275
 ---------------------------------------------------------------------
 Rotational constants (GHZ):           3.3766032           1.0295514           0.9182832
 Standard basis: 6-31G(d,p) (6D, 7F)
 There are   150 symmetry adapted cartesian basis functions of A   symmetry.
 There are   150 symmetry adapted basis functions of A   symmetry.
   150 basis functions,   273 primitive gaussians,   150 cartesian basis functions
    35 alpha electrons       35 beta electrons
       nuclear repulsion energy       478.2025349197 Hartrees.
 NAtoms=   12 NActive=   12 NUniq=   12 SFac= 1.00D+00 NAtFMM=   60 NAOKFM=F Big=F
 Integral buffers will be    131072 words long.
 Raffenetti 1 integral format.
 Two-electron integral symmetry is turned on.
 One-electron integrals computed using PRISM.
 NBasis=   150 RedAO= T EigKep=  1.35D-03  NBF=   150
 NBsUse=   150 1.00D-06 EigRej= -1.00D+00 NBFU=   150
 Initial guess from the checkpoint file:  "14.chk"
 B after Tr=     0.000000    0.000000    0.000000
         Rot=    1.000000   -0.000225    0.000009   -0.000758 Ang=  -0.09 deg.
 ExpMin= 1.61D-01 ExpMax= 7.00D+03 ExpMxC= 1.05D+03 IAcc=2 IRadAn=         4 AccDes= 0.00D+00
 Harris functional with IExCor=  205 and IRadAn=       4 diagonalized for initial guess.
 HarFok:  IExCor=  205 AccDes= 0.00D+00 IRadAn=         4 IDoV= 1 UseB2=F ITyADJ=14
 ICtDFT=  3500011 ScaDFX=  1.000000  1.000000  1.000000  1.000000
 FoFCou: FMM=F IPFlag=           0 FMFlag=      100000 FMFlg1=           0
         NFxFlg=           0 DoJE=T BraDBF=F KetDBF=T FulRan=T
         wScrn=  0.000000 ICntrl=       500 IOpCl=  0 I1Cent=   200000004 NGrid=           0
         NMat0=    1 NMatS0=      1 NMatT0=    0 NMatD0=    1 NMtDS0=    0 NMtDT0=    0
 Petite list used in FoFCou.
 Keep R1 ints in memory in canonical form, NReq=70088772.
 Requested convergence on RMS density matrix=1.00D-08 within 128 cycles.
 Requested convergence on MAX density matrix=1.00D-06.
 Requested convergence on             energy=1.00D-06.
 No special actions if energy rises.
 SCF Done:  E(RHF) =  -601.249299227     A.U. after   12 cycles
            NFock= 12  Conv=0.29D-08     -V/T= 2.0028
 ExpMin= 1.61D-01 ExpMax= 7.00D+03 ExpMxC= 1.05D+03 IAcc=3 IRadAn=         5 AccDes= 0.00D+00
 HarFok:  IExCor=  205 AccDes= 0.00D+00 IRadAn=         5 IDoV=-2 UseB2=F ITyADJ=14
 ICtDFT= 12500011 ScaDFX=  1.000000  1.000000  1.000000  1.000000
 Range of M.O.s used for correlation:    10   150
 NBasis=   150 NAE=    35 NBE=    35 NFC=     9 NFV=     0
 NROrb=    141 NOA=    26 NOB=    26 NVA=   115 NVB=   115

 **** Warning!!: The largest alpha MO coefficient is  0.11613307D+02

 Fully direct method using O(ONN) memory.
 JobTyp=1 Pass  1:  I=  10 to  35 NPSUse= 28 ParTrn=T ParDer=T DoDerP=T.
 Spin components of T(2) and E(2):
     alpha-alpha T2 =       0.5355814802D-01 E2=     -0.1914100540D+00
     alpha-beta  T2 =       0.2807974803D+00 E2=     -0.1008247864D+01
     beta-beta   T2 =       0.5355814802D-01 E2=     -0.1914100540D+00
 ANorm=    0.1178097524D+01
 E2 =    -0.1391067971D+01 EUMP2 =    -0.60264036719868D+03
          IDoAtm=111111111111
          Differentiating once with respect to electric field.
                with respect to dipole field.
          Differentiating once with respect to nuclear coordinates.
 Keep R1 ints in memory in canonical form, NReq=70096866.
          There are     1 degrees of freedom in the 1st order CPHF.  IDoFFX=0 NUNeed=     1.
 LinEq1:  Iter=  0 NonCon=     1 RMS=5.80D-03 Max=1.77D-01 NDo=     1
 AX will form     1 AO Fock derivatives at one time.
 LinEq1:  Iter=  1 NonCon=     1 RMS=2.17D-03 Max=4.70D-02 NDo=     1
 LinEq1:  Iter=  2 NonCon=     1 RMS=6.56D-04 Max=2.05D-02 NDo=     1
 LinEq1:  Iter=  3 NonCon=     1 RMS=2.56D-04 Max=4.65D-03 NDo=     1
 LinEq1:  Iter=  4 NonCon=     1 RMS=1.00D-04 Max=2.37D-03 NDo=     1
 LinEq1:  Iter=  5 NonCon=     1 RMS=3.81D-05 Max=1.35D-03 NDo=     1
 LinEq1:  Iter=  6 NonCon=     1 RMS=1.20D-05 Max=2.21D-04 NDo=     1
 LinEq1:  Iter=  7 NonCon=     1 RMS=4.22D-06 Max=1.36D-04 NDo=     1
 LinEq1:  Iter=  8 NonCon=     1 RMS=1.29D-06 Max=2.15D-05 NDo=     1
 LinEq1:  Iter=  9 NonCon=     1 RMS=3.45D-07 Max=5.76D-06 NDo=     1
 LinEq1:  Iter= 10 NonCon=     1 RMS=1.12D-07 Max=2.27D-06 NDo=     1
 LinEq1:  Iter= 11 NonCon=     1 RMS=3.70D-08 Max=4.79D-07 NDo=     1
 LinEq1:  Iter= 12 NonCon=     1 RMS=1.39D-08 Max=3.32D-07 NDo=     1
 LinEq1:  Iter= 13 NonCon=     1 RMS=3.55D-09 Max=5.00D-08 NDo=     1
 LinEq1:  Iter= 14 NonCon=     1 RMS=7.10D-10 Max=8.37D-09 NDo=     1
 LinEq1:  Iter= 15 NonCon=     1 RMS=2.01D-10 Max=3.10D-09 NDo=     1
 LinEq1:  Iter= 16 NonCon=     0 RMS=5.04D-11 Max=6.22D-10 NDo=     1
 Linear equations converged to 1.000D-10 1.000D-09 after    16 iterations.
 End of Minotr F.D. properties file   721 does not exist.
 End of Minotr F.D. properties file   722 does not exist.
 End of Minotr F.D. properties file   788 does not exist.
 Symmetrizing basis deriv contribution to polar:
 IMax=3 JMax=2 DiffMx= 0.00D+00
 Calling FoFJK, ICntrl=  10002127 FMM=F ISym2X=0 I1Cent= 0 IOpClX= 0 NMat=1 NMatS=1 NMatT=0.
 ***** Axes restored to original set *****
 -------------------------------------------------------------------
 Center     Atomic                   Forces (Hartrees/Bohr)
 Number     Number              X              Y              Z
 -------------------------------------------------------------------
      1        6           0.001963989    0.002285558   -0.000947196
      2        6          -0.000310174    0.000924344   -0.000178895
      3        6           0.000936581   -0.000729303    0.000014505
      4        8          -0.002611970   -0.002473377    0.001110855
      5        8          -0.000155722    0.000235751   -0.000030815
      6        6           0.000883394   -0.000254422   -0.000096657
      7        1           0.000512246    0.000094315   -0.000116712
      8        1          -0.000021973   -0.000269717    0.000072926
      9        1          -0.000245355   -0.000102489    0.000070700
     10        9          -0.000249714    0.000238836    0.000239037
     11        9          -0.000365727   -0.000068479    0.000084427
     12        9          -0.000335576    0.000118984   -0.000222175
 -------------------------------------------------------------------
 Cartesian Forces:  Max     0.002611970 RMS     0.000888456

 GradGradGradGradGradGradGradGradGradGradGradGradGradGradGradGradGradGrad
 Berny optimization.
 Using GEDIIS/GDIIS optimizer.
 FormGI is forming the generalized inverse of G from B-inverse, IUseBI=4.
 Internal  Forces:  Max     0.003287330 RMS     0.000562572
 Search for a local minimum.
 Step number   3 out of a maximum of   53
 All quantities printed in internal units (Hartrees-Bohrs-Radians)
 Mixed Optimization -- En-DIIS/RFO-DIIS
 Update second derivatives using D2CorX and points    1    2    3
 DE= -1.84D-04 DEPred=-2.54D-04 R= 7.25D-01
 TightC=F SS=  1.41D+00  RLast= 3.96D-02 DXNew= 8.4853D-01 1.1874D-01
 Trust test= 7.25D-01 RLast= 3.96D-02 DXMaxT set to 5.05D-01
 ITU=  1  1  0
 Use linear search instead of GDIIS.
     Eigenvalues ---    0.00129   0.00930   0.01355   0.01803   0.02394
     Eigenvalues ---    0.06463   0.09011   0.11058   0.12666   0.13271
     Eigenvalues ---    0.13781   0.17390   0.19822   0.20058   0.21872
     Eigenvalues ---    0.23333   0.25300   0.26563   0.31963   0.32855
     Eigenvalues ---    0.36560   0.37033   0.37414   0.38510   0.41130
     Eigenvalues ---    0.49671   0.51868   0.60079   0.73629   0.83662
 RFO step:  Lambda=-1.10584983D-05 EMin= 1.28519938D-03
 Quartic linear search produced a step of -0.20326.
 Iteration  1 RMS(Cart)=  0.00205321 RMS(Int)=  0.00000323
 Iteration  2 RMS(Cart)=  0.00000435 RMS(Int)=  0.00000024
 Iteration  3 RMS(Cart)=  0.00000000 RMS(Int)=  0.00000024
 Variable       Old X    -DE/DX   Delta X   Delta X   Delta X     New X
                                 (Linear)    (Quad)   (Total)
    R1        2.57179  -0.00005  -0.00047   0.00065   0.00018   2.57197
    R2        2.51814  -0.00329  -0.00643  -0.00069  -0.00712   2.51102
    R3        2.85066   0.00008  -0.00058   0.00086   0.00027   2.85094
    R4        2.73006   0.00073   0.00022   0.00195   0.00216   2.73223
    R5        2.03447   0.00018   0.00010   0.00034   0.00043   2.03490
    R6        2.35711   0.00000  -0.00073   0.00060  -0.00013   2.35698
    R7        2.07345   0.00009   0.00021   0.00005   0.00026   2.07371
    R8        1.88028   0.00037  -0.00126   0.00175   0.00049   1.88077
    R9        2.54321   0.00033   0.00015   0.00062   0.00077   2.54398
   R10        2.54797   0.00034   0.00004   0.00086   0.00090   2.54887
   R11        2.54321   0.00032   0.00016   0.00067   0.00083   2.54403
    A1        2.18936  -0.00024   0.00043  -0.00162  -0.00119   2.18817
    A2        2.14560  -0.00004   0.00010  -0.00159  -0.00149   2.14411
    A3        1.94822   0.00029  -0.00053   0.00321   0.00268   1.95090
    A4        2.07304   0.00038   0.00052   0.00007   0.00058   2.07362
    A5        2.09710   0.00003   0.00195   0.00029   0.00224   2.09934
    A6        2.11305  -0.00040  -0.00247  -0.00035  -0.00282   2.11023
    A7        2.15104  -0.00027  -0.00010  -0.00079  -0.00089   2.15015
    A8        2.05506  -0.00013  -0.00148  -0.00014  -0.00162   2.05343
    A9        2.07709   0.00040   0.00158   0.00093   0.00252   2.07960
   A10        1.83273   0.00073   0.00217   0.00287   0.00503   1.83776
   A11        1.92818   0.00034   0.00021   0.00103   0.00123   1.92941
   A12        1.94316   0.00013   0.00007   0.00009   0.00016   1.94332
   A13        1.92817   0.00034   0.00021   0.00098   0.00119   1.92936
   A14        1.88804  -0.00032  -0.00026  -0.00085  -0.00111   1.88693
   A15        1.88657  -0.00021   0.00004  -0.00045  -0.00041   1.88616
   A16        1.88805  -0.00032  -0.00027  -0.00090  -0.00117   1.88688
    D1        0.00001   0.00000  -0.00001  -0.00002  -0.00003  -0.00002
    D2       -3.14159   0.00000  -0.00000  -0.00003  -0.00003   3.14156
    D3       -3.14158   0.00000  -0.00002  -0.00032  -0.00034   3.14126
    D4       -0.00000   0.00000  -0.00001  -0.00033  -0.00034  -0.00034
    D5        0.00003  -0.00000  -0.00001  -0.00002  -0.00003   0.00000
    D6       -3.14156  -0.00000  -0.00000   0.00025   0.00025  -3.14131
    D7        2.09803  -0.00009   0.00001   0.00162   0.00164   2.09967
    D8       -0.00022   0.00000   0.00016   0.00194   0.00210   0.00188
    D9       -2.09848   0.00009   0.00032   0.00236   0.00268  -2.09581
   D10       -1.04356  -0.00009   0.00000   0.00136   0.00136  -1.04220
   D11        3.14137   0.00000   0.00015   0.00168   0.00183  -3.13998
   D12        1.04311   0.00009   0.00031   0.00209   0.00241   1.04551
   D13       -0.00006   0.00000   0.00003   0.00010   0.00012   0.00007
   D14        3.14154   0.00000   0.00003   0.00010   0.00013  -3.14152
   D15        3.14155   0.00000   0.00002   0.00010   0.00012  -3.14152
   D16       -0.00004   0.00000   0.00002   0.00011   0.00013   0.00009
         Item               Value     Threshold  Converged?
 Maximum Force            0.003287     0.000450     NO 
 RMS     Force            0.000563     0.000300     NO 
 Maximum Displacement     0.005543     0.001800     NO 
 RMS     Displacement     0.002053     0.001200     NO 
 Predicted change in Energy=-1.727030D-05
 GradGradGradGradGradGradGradGradGradGradGradGradGradGradGradGradGradGrad

                          Input orientation:                          
 ---------------------------------------------------------------------
 Center     Atomic      Atomic             Coordinates (Angstroms)
 Number     Number       Type             X           Y           Z
 ---------------------------------------------------------------------
      1          6           0       -0.391060    3.390094   -0.080098
      2          6           0       -0.251615    2.072386    0.230712
      3          6           0        1.060423    1.471149    0.144110
      4          8           0        0.591193    4.197553   -0.465883
      5          8           0        2.078962    2.101753   -0.203129
      6          6           0       -1.716169    4.108904   -0.021552
      7          1           0        1.409720    3.631401   -0.471129
      8          1           0       -1.106616    1.492832    0.535081
      9          1           0        1.151125    0.407633    0.398881
     10          9           0       -1.658418    5.136357    0.846377
     11          9           0       -2.706191    3.282061    0.372726
     12          9           0       -2.039925    4.602186   -1.231604
 ---------------------------------------------------------------------
                    Distance matrix (angstroms):
                    1          2          3          4          5
     1  C    0.000000
     2  C    1.361030   0.000000
     3  C    2.416490   1.445832   0.000000
     4  O    1.328774   2.389960   2.832940   0.000000
     5  O    2.788542   2.370795   1.247261   2.583578   0.000000
     6  C    1.508652   2.521103   3.833361   2.351427   4.297051
     7  H    1.858478   2.383934   2.273152   0.995260   1.691015
     8  H    2.118979   1.076825   2.202133   3.346641   3.326207
     9  H    3.391582   2.183429   1.097361   3.927446   2.023200
    10  F    2.348188   3.427252   4.617253   2.768417   4.927301
    11  F    2.361473   2.740151   4.185577   3.523370   4.962099
    12  F    2.348168   3.425830   4.616074   2.769989   4.926983
                    6          7          8          9         10
     6  C    0.000000
     7  H    3.193949   0.000000
     8  H    2.743215   3.452229   0.000000
     9  H    4.700803   3.349100   2.508706   0.000000
    10  F    1.346215   3.662538   3.698198   5.518570   0.000000
    11  F    1.348803   4.216024   2.405481   4.810604   2.181877
    12  F    1.346244   3.663440   3.695988   5.516843   2.179195
                   11         12
    11  F    0.000000
    12  F    2.181861   0.000000
 Stoichiometry    C4H3F3O2
 Framework group  C1[X(C4H3F3O2)]
 Deg. of freedom    30
 Full point group                 C1      NOp   1
 Largest Abelian subgroup         C1      NOp   1
 Largest concise Abelian subgroup C1      NOp   1
                         Standard orientation:                         
 ---------------------------------------------------------------------
 Center     Atomic      Atomic             Coordinates (Angstroms)
 Number     Number       Type             X           Y           Z
 ---------------------------------------------------------------------
      1          6           0        0.196495   -0.103412   -0.000224
      2          6           0        1.053950    0.953552   -0.000172
      3          6           0        2.476749    0.696503    0.000028
      4          8           0        0.553308   -1.383383   -0.000128
      5          8           0        2.963163   -0.452000    0.000089
      6          6           0       -1.303328    0.059572   -0.000009
      7          1           0        1.548555   -1.378509   -0.000013
      8          1           0        0.673912    1.961085   -0.000289
      9          1           0        3.150749    1.562485    0.000142
     10          9           0       -1.841908   -0.521531   -1.088378
     11          9           0       -1.655656    1.361543   -0.002132
     12          9           0       -1.841123   -0.517710    1.090814
 ---------------------------------------------------------------------
 Rotational constants (GHZ):           3.3795811           1.0286688           0.9178499
 Standard basis: 6-31G(d,p) (6D, 7F)
 There are   150 symmetry adapted cartesian basis functions of A   symmetry.
 There are   150 symmetry adapted basis functions of A   symmetry.
   150 basis functions,   273 primitive gaussians,   150 cartesian basis functions
    35 alpha electrons       35 beta electrons
       nuclear repulsion energy       478.1829841411 Hartrees.
 NAtoms=   12 NActive=   12 NUniq=   12 SFac= 1.00D+00 NAtFMM=   60 NAOKFM=F Big=F
 Integral buffers will be    131072 words long.
 Raffenetti 1 integral format.
 Two-electron integral symmetry is turned on.
 One-electron integrals computed using PRISM.
 NBasis=   150 RedAO= T EigKep=  1.35D-03  NBF=   150
 NBsUse=   150 1.00D-06 EigRej= -1.00D+00 NBFU=   150
 Initial guess from the checkpoint file:  "14.chk"
 B after Tr=     0.000000    0.000000   -0.000000
         Rot=    1.000000    0.000556   -0.000033    0.000036 Ang=   0.06 deg.
 Keep R1 ints in memory in canonical form, NReq=70088772.
 Requested convergence on RMS density matrix=1.00D-08 within 128 cycles.
 Requested convergence on MAX density matrix=1.00D-06.
 Requested convergence on             energy=1.00D-06.
 No special actions if energy rises.
 SCF Done:  E(RHF) =  -601.249462286     A.U. after   11 cycles
            NFock= 11  Conv=0.52D-08     -V/T= 2.0028
 ExpMin= 1.61D-01 ExpMax= 7.00D+03 ExpMxC= 1.05D+03 IAcc=3 IRadAn=         5 AccDes= 0.00D+00
 HarFok:  IExCor=  205 AccDes= 0.00D+00 IRadAn=         5 IDoV=-2 UseB2=F ITyADJ=14
 ICtDFT= 12500011 ScaDFX=  1.000000  1.000000  1.000000  1.000000
 Range of M.O.s used for correlation:    10   150
 NBasis=   150 NAE=    35 NBE=    35 NFC=     9 NFV=     0
 NROrb=    141 NOA=    26 NOB=    26 NVA=   115 NVB=   115

 **** Warning!!: The largest alpha MO coefficient is  0.11601209D+02

 Fully direct method using O(ONN) memory.
 JobTyp=1 Pass  1:  I=  10 to  35 NPSUse= 28 ParTrn=T ParDer=T DoDerP=T.
 Spin components of T(2) and E(2):
     alpha-alpha T2 =       0.5354381043D-01 E2=     -0.1913931804D+00
     alpha-beta  T2 =       0.2807147024D+00 E2=     -0.1008135903D+01
     beta-beta   T2 =       0.5354381043D-01 E2=     -0.1913931804D+00
 ANorm=    0.1178050221D+01
 E2 =    -0.1390922264D+01 EUMP2 =    -0.60264038454942D+03
          IDoAtm=111111111111
          Differentiating once with respect to electric field.
                with respect to dipole field.
          Differentiating once with respect to nuclear coordinates.
 Keep R1 ints in memory in canonical form, NReq=70096866.
          There are     1 degrees of freedom in the 1st order CPHF.  IDoFFX=0 NUNeed=     1.
 LinEq1:  Iter=  0 NonCon=     1 RMS=5.80D-03 Max=1.76D-01 NDo=     1
 AX will form     1 AO Fock derivatives at one time.
 LinEq1:  Iter=  1 NonCon=     1 RMS=2.16D-03 Max=4.72D-02 NDo=     1
 LinEq1:  Iter=  2 NonCon=     1 RMS=6.55D-04 Max=2.04D-02 NDo=     1
 LinEq1:  Iter=  3 NonCon=     1 RMS=2.56D-04 Max=4.68D-03 NDo=     1
 LinEq1:  Iter=  4 NonCon=     1 RMS=1.00D-04 Max=2.38D-03 NDo=     1
 LinEq1:  Iter=  5 NonCon=     1 RMS=3.80D-05 Max=1.36D-03 NDo=     1
 LinEq1:  Iter=  6 NonCon=     1 RMS=1.19D-05 Max=2.18D-04 NDo=     1
 LinEq1:  Iter=  7 NonCon=     1 RMS=4.18D-06 Max=1.36D-04 NDo=     1
 LinEq1:  Iter=  8 NonCon=     1 RMS=1.27D-06 Max=2.11D-05 NDo=     1
 LinEq1:  Iter=  9 NonCon=     1 RMS=3.41D-07 Max=5.83D-06 NDo=     1
 LinEq1:  Iter= 10 NonCon=     1 RMS=1.06D-07 Max=2.09D-06 NDo=     1
 LinEq1:  Iter= 11 NonCon=     1 RMS=3.52D-08 Max=4.45D-07 NDo=     1
 LinEq1:  Iter= 12 NonCon=     1 RMS=1.35D-08 Max=3.26D-07 NDo=     1
 LinEq1:  Iter= 13 NonCon=     1 RMS=3.52D-09 Max=4.96D-08 NDo=     1
 LinEq1:  Iter= 14 NonCon=     1 RMS=7.07D-10 Max=8.26D-09 NDo=     1
 LinEq1:  Iter= 15 NonCon=     1 RMS=2.01D-10 Max=3.07D-09 NDo=     1
 LinEq1:  Iter= 16 NonCon=     0 RMS=5.11D-11 Max=6.22D-10 NDo=     1
 Linear equations converged to 1.000D-10 1.000D-09 after    16 iterations.
 End of Minotr F.D. properties file   721 does not exist.
 End of Minotr F.D. properties file   722 does not exist.
 End of Minotr F.D. properties file   788 does not exist.
 Symmetrizing basis deriv contribution to polar:
 IMax=3 JMax=2 DiffMx= 0.00D+00
 Calling FoFJK, ICntrl=  10002127 FMM=F ISym2X=0 I1Cent= 0 IOpClX= 0 NMat=1 NMatS=1 NMatT=0.
 ***** Axes restored to original set *****
 -------------------------------------------------------------------
 Center     Atomic                   Forces (Hartrees/Bohr)
 Number     Number              X              Y              Z
 -------------------------------------------------------------------
      1        6           0.000017573   -0.000021712    0.000001487
      2        6           0.000129901   -0.000067193   -0.000002580
      3        6          -0.000177922    0.000016361    0.000028342
      4        8          -0.000187408    0.000125239   -0.000001494
      5        8           0.000057047    0.000044484   -0.000022624
      6        6           0.000004789    0.000034777   -0.000006464
      7        1           0.000055351   -0.000124743    0.000021265
      8        1          -0.000006847    0.000012448   -0.000001971
      9        1           0.000016606    0.000003533   -0.000003300
     10        9           0.000021110   -0.000023253   -0.000015109
     11        9           0.000038632    0.000009455   -0.000011425
     12        9           0.000031167   -0.000009396    0.000013872
 -------------------------------------------------------------------
 Cartesian Forces:  Max     0.000187408 RMS     0.000061575

 GradGradGradGradGradGradGradGradGradGradGradGradGradGradGradGradGradGrad
 Berny optimization.
 Using GEDIIS/GDIIS optimizer.
 FormGI is forming the generalized inverse of G from B-inverse, IUseBI=4.
 Internal  Forces:  Max     0.000139919 RMS     0.000048961
 Search for a local minimum.
 Step number   4 out of a maximum of   53
 All quantities printed in internal units (Hartrees-Bohrs-Radians)
 Mixed Optimization -- En-DIIS/RFO-DIIS
 Swapping is turned off.
 Update second derivatives using D2CorX and points    1    2    3    4
 DE= -1.74D-05 DEPred=-1.73D-05 R= 1.00D+00
 TightC=F SS=  1.41D+00  RLast= 1.22D-02 DXNew= 8.4853D-01 3.6581D-02
 Trust test= 1.00D+00 RLast= 1.22D-02 DXMaxT set to 5.05D-01
 ITU=  1  1  1  0
     Eigenvalues ---    0.00129   0.00930   0.01355   0.01803   0.02394
     Eigenvalues ---    0.06463   0.09011   0.10917   0.12666   0.13287
     Eigenvalues ---    0.13719   0.17439   0.19950   0.20727   0.21872
     Eigenvalues ---    0.23735   0.25882   0.26611   0.31966   0.32598
     Eigenvalues ---    0.36103   0.36965   0.37033   0.37552   0.41811
     Eigenvalues ---    0.49698   0.51988   0.59435   0.73836   0.83368
 En-DIIS/RFO-DIIS/Sim-DIIS IScMMF=       -3 using points:     4    3
 RFO step:  Lambda=-4.21461242D-07.
 DidBck=T Rises=F RFO-DIIS coefs:    0.75563    0.24437
 Iteration  1 RMS(Cart)=  0.00135985 RMS(Int)=  0.00000095
 Iteration  2 RMS(Cart)=  0.00000109 RMS(Int)=  0.00000007
 Iteration  3 RMS(Cart)=  0.00000000 RMS(Int)=  0.00000007
 Variable       Old X    -DE/DX   Delta X   Delta X   Delta X     New X
                                 (Linear)    (Quad)   (Total)
    R1        2.57197  -0.00001  -0.00005   0.00012   0.00008   2.57205
    R2        2.51102  -0.00010   0.00174  -0.00195  -0.00021   2.51081
    R3        2.85094  -0.00008  -0.00007  -0.00013  -0.00019   2.85075
    R4        2.73223  -0.00012  -0.00053   0.00007  -0.00046   2.73176
    R5        2.03490  -0.00000  -0.00011   0.00011   0.00000   2.03491
    R6        2.35698   0.00008   0.00003   0.00017   0.00021   2.35719
    R7        2.07371  -0.00000  -0.00006   0.00003  -0.00004   2.07367
    R8        1.88077   0.00012  -0.00012   0.00058   0.00046   1.88123
    R9        2.54398  -0.00003  -0.00019   0.00018  -0.00001   2.54397
[...]
     4   8    -0.11   0.31   0.00     0.14   0.10   0.00     0.00   0.00  -0.11
     5   8     0.26  -0.05  -0.00     0.23  -0.03  -0.00     0.00  -0.00   0.01
     6   6    -0.14  -0.22  -0.00    -0.09   0.16  -0.00     0.00   0.00  -0.10
     7   1    -0.11   0.24   0.00     0.16   0.34   0.00    -0.00   0.00  -0.51
     8   1     0.20   0.18  -0.00    -0.06  -0.10   0.00    -0.00   0.00  -0.35
     9   1    -0.28  -0.06   0.00    -0.53  -0.02   0.00    -0.00  -0.00   0.15
    10   9     0.03   0.06  -0.35     0.12  -0.12   0.10    -0.14  -0.10  -0.11
    11   9     0.24  -0.25  -0.00     0.01   0.33   0.00     0.00  -0.00   0.08
    12   9     0.03   0.06   0.35     0.12  -0.12  -0.10     0.14   0.10  -0.11
                     13                     14                     15
                      A                      A                      A
 Frequencies --    766.3612               799.5949               899.2789
 Red. masses --     12.9190                 1.1367                 1.1312
 Frc consts  --      4.4704                 0.4282                 0.5390
 IR Inten    --      1.9928                56.0731                83.4956
  Atom  AN      X      Y      Z        X      Y      Z        X      Y      Z
     1   6    -0.03  -0.06   0.00    -0.00  -0.00   0.02    -0.00  -0.00   0.04
     2   6     0.19  -0.08  -0.00    -0.00  -0.00  -0.10     0.00  -0.00  -0.02
     3   6     0.27   0.19  -0.00     0.00   0.00  -0.03     0.00   0.00   0.04
     4   8     0.07  -0.10  -0.00    -0.00   0.00   0.01    -0.00   0.00  -0.06
     5   8    -0.16   0.03   0.00    -0.00   0.00   0.01    -0.00   0.00  -0.04
     6   6    -0.30   0.03  -0.00     0.00  -0.00  -0.00    -0.00   0.00  -0.01
     7   1     0.09   0.13  -0.00     0.00   0.00   0.21     0.00   0.00   0.97
     8   1     0.09  -0.11  -0.00     0.00  -0.00   0.97     0.00  -0.00  -0.21
     9   1     0.44   0.06  -0.00     0.00   0.00   0.07    -0.00   0.00  -0.04
    10   9    -0.03  -0.20  -0.34    -0.01  -0.01  -0.01     0.00   0.00   0.00
    11   9     0.02   0.41   0.00     0.00  -0.00   0.00     0.00  -0.00   0.00
    12   9    -0.03  -0.20   0.34     0.01   0.01  -0.01    -0.00  -0.00   0.00
                     16                     17                     18
                      A                      A                      A
 Frequencies --    929.5737              1025.0090              1069.0657
 Red. masses --      5.6636                 1.6249                 2.9836
 Frc consts  --      2.8835                 1.0059                 2.0091
 IR Inten    --      6.8103                 1.4515                18.6198
  Atom  AN      X      Y      Z        X      Y      Z        X      Y      Z
     1   6     0.20   0.05   0.00     0.00  -0.00   0.00    -0.18  -0.03  -0.00
     2   6    -0.17   0.44  -0.00     0.00   0.00   0.08    -0.19   0.10   0.00
     3   6    -0.10  -0.13   0.00    -0.00  -0.00  -0.22     0.24   0.07  -0.00
     4   8     0.02  -0.21  -0.00    -0.00  -0.00  -0.01     0.02  -0.04  -0.00
     5   8     0.13  -0.07  -0.00     0.00   0.00   0.04     0.03  -0.08  -0.00
     6   6     0.05  -0.03  -0.00     0.00  -0.00   0.01    -0.09  -0.02  -0.00
     7   1    -0.02  -0.58   0.00     0.00  -0.00   0.18     0.02   0.25   0.00
     8   1    -0.16   0.46  -0.00     0.00   0.00  -0.09    -0.66  -0.06   0.00
     9   1     0.01  -0.21  -0.00     0.00   0.00   0.95     0.55  -0.16  -0.00
    10   9    -0.04  -0.03  -0.06    -0.00  -0.00  -0.00     0.04   0.02   0.05
    11   9    -0.03   0.10   0.00     0.00  -0.00  -0.00     0.02  -0.03  -0.00
    12   9    -0.04  -0.03   0.06     0.00   0.00  -0.00     0.04   0.02  -0.05
                     19                     20                     21
                      A                      A                      A
 Frequencies --   1142.2633              1251.5146              1271.0576
 Red. masses --      2.0397                12.7462                11.6221
 Frc consts  --      1.5680                11.7626                11.0628
 IR Inten    --     68.2962               277.3354               304.4613
  Atom  AN      X      Y      Z        X      Y      Z        X      Y      Z
     1   6    -0.14   0.04   0.00    -0.00  -0.00  -0.09    -0.01  -0.01   0.00
     2   6     0.05   0.07  -0.00    -0.00   0.00   0.01    -0.06   0.01  -0.00
     3   6    -0.01  -0.00   0.00     0.00   0.00   0.03     0.00   0.00  -0.00
     4   8     0.04  -0.14  -0.00     0.00  -0.00  -0.00     0.03  -0.08   0.00
     5   8    -0.02   0.03   0.00     0.00  -0.00  -0.01     0.02  -0.01   0.00
     6   6    -0.14   0.02   0.00     0.00   0.00   0.90     0.11   0.85  -0.00
     7   1     0.05   0.13   0.00     0.00   0.00   0.12     0.06   0.28   0.00
     8   1     0.87   0.39  -0.00    -0.00   0.00  -0.07    -0.15  -0.01   0.00
     9   1    -0.04   0.02  -0.00     0.00  -0.00  -0.11     0.09  -0.07   0.00
    10   9     0.03   0.02   0.04    -0.11  -0.10  -0.24    -0.07  -0.10  -0.10
    11   9     0.03  -0.04  -0.00     0.00  -0.00  -0.05     0.07  -0.27  -0.00
    12   9     0.03   0.02  -0.04     0.11   0.10  -0.24    -0.07  -0.10   0.10
                     22                     23                     24
                      A                      A                      A
 Frequencies --   1346.4907              1424.9864              1446.1185
 Red. masses --      3.0436                 1.4486                 1.3647
 Frc consts  --      3.2512                 1.7331                 1.6815
 IR Inten    --    343.0593               114.8248                36.8820
  Atom  AN      X      Y      Z        X      Y      Z        X      Y      Z
     1   6    -0.12  -0.06  -0.00     0.01   0.00   0.00    -0.04   0.06  -0.00
     2   6    -0.12  -0.01   0.00     0.12   0.07  -0.00    -0.05  -0.01   0.00
     3   6     0.07   0.03  -0.00    -0.06   0.04   0.00     0.10   0.04  -0.00
     4   8    -0.04  -0.01   0.00    -0.05  -0.07  -0.00     0.04  -0.01  -0.00
     5   8     0.00  -0.00  -0.00     0.04  -0.06  -0.00    -0.02  -0.08   0.00
     6   6     0.35  -0.06  -0.00    -0.00  -0.02   0.00     0.03   0.01   0.00
     7   1     0.02   0.57   0.00     0.06   0.83   0.00    -0.03  -0.32   0.00
     8   1     0.63   0.28  -0.00    -0.33  -0.10   0.00     0.01   0.03  -0.00
     9   1     0.16  -0.04  -0.00    -0.32   0.23   0.00    -0.65   0.66   0.00
    10   9    -0.04  -0.01  -0.03     0.00   0.00   0.00    -0.00  -0.00  -0.00
    11   9    -0.04   0.06   0.00     0.00   0.00   0.00    -0.00   0.00   0.00
    12   9    -0.04  -0.02   0.03     0.00   0.00  -0.00    -0.00  -0.00   0.00
                     25                     26                     27
                      A                      A                      A
 Frequencies --   1504.0028              1700.0905              1740.8799
 Red. masses --      5.2189                 4.4963                 6.2458
 Frc consts  --      6.9554                 7.6568                11.1526
 IR Inten    --    108.5535                86.4919               150.8913
  Atom  AN      X      Y      Z        X      Y      Z        X      Y      Z
     1   6    -0.21   0.42   0.00    -0.21  -0.02  -0.00     0.29   0.36   0.00
     2   6     0.11  -0.09  -0.00     0.17   0.02  -0.00    -0.27  -0.26   0.00
     3   6    -0.01  -0.16   0.00    -0.23   0.33   0.00    -0.08   0.25   0.00
     4   8     0.09  -0.18  -0.00     0.04   0.01  -0.00    -0.02  -0.10  -0.00
     5   8    -0.05   0.13   0.00     0.10  -0.20  -0.00     0.06  -0.15  -0.00
     6   6     0.17  -0.05   0.00     0.09   0.00   0.00    -0.09  -0.03  -0.00
     7   1    -0.00  -0.12   0.00     0.05  -0.73  -0.00     0.03   0.43   0.00
     8   1    -0.63  -0.37  -0.00    -0.06  -0.06   0.00     0.45  -0.05  -0.00
     9   1     0.11  -0.28  -0.00     0.37  -0.18  -0.00     0.36  -0.12  -0.00
    10   9    -0.02  -0.00  -0.02    -0.01  -0.00  -0.00    -0.00   0.00  -0.00
    11   9    -0.00   0.01   0.00    -0.01   0.01   0.00     0.01  -0.01  -0.00
    12   9    -0.02  -0.00   0.02    -0.01  -0.00   0.00    -0.00   0.00   0.00
                     28                     29                     30
                      A                      A                      A
 Frequencies --   3107.0667              3292.9454              3340.8148
 Red. masses --      1.0891                 1.0680                 1.0937
 Frc consts  --      6.1947                 6.8235                 7.1918
 IR Inten    --     95.5134               188.5375                 1.4338
  Atom  AN      X      Y      Z        X      Y      Z        X      Y      Z
     1   6     0.00   0.00   0.00    -0.00   0.01   0.00     0.00   0.00  -0.00
     2   6     0.00   0.00  -0.00    -0.01   0.00   0.00     0.03  -0.08  -0.00
     3   6    -0.06  -0.06   0.00     0.01  -0.01  -0.00    -0.00  -0.00   0.00
     4   8     0.00  -0.00  -0.00    -0.06   0.00   0.00    -0.00   0.00   0.00
     5   8     0.00  -0.00  -0.00    -0.00   0.01   0.00    -0.00   0.00   0.00
     6   6     0.00  -0.00   0.00     0.00  -0.00  -0.00    -0.00  -0.00  -0.00
     7   1    -0.04   0.01   0.00     0.99  -0.11  -0.00     0.06  -0.00  -0.00
     8   1     0.00  -0.03  -0.00     0.01  -0.06  -0.00    -0.35   0.93   0.00
     9   1     0.63   0.77  -0.00     0.01   0.04  -0.00     0.02   0.02  -0.00
    10   9    -0.00  -0.00  -0.00    -0.00  -0.00  -0.00    -0.00   0.00  -0.00
    11   9    -0.00   0.00   0.00     0.00  -0.00  -0.00     0.00   0.00  -0.00
    12   9    -0.00  -0.00   0.00    -0.00  -0.00   0.00    -0.00   0.00   0.00

 -------------------
 - Thermochemistry -
 -------------------
 Temperature   298.150 Kelvin.  Pressure   1.00000 Atm.
 Atom     1 has atomic number  6 and mass  12.00000
 Atom     2 has atomic number  6 and mass  12.00000
 Atom     3 has atomic number  6 and mass  12.00000
 Atom     4 has atomic number  8 and mass  15.99491
 Atom     5 has atomic number  8 and mass  15.99491
 Atom     6 has atomic number  6 and mass  12.00000
 Atom     7 has atomic number  1 and mass   1.00783
 Atom     8 has atomic number  1 and mass   1.00783
 Atom     9 has atomic number  1 and mass   1.00783
 Atom    10 has atomic number  9 and mass  18.99840
 Atom    11 has atomic number  9 and mass  18.99840
 Atom    12 has atomic number  9 and mass  18.99840
 Molecular mass:   140.00851 amu.
 Principal axes and moments of inertia in atomic units:
                           1         2         3
     Eigenvalues --   533.972571754.108111965.89672
           X            0.99991   0.01330  -0.00000
           Y           -0.01330   0.99991   0.00000
           Z            0.00000  -0.00000   1.00000
 This molecule is an asymmetric top.
 Rotational symmetry number  1.
 Warning -- assumption of classical behavior for rotation
           may cause significant error
 Rotational temperatures (Kelvin)      0.16221     0.04938     0.04406
 Rotational constants (GHZ):           3.37984     1.02887     0.91802
 Zero-point vibrational energy     194178.6 (Joules/Mol)
                                   46.40979 (Kcal/Mol)
 Warning -- explicit consideration of  11 degrees of freedom as
           vibrations may cause significant error
 Vibrational temperatures:     65.62   171.32   274.56   377.46   411.13
          (Kelvin)            455.72   483.70   610.14   738.20   841.98
                              860.29  1050.57  1102.62  1150.44  1293.86
                             1337.45  1474.76  1538.15  1643.46  1800.65
                             1828.77  1937.30  2050.24  2080.64  2163.92
                             2446.05  2504.74  4470.38  4737.81  4806.69
 
 Zero-point correction=                           0.073959 (Hartree/Particle)
 Thermal correction to Energy=                    0.081935
 Thermal correction to Enthalpy=                  0.082879
 Thermal correction to Gibbs Free Energy=         0.040346
 Sum of electronic and zero-point Energies=           -602.566426
 Sum of electronic and thermal Energies=              -602.558450
 Sum of electronic and thermal Enthalpies=            -602.557506
 Sum of electronic and thermal Free Energies=         -602.600039
 
                     E (Thermal)             CV                S
                      KCal/Mol        Cal/Mol-Kelvin    Cal/Mol-Kelvin
 Total                   51.415             27.942             89.518
 Electronic               0.000              0.000              0.000
 Translational            0.889              2.981             40.721
 Rotational               0.889              2.981             29.000
 Vibrational             49.637             21.981             19.797
 Vibration     1          0.595              1.979              4.999
 Vibration     2          0.609              1.933              3.115
 Vibration     3          0.634              1.853              2.220
 Vibration     4          0.670              1.742              1.646
 Vibration     5          0.684              1.700              1.499
 Vibration     6          0.704              1.642              1.327
 Vibration     7          0.717              1.603              1.230
 Vibration     8          0.786              1.418              0.878
 Vibration     9          0.868              1.221              0.626
 Vibration    10          0.942              1.063              0.476
 Vibration    11          0.956              1.036              0.453
                       Q            Log10(Q)             Ln(Q)
 Total Bot       0.276813D-18        -18.557813        -42.730943
 Total V=0       0.288935D+16         15.460800         35.599808
 Vib (Bot)       0.875161D-32        -32.057912        -73.816070
 Vib (Bot)    1  0.453421D+01          0.656502          1.511652
 Vib (Bot)    2  0.171658D+01          0.234663          0.540332
 Vib (Bot)    3  0.104850D+01          0.020567          0.047357
 Vib (Bot)    4  0.739501D+00         -0.131061         -0.301780
 Vib (Bot)    5  0.670766D+00         -0.173429         -0.399336
 Vib (Bot)    6  0.594635D+00         -0.225750         -0.519808
 Vib (Bot)    7  0.553647D+00         -0.256767         -0.591227
 Vib (Bot)    8  0.412769D+00         -0.384293         -0.884868
 Vib (Bot)    9  0.316594D+00         -0.499497         -1.150134
 Vib (Bot)   10  0.259033D+00         -0.586646         -1.350802
 Vib (Bot)   11  0.250257D+00         -0.601615         -1.385269
 Vib (V=0)       0.913484D+02          1.960701          4.514681
 Vib (V=0)    1  0.506170D+01          0.704296          1.621702
 Vib (V=0)    2  0.228791D+01          0.359440          0.827641
 Vib (V=0)    3  0.166161D+01          0.220530          0.507789
 Vib (V=0)    4  0.139267D+01          0.143849          0.331223
 Vib (V=0)    5  0.133662D+01          0.126007          0.290141
 Vib (V=0)    6  0.127691D+01          0.106161          0.244444
 Vib (V=0)    7  0.124601D+01          0.095520          0.219943
 Vib (V=0)    8  0.114837D+01          0.060080          0.138340
 Vib (V=0)    9  0.109180D+01          0.038145          0.087831
 Vib (V=0)   10  0.106311D+01          0.026580          0.061203
 Vib (V=0)   11  0.105913D+01          0.024950          0.057449
 Electronic      0.100000D+01          0.000000          0.000000
 Translational   0.651157D+08          7.813686         17.991676
 Rotational      0.485751D+06          5.686414         13.093451
 ***** Axes restored to original set *****
 -------------------------------------------------------------------
 Center     Atomic                   Forces (Hartrees/Bohr)
 Number     Number              X              Y              Z
 -------------------------------------------------------------------
      1        6          -0.000002078    0.000001224   -0.000000203
      2        6          -0.000002267   -0.000005547    0.000001065
      3        6          -0.000011541   -0.000007417    0.000004447
      4        8          -0.000026458    0.000021985    0.000000763
      5        8           0.000006357    0.000009176   -0.000002967
      6        6          -0.000011144    0.000006682   -0.000002938
      7        1           0.000034432   -0.000021689   -0.000000696
      8        1           0.000003403    0.000000081   -0.000001220
      9        1           0.000000818    0.000001023   -0.000000691
     10        9           0.000003500   -0.000002228   -0.000002067
     11        9           0.000003983    0.000001099   -0.000001082
     12        9           0.000000995   -0.000004388    0.000005589
 -------------------------------------------------------------------
 Cartesian Forces:  Max     0.000034432 RMS     0.000009872

 **********************************************************************

             Second-order Perturbative Anharmonic Analysis

 **********************************************************************

     ==================================================
                      Reference System
     ==================================================

 NOTE: The system is set in Eckart orientation for the anharmonic
       treatment.
 
 Atom           X                  Y                  Z
 ----------------------------------------------------------------
  C      -0.2739621153114   -0.0865478512166   -0.0000478187839
  C      -1.1174505876120    0.9816485589354   -0.0000386703316
  C      -2.5432268844264    0.7431408243800    0.0000052914882
  O      -0.6476076164754   -1.3615926977012   -0.0000148303315
  O      -3.0444528362882   -0.3990955952628    0.0000188928539
  C       1.2278274483971    0.0561040213009   -0.0000040774254
  H      -1.6429350984893   -1.3429192333078    0.0000190895949
  H      -0.7240636634638    1.9840465831928   -0.0000700443145
  H      -3.2061728595641    1.6175884522798    0.0000274153031
  F       1.7578870627200   -0.5297356193279    1.0899997184816
  F       1.5977797859627    1.3531406217518   -0.0007609790261
  F       1.7580639250216   -0.5310898060971   -1.0891870485564
 ----------------------------------------------------------------

     ==================================================
               Analysis of the Rotor Symmetry
     ==================================================

 Framework Group : C1  
 Rotor Type      : Asymmetric Top
 Asymm. param.   : Kappa = -0.909952
 Inertia moments : X=   533.97257 , Y=  1754.10811 , Z=  1965.89672
 Representation  : IIIr Representation, Ix < Iy < Iz

 Axes Definition for the Symmetric-Top Representation
 ----------------------------------------------------
 Axis Z automatically chosen to be collinear with X from Eckart orient.
 NOTE: In Vibro-rotational analysis, this will be referred to as the
       spectroscopic orientation.

     ==================================================
                   Data Source Definition
     ==================================================

 Main data sources
 -----------------
 Harmonic data taken from: current calculation
 Anharmonic data taken from: current calculation

     ==================================================
           Input Data Extraction and Preparation
     ==================================================

 Data for Harmonic Potential Energy Surface
 ------------------------------------------

 Definition of the model system: Active modes
 --------------------------------------------
 The 30 Active Modes are:
     1     2     3     4     5     6     7     8     9    10    11    12    13
    14    15    16    17    18    19    20    21    22    23    24    25    26
    27    28    29    30

 Data for Anharmonic Potential Energy Surface
 --------------------------------------------
 ERROR: Missing anharmonic PES.
 Error termination via Lnk1e in /sw/contrib/gaussian/g16/A03/g16/l717.exe at Tue Oct 27 16:37:53 2020.
 Job cpu time:       3 days 17 hours  0 minutes 51.3 seconds.
 Elapsed time:       0 days  3 hours 15 minutes  6.3 seconds.
 File lengths (MBytes):  RWF=   3876 Int=      0 D2E=      0 Chk=     48 Scr=      8
