 argument  1 = 14C.nw
 


============================== echo of input deck ==============================
echo
start 14C_
title "H,MeF,H Chelate"
charge 0

geometry
 zmatrix
  O
  C  1  R1
  C  2  R2  1  A1
  C  3  R3  2  A2  1  D0
  O  4  R4  3  A3  2  D0
  H  1  R5  2  A4  3  D0
  H  2  R6  3  A5  4  D180
  C  3  R7  2  A6  1  D180
  H  4  R8  3  A7  2  D180
  F  8  R9  3  A8  2  D1
  F  8  R10 3  A9  2  D2
  F  8  R11 3  A10 2  D3
  variables
    R1  1.329
    R2  1.363
    A1  124.5
    R3  1.440
    A2  119.5
    R4  1.249
    A3  123.5
    R5  0.994
    A4  105.4
    R6  1.085
    A5  122.5
    R7  1.478
    A6  120.0
    R8  1.099
    A7  117.6
    R9  1.300
    A8  110.0
    D1  90.00
    R10 1.300
    A9  110.0
    D2  -30.0
    R11 1.300
    A10 110.0
    D3  -150.0
  constants
    D0  0.000
    D180 180.0
 end
end

basis spherical
 * library aug-cc-pVDZ
end

set lindep:n_dep 0

set cphf:maxsub 95
set cphf:maxiter 999
set int:acc_std 1d-16
set fock:densityscreen f

scf
 maxiter 99
 vectors input atomic
 thresh 1d-9
 tol2e 1d-15
end

mp2
 freeze atomic
 tight
end

driver
 clear
 maxiter 99
 tight
end

set "mp2:aotol2e fock" 1d-15
set mp2:aotol2e 1d-15
set mp2:backtol 1d-15


task mp2 optimize
task mp2 frequencies


================================================================================


                                         
                                         
 
 
             Northwest Computational Chemistry Package (NWChem) 7.0.0
             --------------------------------------------------------
 
 
                    Environmental Molecular Sciences Laboratory
                       Pacific Northwest National Laboratory
                                Richland, WA 99352
 
                              Copyright (c) 1994-2020
                       Pacific Northwest National Laboratory
                            Battelle Memorial Institute
 
             NWChem is an open-source computational chemistry package
                        distributed under the terms of the
                      Educational Community License (ECL) 2.0
             A copy of the license is included with this distribution
                              in the LICENSE.TXT file
 
                                  ACKNOWLEDGMENT
                                  --------------

            This software and its documentation were developed at the
            EMSL at Pacific Northwest National Laboratory, a multiprogram
            national laboratory, operated for the U.S. Department of Energy
            by Battelle under Contract Number DE-AC05-76RL01830. Support
            for this work was provided by the Department of Energy Office
            of Biological and Environmental Research, Office of Basic
            Energy Sciences, and the Office of Advanced Scientific Computing.


           Job information
           ---------------

    hostname        = compute-0-27.local
    program         = /scratch/nwchem.277679
    date            = Tue Apr  6 11:34:13 2021

    compiled        = Wed_Mar_31_13:42:43_2021
    source          = /home/edo/nwchem-7.0.1
    nwchem branch   = 7.0.1
    nwchem revision = de46fdf
    ga revision     = 5.7.1
    use scalapack   = T
    input           = 14C.nw
    prefix          = 14C_.
    data base       = ./14C_.db
    status          = startup
    nproc           =       11
    time left       =     -1s



           Memory information
           ------------------

    heap     =  215205457 doubles =   1641.9 Mbytes
    stack    =  215205459 doubles =   1641.9 Mbytes
    global   =  122974549 doubles =    938.2 Mbytes (distinct from heap & stack)
    total    =  553385465 doubles =   4222.0 Mbytes
    verify   = yes
    hardfail = no 


           Directory information
           ---------------------
 
  0 permanent = .
  0 scratch   = /scratch
 
 
 
 
                                NWChem Input Module
                                -------------------
 
 
                                  H,MeF,H Chelate
                                  ---------------

 Scaling coordinates for geometry "geometry" by  1.889725989
 (inverse scale =  0.529177249)

 C1  symmetry detected
 
 
                             Geometry "geometry" -> ""
                             -------------------------
 
 Output coordinates in angstroms (scale by  1.889725989 to convert to a.u.)
 
  No.       Tag          Charge          X              Y              Z
 ---- ---------------- ---------- -------------- -------------- --------------
    1 O                    8.0000    -1.29442671     2.25619013    -0.00000000
    2 C                    6.0000    -1.18622664     0.93160199    -0.00000000
    3 C                    6.0000    -0.00381852     0.25360490    -0.00000000
    4 C                    6.0000     1.23475500     0.98813579    -0.00000000
    5 O                    8.0000     1.29642406     2.23561242    -0.00000000
    6 H                    1.0000    -0.36078760     2.59729718    -0.00000000
    7 H                    1.0000    -2.14714368     0.42775337    -0.00000000
    8 C                    6.0000     0.00056381    -1.22438860     0.00000000
    9 H                    1.0000     2.16949274     0.41015106    -0.00000000
   10 F                    9.0000     0.00188214    -1.66901283    -1.22160041
   11 F                    9.0000    -1.05605019    -1.67214966     0.61080020
   12 F                    9.0000     1.05981448    -1.66587601     0.61080020
 
      Atomic Mass 
      ----------- 
 
      O                 15.994910
      C                 12.000000
      H                  1.007825
      F                 18.998400
 

 Effective nuclear repulsion energy (a.u.)     486.5385930511

            Nuclear Dipole moment (a.u.) 
            ----------------------------
        X                 Y               Z
 ---------------- ---------------- ----------------
     0.0000000000    -0.0000000000    -0.0000000000
 


                                Z-matrix (user)
                                -------- 

 Units are Angstrom for bonds and degrees for angles

  Constants are marked with an asterisk (*).

  Constrained variables are marked with a plus sign (+).

 
      Type          Name      I     J     K     L     M      Value
      ----------- --------  ----- ----- ----- ----- ----- ----------
    1 Stretch      R1          2     1                       1.32900
    2 Stretch      R2          3     2                       1.36300
    3 Bend         A1          3     2     1               124.50000
    4 Stretch      R3          4     3                       1.44000
    5 Bend         A2          4     3     2               119.50000
    6*Torsion      D0          4     3     2     1           0.00000
    7 Stretch      R4          5     4                       1.24900
    8 Bend         A3          5     4     3               123.50000
    9*Torsion      D0          5     4     3     2           0.00000
   10 Stretch      R5          6     1                       0.99400
   11 Bend         A4          6     1     2               105.40000
   12*Torsion      D0          6     1     2     3           0.00000
   13 Stretch      R6          7     2                       1.08500
   14 Bend         A5          7     2     3               122.50000
   15*Torsion      D180        7     2     3     4         180.00000
   16 Stretch      R7          8     3                       1.47800
   17 Bend         A6          8     3     2               120.00000
   18*Torsion      D180        8     3     2     1         180.00000
   19 Stretch      R8          9     4                       1.09900
   20 Bend         A7          9     4     3               117.60000
   21*Torsion      D180        9     4     3     2         180.00000
   22 Stretch      R9         10     8                       1.30000
   23 Bend         A8         10     8     3               110.00000
   24 Torsion      D1         10     8     3     2          90.00000
   25 Stretch      R10        11     8                       1.30000
   26 Bend         A9         11     8     3               110.00000
   27 Torsion      D2         11     8     3     2         -30.00000
   28 Stretch      R11        12     8                       1.30000
   29 Bend         A10        12     8     3               110.00000
   30 Torsion      D3         12     8     3     2        -150.00000
 
 
            XYZ format geometry
            -------------------
    12
 geometry
 O                    -1.29442671     2.25619013    -0.00000000
 C                    -1.18622664     0.93160199    -0.00000000
 C                    -0.00381852     0.25360490    -0.00000000
 C                     1.23475500     0.98813579    -0.00000000
 O                     1.29642406     2.23561242    -0.00000000
 H                    -0.36078760     2.59729718    -0.00000000
 H                    -2.14714368     0.42775337    -0.00000000
 C                     0.00056381    -1.22438860     0.00000000
 H                     2.16949274     0.41015106    -0.00000000
 F                     0.00188214    -1.66901283    -1.22160041
 F                    -1.05605019    -1.67214966     0.61080020
 F                     1.05981448    -1.66587601     0.61080020
 
 ==============================================================================
                                internuclear distances
 ------------------------------------------------------------------------------
       center one      |      center two      | atomic units |  angstroms
 ------------------------------------------------------------------------------
    2 C                |   1 O                |     2.51145  |     1.32900
    3 C                |   2 C                |     2.57570  |     1.36300
    4 C                |   3 C                |     2.72121  |     1.44000
    5 O                |   4 C                |     2.36027  |     1.24900
    6 H                |   1 O                |     1.87839  |     0.99400
    7 H                |   2 C                |     2.05035  |     1.08500
    8 C                |   3 C                |     2.79302  |     1.47800
    9 H                |   4 C                |     2.07681  |     1.09900
   10 F                |   8 C                |     2.45664  |     1.30000
   11 F                |   8 C                |     2.45664  |     1.30000
   12 F                |   8 C                |     2.45664  |     1.30000
 ------------------------------------------------------------------------------
                         number of included internuclear distances:         11
 ==============================================================================



 ==============================================================================
                                 internuclear angles
 ------------------------------------------------------------------------------
        center 1       |       center 2       |       center 3       |  degrees
 ------------------------------------------------------------------------------
    2 C                |   1 O                |   6 H                |   105.40
    1 O                |   2 C                |   3 C                |   124.50
    1 O                |   2 C                |   7 H                |   113.00
    3 C                |   2 C                |   7 H                |   122.50
    2 C                |   3 C                |   4 C                |   119.50
    2 C                |   3 C                |   8 C                |   120.00
    4 C                |   3 C                |   8 C                |   120.50
    3 C                |   4 C                |   5 O                |   123.50
    3 C                |   4 C                |   9 H                |   117.60
    5 O                |   4 C                |   9 H                |   118.90
    3 C                |   8 C                |  10 F                |   110.00
    3 C                |   8 C                |  11 F                |   110.00
    3 C                |   8 C                |  12 F                |   110.00
   10 F                |   8 C                |  11 F                |   108.94
   10 F                |   8 C                |  12 F                |   108.94
   11 F                |   8 C                |  12 F                |   108.94
 ------------------------------------------------------------------------------
                            number of included internuclear angles:         16
 ==============================================================================





 Summary of "ao basis" -> "" (spherical)
 ------------------------------------------------------------------------------
       Tag                 Description            Shells   Functions and Types
 ---------------- ------------------------------  ------  ---------------------
 *                        aug-cc-pVDZ                 on all atoms 


 
  Deleted DRIVER restart files 
 
 
 
                           NWChem Geometry Optimization
                           ----------------------------
 
 
 
 
                                  H,MeF,H Chelate
 
 
 maximum gradient threshold         (gmax) =   0.000015
 rms gradient threshold             (grms) =   0.000010
 maximum cartesian step threshold   (xmax) =   0.000060
 rms cartesian step threshold       (xrms) =   0.000040
 fixed trust radius                (trust) =   0.300000
 maximum step size to saddle      (sadstp) =   0.100000
 energy precision                  (eprec) =   1.0D-07
 maximum number of steps          (nptopt) =   99
 initial hessian option           (inhess) =    0
 line search option               (linopt) =    1
 hessian update option            (modupd) =    1
 saddle point option              (modsad) =    0
 initial eigen-mode to follow     (moddir) =    0
 initial variable to follow       (vardir) =    0
 follow first negative mode     (firstneg) =    T
 apply conjugacy                    (opcg) =    F
 source of zmatrix                         =   user    


          -------------------
          Energy Minimization
          -------------------

 
 Names of Z-matrix variables 
    1 R1           2 R2           3 A1           4 R3           5 A2      
    6 D0           7 R4           8 A3           9 D0          10 R5      
   11 A4          12 D0          13 R6          14 A5          15 D180    
   16 R7          17 A6          18 D180        19 R8          20 A7      
   21 D180        22 R9          23 A8          24 D1          25 R10     
   26 A9          27 D2          28 R11         29 A10         30 D3      
 
 Variables with the same non-blank name are constrained to be equal
 
     variables named       D0 =     6    9   12 
     variables named     D180 =    15   18   21 

 Number of frozen variables =    6
           Frozen variables =    6    9   12   15   18   21
 
 Using diagonal initial Hessian 
 Scaling for Hessian diagonals: bonds = 1.00  angles = 0.25  torsions = 0.10

          --------
          Step   0
          --------
 
 
                         Geometry "geometry" -> "geometry"
                         ---------------------------------
 
 Output coordinates in angstroms (scale by  1.889725989 to convert to a.u.)
 
  No.       Tag          Charge          X              Y              Z
 ---- ---------------- ---------- -------------- -------------- --------------
    1 O                    8.0000    -1.29442671     2.25619013    -0.00000000
    2 C                    6.0000    -1.18622664     0.93160199    -0.00000000
    3 C                    6.0000    -0.00381852     0.25360490    -0.00000000
    4 C                    6.0000     1.23475500     0.98813579    -0.00000000
    5 O                    8.0000     1.29642406     2.23561242    -0.00000000
    6 H                    1.0000    -0.36078760     2.59729718    -0.00000000
    7 H                    1.0000    -2.14714368     0.42775337    -0.00000000
    8 C                    6.0000     0.00056381    -1.22438860     0.00000000
    9 H                    1.0000     2.16949274     0.41015106    -0.00000000
   10 F                    9.0000     0.00188214    -1.66901283    -1.22160041
   11 F                    9.0000    -1.05605019    -1.67214966     0.61080020
   12 F                    9.0000     1.05981448    -1.66587601     0.61080020
 
      Atomic Mass 
      ----------- 
 
      O                 15.994910
      C                 12.000000
      H                  1.007825
      F                 18.998400
 

 Effective nuclear repulsion energy (a.u.)     486.5385930511

            Nuclear Dipole moment (a.u.) 
            ----------------------------
        X                 Y               Z
 ---------------- ---------------- ----------------
     0.0000000000    -0.0000000000    -0.0000000000
 
                      Basis "ao basis" -> "ao basis" (spherical)
                      -----
  O (Oxygen)
  ----------
            Exponent  Coefficients 
       -------------- ---------------------------------------------------------
  1 S  1.17200000E+04  0.000710
  1 S  1.75900000E+03  0.005470
  1 S  4.00800000E+02  0.027837
  1 S  1.13700000E+02  0.104800
  1 S  3.70300000E+01  0.283062
  1 S  1.32700000E+01  0.448719
  1 S  5.02500000E+00  0.270952
  1 S  1.01300000E+00  0.015458
 
  2 S  1.17200000E+04 -0.000160
  2 S  1.75900000E+03 -0.001263
  2 S  4.00800000E+02 -0.006267
  2 S  1.13700000E+02 -0.025716
  2 S  3.70300000E+01 -0.070924
  2 S  1.32700000E+01 -0.165411
  2 S  5.02500000E+00 -0.116955
  2 S  1.01300000E+00  0.557368
 
  3 S  3.02300000E-01  1.000000
 
  4 S  7.89600000E-02  1.000000
 
  5 P  1.77000000E+01  0.043018
  5 P  3.85400000E+00  0.228913
  5 P  1.04600000E+00  0.508728
 
  6 P  2.75300000E-01  1.000000
 
  7 P  6.85600000E-02  1.000000
 
  8 D  1.18500000E+00  1.000000
 
  9 D  3.32000000E-01  1.000000
 
  C (Carbon)
  ----------
            Exponent  Coefficients 
       -------------- ---------------------------------------------------------
  1 S  6.66500000E+03  0.000692
  1 S  1.00000000E+03  0.005329
  1 S  2.28000000E+02  0.027077
  1 S  6.47100000E+01  0.101718
  1 S  2.10600000E+01  0.274740
  1 S  7.49500000E+00  0.448564
  1 S  2.79700000E+00  0.285074
  1 S  5.21500000E-01  0.015204
 
  2 S  6.66500000E+03 -0.000146
  2 S  1.00000000E+03 -0.001154
  2 S  2.28000000E+02 -0.005725
  2 S  6.47100000E+01 -0.023312
  2 S  2.10600000E+01 -0.063955
  2 S  7.49500000E+00 -0.149981
  2 S  2.79700000E+00 -0.127262
  2 S  5.21500000E-01  0.544529
 
  3 S  1.59600000E-01  1.000000
 
  4 S  4.69000000E-02  1.000000
 
  5 P  9.43900000E+00  0.038109
  5 P  2.00200000E+00  0.209480
  5 P  5.45600000E-01  0.508557
 
  6 P  1.51700000E-01  1.000000
 
  7 P  4.04100000E-02  1.000000
 
  8 D  5.50000000E-01  1.000000
 
  9 D  1.51000000E-01  1.000000
 
  H (Hydrogen)
  ------------
            Exponent  Coefficients 
       -------------- ---------------------------------------------------------
  1 S  1.30100000E+01  0.019685
  1 S  1.96200000E+00  0.137977
  1 S  4.44600000E-01  0.478148
 
  2 S  1.22000000E-01  1.000000
 
  3 S  2.97400000E-02  1.000000
 
  4 P  7.27000000E-01  1.000000
 
  5 P  1.41000000E-01  1.000000
 
  F (Fluorine)
  ------------
            Exponent  Coefficients 
       -------------- ---------------------------------------------------------
  1 S  1.47100000E+04  0.000721
  1 S  2.20700000E+03  0.005553
  1 S  5.02800000E+02  0.028267
  1 S  1.42600000E+02  0.106444
  1 S  4.64700000E+01  0.286814
  1 S  1.67000000E+01  0.448641
  1 S  6.35600000E+00  0.264761
  1 S  1.31600000E+00  0.015333
 
  2 S  1.47100000E+04 -0.000165
  2 S  2.20700000E+03 -0.001308
  2 S  5.02800000E+02 -0.006495
  2 S  1.42600000E+02 -0.026691
  2 S  4.64700000E+01 -0.073690
  2 S  1.67000000E+01 -0.170776
  2 S  6.35600000E+00 -0.112327
  2 S  1.31600000E+00  0.562814
 
  3 S  3.89700000E-01  1.000000
 
  4 S  9.86300000E-02  1.000000
 
  5 P  2.26700000E+01  0.044878
  5 P  4.97700000E+00  0.235718
  5 P  1.34700000E+00  0.508521
 
  6 P  3.47100000E-01  1.000000
 
  7 P  8.50200000E-02  1.000000
 
  8 D  1.64000000E+00  1.000000
 
  9 D  4.64000000E-01  1.000000
 


 Summary of "ao basis" -> "ao basis" (spherical)
 ------------------------------------------------------------------------------
       Tag                 Description            Shells   Functions and Types
 ---------------- ------------------------------  ------  ---------------------
 O                        aug-cc-pVDZ                9       23   4s3p2d
 C                        aug-cc-pVDZ                9       23   4s3p2d
 H                        aug-cc-pVDZ                5        9   3s2p
 F                        aug-cc-pVDZ                9       23   4s3p2d


                                 NWChem SCF Module
                                 -----------------
 
 
                                  H,MeF,H Chelate
 
 

  ao basis        = "ao basis"
  functions       =   234
  atoms           =    12
  closed shells   =    35
  open shells     =     0
  charge          =   0.00
  wavefunction    = RHF 
  input vectors   = atomic
  output vectors  = ./14C_.movecs
  use symmetry    = F
  symmetry adapt  = F


 Summary of "ao basis" -> "ao basis" (spherical)
 ------------------------------------------------------------------------------
       Tag                 Description            Shells   Functions and Types
 ---------------- ------------------------------  ------  ---------------------
 O                        aug-cc-pVDZ                9       23   4s3p2d
 C                        aug-cc-pVDZ                9       23   4s3p2d
 H                        aug-cc-pVDZ                5        9   3s2p
 F                        aug-cc-pVDZ                9       23   4s3p2d



int_init: setting std/high accuracies to  1.0D-16  1.0D-32

 Forming initial guess at       0.4s


 Forcing the number of linearly dependent vectors to be  0
 
      Superposition of Atomic Density Guess
      -------------------------------------
 
 Sum of atomic energies:        -599.86547455
 
      Non-variational initial energy
      ------------------------------

 Total energy =    -604.108969
 1-e energy   =   -1795.314221
 2-e energy   =     704.666659
 HOMO         =      -0.305728
 LUMO         =      -0.067981
 

 Starting SCF solution at       5.8s



 ----------------------------------------------
         Quadratically convergent ROHF

 Convergence threshold     :          1.000E-09
 Maximum no. of iterations :           99
 Final Fock-matrix accuracy:          1.000E-15
 ----------------------------------------------


              iter       energy          gnorm     gmax       time
             ----- ------------------- --------- --------- --------
                 1     -601.0968101728  2.02D+00  2.75D-01     11.7
                 2     -601.2991931938  5.49D-01  8.22D-02     23.6
                 3     -601.3261448736  5.14D-02  9.05D-03     39.8
                 4     -601.3265415421  1.53D-03  3.90D-04     66.0
                 5     -601.3265420654  2.22D-06  5.97D-07    108.9
                 6     -601.3265420654  1.01D-10  2.24D-11    175.7


       Final RHF  results 
       ------------------ 

         Total SCF energy =   -601.326542065378
      One-electron energy =  -1797.398649482954
      Two-electron energy =    709.533514366427
 Nuclear repulsion energy =    486.538593051149

        Time for solution =    170.0s


             Final eigenvalues
             -----------------

              1      
    1  -26.3703
    2  -26.3694
    3  -26.3637
    4  -20.6368
    5  -20.5886
    6  -11.5256
    7  -11.3813
    8  -11.3747
    9  -11.2645
   10   -1.7819
   11   -1.6765
   12   -1.6721
   13   -1.4597
   14   -1.4021
   15   -1.1378
   16   -0.9926
   17   -0.9375
   18   -0.8744
   19   -0.8631
   20   -0.8584
   21   -0.8375
   22   -0.7409
   23   -0.7371
   24   -0.7082
   25   -0.6890
   26   -0.6882
   27   -0.6786
   28   -0.6675
   29   -0.6582
   30   -0.6336
   31   -0.6214
   32   -0.5709
   33   -0.5529
   34   -0.4567
   35   -0.3940
   36    0.0349
   37    0.0429
   38    0.0489
   39    0.0587
   40    0.0786
   41    0.0797
   42    0.0960
   43    0.1067
   44    0.1192
   45    0.1303
 
                       ROHF Final Molecular Orbital Analysis
                       -------------------------------------
 
 Vector   13  Occ=2.000000D+00  E=-1.459659D+00
              MO Center= -9.6D-01,  2.0D+00, -8.9D-05, r^2= 1.0D+00
   Bfn.  Coefficient  Atom+Function         Bfn.  Coefficient  Atom+Function  
  ----- ------------  ---------------      ----- ------------  ---------------
     3      0.448949   1 O  s                 2      0.390959   1 O  s         
    49     -0.188274   3 C  s                27     -0.185910   2 C  s         
    32     -0.177894   2 C  py              116      0.162540   6 H  s         
    25      0.153287   2 C  s         
 
 Vector   14  Occ=2.000000D+00  E=-1.402057D+00
              MO Center=  1.0D+00,  1.9D+00, -6.2D-05, r^2= 1.1D+00
   Bfn.  Coefficient  Atom+Function         Bfn.  Coefficient  Atom+Function  
  ----- ------------  ---------------      ----- ------------  ---------------
    95      0.446110   5 O  s                94      0.381969   5 O  s         
    72      0.263870   4 C  s                73     -0.219259   4 C  s         
    27      0.213908   2 C  s                71      0.202676   4 C  s         
    54     -0.177883   3 C  px               75      0.162361   4 C  py        
     3     -0.158836   1 O  s         
 
 Vector   15  Occ=2.000000D+00  E=-1.137815D+00
              MO Center= -1.1D-01,  1.4D-01,  2.2D-03, r^2= 2.0D+00
   Bfn.  Coefficient  Atom+Function         Bfn.  Coefficient  Atom+Function  
  ----- ------------  ---------------      ----- ------------  ---------------
    48      0.300837   3 C  s                49      0.201687   3 C  s         
    26      0.189975   2 C  s                25      0.169924   2 C  s         
    50     -0.168859   3 C  s               135      0.164570   8 C  s         
 
 Vector   16  Occ=2.000000D+00  E=-9.926075D-01
              MO Center= -1.4D-01, -9.3D-01,  2.0D-02, r^2= 3.3D+00
   Bfn.  Coefficient  Atom+Function         Bfn.  Coefficient  Atom+Function  
  ----- ------------  ---------------      ----- ------------  ---------------
   137      0.445438   8 C  s               135     -0.301520   8 C  s         
    26      0.258755   2 C  s               172     -0.216872  10 F  pz        
   216      0.203397  12 F  px              193     -0.197324  11 F  px        
    27     -0.186807   2 C  s                58      0.176283   3 C  py        
    25      0.162287   2 C  s               214      0.152850  12 F  s         
 
 Vector   17  Occ=2.000000D+00  E=-9.375167D-01
              MO Center= -1.0D-01,  5.8D-01,  2.2D-02, r^2= 3.4D+00
   Bfn.  Coefficient  Atom+Function         Bfn.  Coefficient  Atom+Function  
  ----- ------------  ---------------      ----- ------------  ---------------
    26      0.519073   2 C  s                72     -0.463455   4 C  s         
    73      0.301087   4 C  s                54      0.293787   3 C  px        
    77      0.259313   4 C  px               27     -0.255963   2 C  s         
    25      0.240097   2 C  s                31      0.237541   2 C  px        
    51     -0.214862   3 C  px               65      0.214375   3 C  d -2      
 
 Vector   18  Occ=2.000000D+00  E=-8.744219D-01
              MO Center=  7.4D-02, -4.5D-01,  3.6D-02, r^2= 4.0D+00
   Bfn.  Coefficient  Atom+Function         Bfn.  Coefficient  Atom+Function  
  ----- ------------  ---------------      ----- ------------  ---------------
   139      0.248802   8 C  py              194      0.224627  11 F  py        
    50      0.204764   3 C  s                72     -0.202274   4 C  s         
    55     -0.189530   3 C  py               27     -0.186744   2 C  s         
   216      0.181102  12 F  px              218      0.177112  12 F  pz        
    52     -0.152098   3 C  py               71     -0.152158   4 C  s         
 
 Vector   19  Occ=2.000000D+00  E=-8.630635D-01
              MO Center= -2.2D-03, -1.6D+00, -2.2D-01, r^2= 1.9D+00
   Bfn.  Coefficient  Atom+Function         Bfn.  Coefficient  Atom+Function  
  ----- ------------  ---------------      ----- ------------  ---------------
   136      0.367954   8 C  s               140     -0.320275   8 C  pz        
   172      0.316420  10 F  pz              193     -0.262010  11 F  px        
   216      0.260978  12 F  px               55      0.239244   3 C  py        
    26     -0.230766   2 C  s                69      0.225916   3 C  d  2      
    72     -0.192824   4 C  s               142      0.184656   8 C  py        
 
 Vector   20  Occ=2.000000D+00  E=-8.584233D-01
              MO Center= -4.1D-02, -1.1D+00,  1.6D-01, r^2= 3.0D+00
   Bfn.  Coefficient  Atom+Function         Bfn.  Coefficient  Atom+Function  
  ----- ------------  ---------------      ----- ------------  ---------------
   138      0.268241   8 C  px              195      0.257316  11 F  pz        
   170      0.218005  10 F  px              217      0.216955  12 F  py        
   193     -0.204511  11 F  px              218     -0.178961  12 F  pz        
   198      0.160998  11 F  pz        
 
 Vector   21  Occ=2.000000D+00  E=-8.374718D-01
              MO Center= -9.0D-02,  8.3D-01,  3.6D-02, r^2= 4.1D+00
   Bfn.  Coefficient  Atom+Function         Bfn.  Coefficient  Atom+Function  
  ----- ------------  ---------------      ----- ------------  ---------------
    28      0.231287   2 C  px                5      0.226810   1 O  px        
   137     -0.214602   8 C  s               116      0.188337   6 H  s         
   157     -0.175184   9 H  s                58     -0.167503   3 C  py        
    74     -0.164004   4 C  px        
 
 Vector   22  Occ=2.000000D+00  E=-7.408538D-01
              MO Center= -7.2D-02, -1.3D+00, -4.5D-02, r^2= 3.0D+00
   Bfn.  Coefficient  Atom+Function         Bfn.  Coefficient  Atom+Function  
  ----- ------------  ---------------      ----- ------------  ---------------
   194     -0.345965  11 F  py              171      0.317633  10 F  py        
   218      0.286234  12 F  pz              197     -0.237917  11 F  py        
   174      0.217350  10 F  py              221      0.197831  12 F  pz        
   170     -0.188161  10 F  px               72     -0.159475   4 C  s         
 
 Vector   23  Occ=2.000000D+00  E=-7.370644D-01
              MO Center=  1.1D-01, -1.5D+00,  3.3D-02, r^2= 2.3D+00
   Bfn.  Coefficient  Atom+Function         Bfn.  Coefficient  Atom+Function  
  ----- ------------  ---------------      ----- ------------  ---------------
   217      0.397148  12 F  py              195     -0.280242  11 F  pz        
   220      0.274107  12 F  py              171     -0.263782  10 F  py        
   170     -0.241655  10 F  px               26      0.202927   2 C  s         
   198     -0.196086  11 F  pz              174     -0.180985  10 F  py        
   173     -0.167902  10 F  px              193     -0.164088  11 F  px        
 
 Vector   24  Occ=2.000000D+00  E=-7.082461D-01
              MO Center= -3.0D-01,  5.0D-01,  5.2D-02, r^2= 4.6D+00
   Bfn.  Coefficient  Atom+Function         Bfn.  Coefficient  Atom+Function  
  ----- ------------  ---------------      ----- ------------  ---------------
     6      0.303085   1 O  py               29     -0.285696   2 C  py        
   216     -0.218465  12 F  px               74      0.197205   4 C  px        
   126      0.188594   7 H  s                 9      0.168575   1 O  py        
   170     -0.162613  10 F  px              125      0.161080   7 H  s         
   136      0.158727   8 C  s         
 
 Vector   25  Occ=2.000000D+00  E=-6.890019D-01
              MO Center=  1.1D-01, -1.0D+00,  1.9D-01, r^2= 3.8D+00
   Bfn.  Coefficient  Atom+Function         Bfn.  Coefficient  Atom+Function  
  ----- ------------  ---------------      ----- ------------  ---------------
   193      0.295591  11 F  px              216      0.287988  12 F  px        
   194     -0.238927  11 F  py               72     -0.215220   4 C  s         
   170      0.202657  10 F  px              196      0.202048  11 F  px        
   217      0.198050  12 F  py              219      0.187583  12 F  px        
   197     -0.179137  11 F  py              220      0.151190  12 F  py        
 
 Vector   26  Occ=2.000000D+00  E=-6.882163D-01
              MO Center= -1.1D-01, -1.5D+00, -1.5D-01, r^2= 2.4D+00
   Bfn.  Coefficient  Atom+Function         Bfn.  Coefficient  Atom+Function  
  ----- ------------  ---------------      ----- ------------  ---------------
   172      0.351527  10 F  pz              218      0.292709  12 F  pz        
   195      0.280944  11 F  pz              194      0.243178  11 F  py        
   171     -0.232190  10 F  py              175      0.227063  10 F  pz        
   221      0.205065  12 F  pz              198      0.192030  11 F  pz        
   197      0.184652  11 F  py              136     -0.179861   8 C  s         
 
 Vector   27  Occ=2.000000D+00  E=-6.785621D-01
              MO Center=  1.8D-02,  9.4D-01, -6.7D-03, r^2= 4.4D+00
   Bfn.  Coefficient  Atom+Function         Bfn.  Coefficient  Atom+Function  
  ----- ------------  ---------------      ----- ------------  ---------------
     5      0.279874   1 O  px              136     -0.220581   8 C  s         
    54     -0.214043   3 C  px               74      0.215051   4 C  px        
    72      0.210205   4 C  s               217      0.207284  12 F  py        
    98     -0.202820   5 O  py               51     -0.189925   3 C  px        
    28      0.184837   2 C  px                8      0.180473   1 O  px        
 
 Vector   28  Occ=2.000000D+00  E=-6.674693D-01
              MO Center=  4.4D-02, -1.5D+00, -1.8D-01, r^2= 2.5D+00
   Bfn.  Coefficient  Atom+Function         Bfn.  Coefficient  Atom+Function  
  ----- ------------  ---------------      ----- ------------  ---------------
   170      0.450421  10 F  px              195     -0.338738  11 F  pz        
   218      0.329091  12 F  pz              173      0.318515  10 F  px        
   198     -0.237474  11 F  pz              221      0.231391  12 F  pz        
    26      0.228547   2 C  s                72     -0.164994   4 C  s         
 
 Vector   29  Occ=2.000000D+00  E=-6.582010D-01
              MO Center=  6.5D-01,  1.2D+00,  9.2D-02, r^2= 4.3D+00
   Bfn.  Coefficient  Atom+Function         Bfn.  Coefficient  Atom+Function  
  ----- ------------  ---------------      ----- ------------  ---------------
    98      0.338308   5 O  py               27      0.307841   2 C  s         
    73     -0.287899   4 C  s                75     -0.274990   4 C  py        
    26     -0.248136   2 C  s                54     -0.215762   3 C  px        
   158      0.205387   9 H  s                95      0.196070   5 O  s         
    31     -0.188301   2 C  px              126     -0.188200   7 H  s         
 
 Vector   30  Occ=2.000000D+00  E=-6.335700D-01
              MO Center= -5.3D-01,  8.5D-01, -2.8D-02, r^2= 3.9D+00
   Bfn.  Coefficient  Atom+Function         Bfn.  Coefficient  Atom+Function  
  ----- ------------  ---------------      ----- ------------  ---------------
    50      0.301093   3 C  s               125      0.257699   7 H  s         
   126      0.257933   7 H  s                28     -0.251771   2 C  px        
     5      0.230603   1 O  px               97     -0.212424   5 O  px        
   116      0.176675   6 H  s               171      0.164324  10 F  py        
   136     -0.162302   8 C  s                51      0.159311   3 C  px        
 
 Vector   31  Occ=2.000000D+00  E=-6.214122D-01
              MO Center= -8.5D-01,  1.7D+00, -8.6D-03, r^2= 2.1D+00
   Bfn.  Coefficient  Atom+Function         Bfn.  Coefficient  Atom+Function  
  ----- ------------  ---------------      ----- ------------  ---------------
     7      0.478943   1 O  pz               10      0.358921   1 O  pz        
    30      0.235445   2 C  pz        
 
 Vector   32  Occ=2.000000D+00  E=-5.709473D-01
              MO Center= -3.2D-01,  4.0D-01, -6.9D-03, r^2= 4.2D+00
   Bfn.  Coefficient  Atom+Function         Bfn.  Coefficient  Atom+Function  
  ----- ------------  ---------------      ----- ------------  ---------------
   136      0.437669   8 C  s               142      0.310385   8 C  py        
    52     -0.304840   3 C  py                5      0.273906   1 O  px        
    26     -0.260277   2 C  s               139      0.261492   8 C  py        
   171     -0.202502  10 F  py               31     -0.197963   2 C  px        
   217     -0.198881  12 F  py              194     -0.189924  11 F  py        
 
 Vector   33  Occ=2.000000D+00  E=-5.529201D-01
              MO Center=  7.9D-01,  1.8D+00,  4.6D-04, r^2= 2.0D+00
   Bfn.  Coefficient  Atom+Function         Bfn.  Coefficient  Atom+Function  
  ----- ------------  ---------------      ----- ------------  ---------------
    99      0.438661   5 O  pz              102      0.332178   5 O  pz        
    76      0.289299   4 C  pz                7     -0.260416   1 O  pz        
    10     -0.196482   1 O  pz        
 
 Vector   34  Occ=2.000000D+00  E=-4.567427D-01
              MO Center=  9.8D-01,  1.6D+00,  1.2D-03, r^2= 2.4D+00
   Bfn.  Coefficient  Atom+Function         Bfn.  Coefficient  Atom+Function  
  ----- ------------  ---------------      ----- ------------  ---------------
    97      0.519974   5 O  px              100      0.424030   5 O  px        
    77     -0.380887   4 C  px               72      0.329648   4 C  s         
    26     -0.268585   2 C  s               157     -0.220721   9 H  s         
    65     -0.199000   3 C  d -2             31     -0.197139   2 C  px        
    51      0.195906   3 C  px               74     -0.187768   4 C  px        
 
 Vector   35  Occ=2.000000D+00  E=-3.940071D-01
              MO Center= -1.6D-01,  8.6D-01, -2.7D-03, r^2= 2.5D+00
   Bfn.  Coefficient  Atom+Function         Bfn.  Coefficient  Atom+Function  
  ----- ------------  ---------------      ----- ------------  ---------------
    53      0.419197   3 C  pz               56      0.324722   3 C  pz        
     7     -0.250746   1 O  pz               99     -0.242005   5 O  pz        
    30      0.228829   2 C  pz               10     -0.200085   1 O  pz        
   102     -0.190930   5 O  pz        
 
 Vector   36  Occ=0.000000D+00  E= 3.486147D-02
              MO Center= -1.9D+00, -1.4D-01, -4.1D-02, r^2= 2.1D+01
   Bfn.  Coefficient  Atom+Function         Bfn.  Coefficient  Atom+Function  
  ----- ------------  ---------------      ----- ------------  ---------------
   137     10.832264   8 C  s                58      6.030612   3 C  py        
   127     -4.154710   7 H  s                27     -3.063488   2 C  s         
    34     -2.927515   2 C  px               50     -2.307409   3 C  s         
   145      1.731445   8 C  py               57     -1.550320   3 C  px        
    73      1.543302   4 C  s               159     -1.250029   9 H  s         
 
 Vector   37  Occ=0.000000D+00  E= 4.286017D-02
              MO Center=  1.9D+00, -3.2D-01, -1.6D-01, r^2= 2.4D+01
   Bfn.  Coefficient  Atom+Function         Bfn.  Coefficient  Atom+Function  
  ----- ------------  ---------------      ----- ------------  ---------------
    73     -6.740916   4 C  s                27      6.600872   2 C  s         
   159     -5.623283   9 H  s                57      4.976070   3 C  px        
    80      4.284910   4 C  px              137      4.000479   8 C  s         
   127      3.892724   7 H  s                34      3.217899   2 C  px        
    58      2.272952   3 C  py               50     -1.899299   3 C  s         
 
 Vector   38  Occ=0.000000D+00  E= 4.891892D-02
              MO Center=  3.8D-02,  9.0D-01,  1.1D-01, r^2= 5.4D+00
   Bfn.  Coefficient  Atom+Function         Bfn.  Coefficient  Atom+Function  
  ----- ------------  ---------------      ----- ------------  ---------------
    73     -1.243764   4 C  s                27      1.233238   2 C  s         
    57      0.875758   3 C  px               36      0.768807   2 C  pz        
   159     -0.767461   9 H  s               127      0.704504   7 H  s         
    80      0.633221   4 C  px               34      0.585868   2 C  px        
    82     -0.466424   4 C  pz               33      0.352645   2 C  pz        
 
 Vector   39  Occ=0.000000D+00  E= 5.868195D-02
              MO Center= -4.5D-01,  2.9D+00,  1.4D-02, r^2= 2.1D+01
   Bfn.  Coefficient  Atom+Function         Bfn.  Coefficient  Atom+Function  
  ----- ------------  ---------------      ----- ------------  ---------------
   137     10.650685   8 C  s                27     -9.320989   2 C  s         
    73     -8.991445   4 C  s                58      8.282813   3 C  py        
    50      6.898017   3 C  s               118      4.390745   6 H  s         
    34     -3.059559   2 C  px               80      2.701012   4 C  px        
   127     -2.344760   7 H  s                35     -2.121698   2 C  py        
 
 Vector   40  Occ=0.000000D+00  E= 7.864404D-02
              MO Center= -3.6D-02, -9.4D-01,  2.9D-01, r^2= 2.3D+01
   Bfn.  Coefficient  Atom+Function         Bfn.  Coefficient  Atom+Function  
  ----- ------------  ---------------      ----- ------------  ---------------
   137     17.983594   8 C  s                58     10.952703   3 C  py        
    27     -9.991820   2 C  s                73     -8.318606   4 C  s         
   145      4.166276   8 C  py               34     -2.658089   2 C  px        
   118     -2.043919   6 H  s                80      1.989718   4 C  px        
    59      1.771613   3 C  pz               50      1.678401   3 C  s         
 
 Vector   41  Occ=0.000000D+00  E= 7.967137D-02
              MO Center= -1.0D-01, -3.0D-01, -4.2D-02, r^2= 2.0D+01
   Bfn.  Coefficient  Atom+Function         Bfn.  Coefficient  Atom+Function  
  ----- ------------  ---------------      ----- ------------  ---------------
   137      8.408640   8 C  s                27     -4.120883   2 C  s         
    58      4.112816   3 C  py               59     -3.335737   3 C  pz        
    73     -3.003662   4 C  s               145      2.351399   8 C  py        
   146      1.998778   8 C  pz               36      1.870518   2 C  pz        
    82      1.704306   4 C  pz              118     -1.318287   6 H  s         
 
 Vector   42  Occ=0.000000D+00  E= 9.595470D-02
              MO Center=  9.8D-02,  6.0D-01,  3.9D-02, r^2= 2.5D+01
   Bfn.  Coefficient  Atom+Function         Bfn.  Coefficient  Atom+Function  
  ----- ------------  ---------------      ----- ------------  ---------------
    27     29.829608   2 C  s                73    -25.881871   4 C  s         
    57     21.030391   3 C  px               34      5.976645   2 C  px        
    50     -5.638192   3 C  s                80      4.920878   4 C  px        
    35     -4.695389   2 C  py               81      4.338646   4 C  py        
   144     -3.839494   8 C  px              127      3.308774   7 H  s         
 
 Vector   43  Occ=0.000000D+00  E= 1.066537D-01
              MO Center=  1.2D-01,  5.8D-01, -7.7D-02, r^2= 1.8D+01
   Bfn.  Coefficient  Atom+Function         Bfn.  Coefficient  Atom+Function  
  ----- ------------  ---------------      ----- ------------  ---------------
    50     29.452896   3 C  s                73    -12.774767   4 C  s         
    27     -8.574914   2 C  s               137     -8.366620   8 C  s         
    34     -4.479583   2 C  px               80      4.461599   4 C  px        
   145     -2.948174   8 C  py               57      2.497263   3 C  px        
     4      2.310244   1 O  s                96      2.080129   5 O  s         
 
 Vector   44  Occ=0.000000D+00  E= 1.192073D-01
              MO Center=  9.9D-02, -7.8D-01, -4.4D-02, r^2= 1.9D+01
   Bfn.  Coefficient  Atom+Function         Bfn.  Coefficient  Atom+Function  
  ----- ------------  ---------------      ----- ------------  ---------------
   146      3.088597   8 C  pz               50      1.826440   3 C  s         
    73     -1.692687   4 C  s                82     -1.674263   4 C  pz        
    58      1.648529   3 C  py               36     -1.499814   2 C  pz        
   169      1.182477  10 F  s               137      0.863968   8 C  s         
    80      0.705647   4 C  px               57      0.571970   3 C  px        
 
 Vector   45  Occ=0.000000D+00  E= 1.303092D-01
              MO Center=  1.1D-01,  6.5D-01, -1.5D-01, r^2= 1.6D+01
   Bfn.  Coefficient  Atom+Function         Bfn.  Coefficient  Atom+Function  
  ----- ------------  ---------------      ----- ------------  ---------------
    27      3.218863   2 C  s                73     -2.796960   4 C  s         
   144      2.440544   8 C  px               81      1.724520   4 C  py        
    36      1.701000   2 C  pz               82     -1.587812   4 C  pz        
    35     -1.549466   2 C  py              127      1.445068   7 H  s         
   159     -1.395338   9 H  s                34      1.322045   2 C  px        
 
 Vector   46  Occ=0.000000D+00  E= 1.378736D-01
              MO Center=  3.5D-01, -5.4D-01,  3.1D-01, r^2= 2.3D+01
   Bfn.  Coefficient  Atom+Function         Bfn.  Coefficient  Atom+Function  
  ----- ------------  ---------------      ----- ------------  ---------------
    27     11.684915   2 C  s                73     -8.121676   4 C  s         
    57      7.093886   3 C  px               81      4.539449   4 C  py        
   144      3.974534   8 C  px              127      3.395949   7 H  s         
   159     -3.281850   9 H  s                35     -2.754886   2 C  py        
    34      2.587254   2 C  px               80      2.191209   4 C  px        
 
 Vector   47  Occ=0.000000D+00  E= 1.409065D-01
              MO Center= -6.1D-01,  1.2D+00,  1.9D-02, r^2= 2.1D+01
   Bfn.  Coefficient  Atom+Function         Bfn.  Coefficient  Atom+Function  
  ----- ------------  ---------------      ----- ------------  ---------------
   137      5.980482   8 C  s                73      5.542995   4 C  s         
     4     -4.928166   1 O  s                35      4.533058   2 C  py        
   118     -4.256833   6 H  s                96     -3.328549   5 O  s         
    57     -2.175598   3 C  px               58      1.749922   3 C  py        
   127     -1.649674   7 H  s                50      1.415741   3 C  s         
 
 Vector   48  Occ=0.000000D+00  E= 1.520317D-01
              MO Center= -2.4D+00,  9.1D-02, -8.8D-02, r^2= 1.6D+01
   Bfn.  Coefficient  Atom+Function         Bfn.  Coefficient  Atom+Function  
  ----- ------------  ---------------      ----- ------------  ---------------
    27     19.656047   2 C  s               137    -12.980481   8 C  s         
    73    -11.628573   4 C  s                58    -10.443864   3 C  py        
    34     10.099821   2 C  px               57      9.519077   3 C  px        
   127      8.479490   7 H  s                80      4.943305   4 C  px        
     4     -4.856868   1 O  s                35      4.362635   2 C  py        
 
 Vector   49  Occ=0.000000D+00  E= 1.574543D-01
              MO Center=  2.2D+00, -1.7D-01, -9.2D-03, r^2= 1.6D+01
   Bfn.  Coefficient  Atom+Function         Bfn.  Coefficient  Atom+Function  
  ----- ------------  ---------------      ----- ------------  ---------------
   137     25.280529   8 C  s                58     20.305847   3 C  py        
    73    -17.980093   4 C  s                57      9.249720   3 C  px        
    80      8.420756   4 C  px              159     -7.473170   9 H  s         
    35     -6.452761   2 C  py               27      6.384181   2 C  s         
    50     -5.174028   3 C  s                81     -4.871859   4 C  py        
 
 Vector   50  Occ=0.000000D+00  E= 1.705699D-01
              MO Center= -4.1D-02,  2.0D-01, -1.9D-01, r^2= 1.9D+01
   Bfn.  Coefficient  Atom+Function         Bfn.  Coefficient  Atom+Function  
  ----- ------------  ---------------      ----- ------------  ---------------
    27     31.111550   2 C  s                57     22.546718   3 C  px        
    58    -14.991690   3 C  py               73    -14.528650   4 C  s         
   137    -13.363337   8 C  s                81      5.485364   4 C  py        
   144     -5.079374   8 C  px               54     -3.336620   3 C  px        
     4     -3.142290   1 O  s                80     -2.931250   4 C  px        
 
 Vector   51  Occ=0.000000D+00  E= 1.724988D-01
              MO Center=  3.1D-01,  1.0D-01, -4.8D-03, r^2= 1.9D+01
   Bfn.  Coefficient  Atom+Function         Bfn.  Coefficient  Atom+Function  
  ----- ------------  ---------------      ----- ------------  ---------------
    58     22.904169   3 C  py               73    -21.062024   4 C  s         
   137     18.704046   8 C  s                57     11.661327   3 C  px        
    35     -6.641115   2 C  py               50     -5.980235   3 C  s         
    81     -3.495851   4 C  py              144     -2.583119   8 C  px        
   158      2.282814   9 H  s               159      2.070515   9 H  s         
 
 Vector   52  Occ=0.000000D+00  E= 1.807481D-01
              MO Center=  3.0D-02,  5.5D-01, -1.6D-01, r^2= 1.3D+01
   Bfn.  Coefficient  Atom+Function         Bfn.  Coefficient  Atom+Function  
  ----- ------------  ---------------      ----- ------------  ---------------
    59      8.355592   3 C  pz              137     -4.451730   8 C  s         
    58     -4.318708   3 C  py               73      4.014180   4 C  s         
   146     -3.137152   8 C  pz               36     -3.019006   2 C  pz        
    82     -2.863496   4 C  pz              169      1.710419  10 F  s         
    27      1.653118   2 C  s                50     -1.607101   3 C  s         
 
 Vector   53  Occ=0.000000D+00  E= 1.942903D-01
              MO Center=  1.4D-01,  1.1D+00,  3.5D-02, r^2= 7.4D+00
   Bfn.  Coefficient  Atom+Function         Bfn.  Coefficient  Atom+Function  
  ----- ------------  ---------------      ----- ------------  ---------------
    59      2.727604   3 C  pz               27      1.558905   2 C  s         
    50     -1.384578   3 C  s               146     -0.906355   8 C  pz        
    36     -0.879304   2 C  pz               73      0.875995   4 C  s         
    82     -0.850358   4 C  pz               58     -0.534302   3 C  py        
   105     -0.501788   5 O  pz               79      0.431888   4 C  pz        
 
 Vector   54  Occ=0.000000D+00  E= 2.155237D-01
              MO Center= -2.8D-01,  1.8D+00,  4.8D-02, r^2= 1.6D+01
   Bfn.  Coefficient  Atom+Function         Bfn.  Coefficient  Atom+Function  
  ----- ------------  ---------------      ----- ------------  ---------------
   137    -27.947891   8 C  s                27     25.427413   2 C  s         
    73     23.293638   4 C  s                50    -21.792203   3 C  s         
    58    -19.784669   3 C  py               34      5.832882   2 C  px        
    80     -5.237167   4 C  px              145     -3.370900   8 C  py        
    96     -3.233143   5 O  s               169      2.905805  10 F  s         
 
 Vector   55  Occ=0.000000D+00  E= 2.378040D-01
              MO Center=  4.9D-02, -4.5D-01,  7.7D-02, r^2= 1.9D+01
   Bfn.  Coefficient  Atom+Function         Bfn.  Coefficient  Atom+Function  
  ----- ------------  ---------------      ----- ------------  ---------------
   137     44.030304   8 C  s                58     18.500216   3 C  py        
    73    -14.754588   4 C  s                50    -12.958619   3 C  s         
    27    -10.400894   2 C  s               145      7.817150   8 C  py        
   215     -4.154671  12 F  s               192     -3.969162  11 F  s         
   158      3.489249   9 H  s               126      3.415338   7 H  s         
 
 Vector   56  Occ=0.000000D+00  E= 2.413838D-01
              MO Center= -3.4D-01, -3.3D-01,  7.0D-02, r^2= 1.5D+01
   Bfn.  Coefficient  Atom+Function         Bfn.  Coefficient  Atom+Function  
  ----- ------------  ---------------      ----- ------------  ---------------
    73    -11.396998   4 C  s                27     10.499405   2 C  s         
    57      5.846688   3 C  px               80      2.222202   4 C  px        
    96      2.087947   5 O  s                34      2.054627   2 C  px        
     4     -1.997704   1 O  s               215      1.585727  12 F  s         
   192     -1.564807  11 F  s               199     -1.532397  11 F  px        
 
 Vector   57  Occ=0.000000D+00  E= 2.533415D-01
              MO Center=  1.3D-01,  1.7D+00,  1.7D-01, r^2= 1.7D+01
   Bfn.  Coefficient  Atom+Function         Bfn.  Coefficient  Atom+Function  
  ----- ------------  ---------------      ----- ------------  ---------------
    73     54.940524   4 C  s                27    -42.547585   2 C  s         
    57    -28.846178   3 C  px               50    -11.472797   3 C  s         
    80    -10.904038   4 C  px               96     -7.797300   5 O  s         
    35      7.490200   2 C  py               34     -6.669303   2 C  px        
    81     -5.286123   4 C  py               58     -4.987205   3 C  py        
 
 Vector   58  Occ=0.000000D+00  E= 2.583032D-01
              MO Center= -3.0D-01,  1.3D+00, -1.9D-02, r^2= 1.4D+01
   Bfn.  Coefficient  Atom+Function         Bfn.  Coefficient  Atom+Function  
  ----- ------------  ---------------      ----- ------------  ---------------
    27     32.800560   2 C  s                50    -18.874834   3 C  s         
    57     15.285233   3 C  px               73    -14.270361   4 C  s         
    34      6.940866   2 C  px               58     -5.637070   3 C  py        
     4     -3.310422   1 O  s               126     -3.262316   7 H  s         
   144     -3.003408   8 C  px              158      2.846645   9 H  s         
 
 Vector   59  Occ=0.000000D+00  E= 2.599148D-01
              MO Center= -1.2D-01,  9.4D-01,  1.1D-01, r^2= 1.3D+01
   Bfn.  Coefficient  Atom+Function         Bfn.  Coefficient  Atom+Function  
  ----- ------------  ---------------      ----- ------------  ---------------
    50     26.226237   3 C  s                27    -20.364711   2 C  s         
   137     -6.300253   8 C  s                57     -5.928844   3 C  px        
    34     -5.180308   2 C  px                4      3.315633   1 O  s         
    36      1.993515   2 C  pz               59     -1.928193   3 C  pz        
   127     -1.828830   7 H  s                73      1.703453   4 C  s         
 
 Vector   60  Occ=0.000000D+00  E= 2.662698D-01
              MO Center=  1.1D-01,  1.4D+00, -7.5D-02, r^2= 1.4D+01
   Bfn.  Coefficient  Atom+Function         Bfn.  Coefficient  Atom+Function  
  ----- ------------  ---------------      ----- ------------  ---------------
    50     28.103617   3 C  s                27    -14.478350   2 C  s         
    73     -8.213454   4 C  s                34     -6.435779   2 C  px        
    58      5.008537   3 C  py                4      3.992242   1 O  s         
   137     -2.558372   8 C  s                80      2.536096   4 C  px        
   127     -2.272348   7 H  s               104      2.223647   5 O  py        
 
 Vector   61  Occ=0.000000D+00  E= 2.835228D-01
              MO Center= -1.7D-01, -4.4D-01, -4.2D-01, r^2= 1.4D+01
   Bfn.  Coefficient  Atom+Function         Bfn.  Coefficient  Atom+Function  
  ----- ------------  ---------------      ----- ------------  ---------------
   137     19.277647   8 C  s                27    -14.234197   2 C  s         
    58     13.066546   3 C  py               34     -3.915316   2 C  px        
     4      3.262157   1 O  s               136     -3.257781   8 C  s         
    73     -3.131266   4 C  s                55     -3.002348   3 C  py        
    57     -2.814331   3 C  px              169     -2.805441  10 F  s         
 
 Vector   62  Occ=0.000000D+00  E= 3.081971D-01
              MO Center= -7.2D-01, -2.1D-02,  3.4D-01, r^2= 1.3D+01
   Bfn.  Coefficient  Atom+Function         Bfn.  Coefficient  Atom+Function  
  ----- ------------  ---------------      ----- ------------  ---------------
    50     23.178416   3 C  s                27    -13.256392   2 C  s         
    73     -9.715448   4 C  s                55     -4.181687   3 C  py        
   142     -3.826956   8 C  py              136     -3.712569   8 C  s         
     4      3.540950   1 O  s               137     -2.923610   8 C  s         
    69     -2.899502   3 C  d  2             96      2.773346   5 O  s         
 
 Vector   63  Occ=0.000000D+00  E= 3.114960D-01
              MO Center=  7.0D-01,  1.1D+00,  3.5D-01, r^2= 1.3D+01
   Bfn.  Coefficient  Atom+Function         Bfn.  Coefficient  Atom+Function  
  ----- ------------  ---------------      ----- ------------  ---------------
    27     18.681577   2 C  s                50    -13.680576   3 C  s         
    57      6.605629   3 C  px               73     -5.183918   4 C  s         
     4     -3.399594   1 O  s                34      3.225837   2 C  px        
   137      2.052072   8 C  s                82      2.011243   4 C  pz        
   105     -2.017476   5 O  pz               55      1.824632   3 C  py        
 
 Vector   64  Occ=0.000000D+00  E= 3.186872D-01
              MO Center= -3.8D-02,  8.7D-01,  1.5D-02, r^2= 1.4D+01
   Bfn.  Coefficient  Atom+Function         Bfn.  Coefficient  Atom+Function  
  ----- ------------  ---------------      ----- ------------  ---------------
    27     22.545879   2 C  s                58    -12.417801   3 C  py        
    50     -9.613024   3 C  s                57      8.494206   3 C  px        
   137     -7.977928   8 C  s                73     -3.720384   4 C  s         
    11      3.220707   1 O  px               35      3.061667   2 C  py        
    96      3.068253   5 O  s               117     -2.587678   6 H  s         
 
 Vector   65  Occ=0.000000D+00  E= 3.253843D-01
              MO Center=  1.3D-01,  8.3D-01, -1.4D-01, r^2= 1.3D+01
   Bfn.  Coefficient  Atom+Function         Bfn.  Coefficient  Atom+Function  
  ----- ------------  ---------------      ----- ------------  ---------------
    73     14.696006   4 C  s                58    -11.577858   3 C  py        
    50     -7.606822   3 C  s               137     -6.420784   8 C  s         
    57     -4.982564   3 C  px                4      4.071808   1 O  s         
    81      2.539828   4 C  py              103     -2.422906   5 O  px        
    26     -2.334879   2 C  s                69      2.153568   3 C  d  2      
 
 Vector   66  Occ=0.000000D+00  E= 3.349574D-01
              MO Center= -3.2D-01,  2.4D-01,  1.4D-01, r^2= 1.2D+01
   Bfn.  Coefficient  Atom+Function         Bfn.  Coefficient  Atom+Function  
  ----- ------------  ---------------      ----- ------------  ---------------
    50     27.550644   3 C  s                27    -18.863063   2 C  s         
    73     -9.243757   4 C  s               137     -5.857956   8 C  s         
     4      4.322612   1 O  s                35      3.556027   2 C  py        
   126      2.827334   7 H  s                57     -2.616325   3 C  px        
    34     -2.554935   2 C  px               49     -2.248604   3 C  s         
 
 Vector   67  Occ=0.000000D+00  E= 3.425130D-01
              MO Center=  2.5D-01,  2.1D-01,  2.7D-01, r^2= 1.4D+01
   Bfn.  Coefficient  Atom+Function         Bfn.  Coefficient  Atom+Function  
  ----- ------------  ---------------      ----- ------------  ---------------
    58     13.043179   3 C  py              137     10.835793   8 C  s         
    73     -9.252126   4 C  s                35     -5.933436   2 C  py        
    81     -4.957067   4 C  py              136      3.151249   8 C  s         
    50     -2.799078   3 C  s                69      2.455020   3 C  d  2      
    57      2.330411   3 C  px              118      2.270061   6 H  s         
 
 Vector   68  Occ=0.000000D+00  E= 3.481864D-01
              MO Center=  2.1D-01, -5.6D-01, -2.0D-01, r^2= 1.3D+01
   Bfn.  Coefficient  Atom+Function         Bfn.  Coefficient  Atom+Function  
  ----- ------------  ---------------      ----- ------------  ---------------
    73     20.300553   4 C  s                50    -12.321977   3 C  s         
    58     -9.985133   3 C  py               57     -7.502386   3 C  px        
    80     -6.320729   4 C  px               27     -6.223258   2 C  s         
     4      4.159361   1 O  s                55      3.993107   3 C  py        
   142      3.920245   8 C  py               35      3.856329   2 C  py        
 
 Vector   69  Occ=0.000000D+00  E= 3.514479D-01
              MO Center= -6.2D-02,  1.9D-01, -1.1D-01, r^2= 1.3D+01
   Bfn.  Coefficient  Atom+Function         Bfn.  Coefficient  Atom+Function  
  ----- ------------  ---------------      ----- ------------  ---------------
    27     20.223181   2 C  s                73    -15.695499   4 C  s         
    57      9.492564   3 C  px               34      7.857545   2 C  px        
    58     -7.428101   3 C  py               80      5.355421   4 C  px        
    96      4.884887   5 O  s               127      4.755485   7 H  s         
    81      4.119692   4 C  py              137     -4.131336   8 C  s         
 
 Vector   70  Occ=0.000000D+00  E= 3.589357D-01
              MO Center=  9.2D-02,  7.1D-03, -4.0D-02, r^2= 1.6D+01
   Bfn.  Coefficient  Atom+Function         Bfn.  Coefficient  Atom+Function  
  ----- ------------  ---------------      ----- ------------  ---------------
    73      7.143197   4 C  s                57     -6.260271   3 C  px        
    34      5.591966   2 C  px               26      5.563314   2 C  s         
    80      4.506651   4 C  px               72     -4.199295   4 C  s         
    35      3.974806   2 C  py               54      3.956051   3 C  px        
    27     -3.489877   2 C  s                31      3.479143   2 C  px        
 
 Vector   71  Occ=0.000000D+00  E= 3.639119D-01
              MO Center=  1.5D-01, -1.3D+00, -2.9D-01, r^2= 1.3D+01
   Bfn.  Coefficient  Atom+Function         Bfn.  Coefficient  Atom+Function  
  ----- ------------  ---------------      ----- ------------  ---------------
    58      8.030818   3 C  py               27     -6.601260   2 C  s         
   137      5.594124   8 C  s               146      4.187233   8 C  pz        
    81     -3.728022   4 C  py               50      3.650229   3 C  s         
    80      2.527392   4 C  px               57     -2.491608   3 C  px        
    59     -2.243478   3 C  pz               49      2.140582   3 C  s         
 
 Vector   72  Occ=0.000000D+00  E= 3.814201D-01
              MO Center=  5.2D-02, -1.2D+00,  2.4D-01, r^2= 1.3D+01
   Bfn.  Coefficient  Atom+Function         Bfn.  Coefficient  Atom+Function  
  ----- ------------  ---------------      ----- ------------  ---------------
   144      6.187029   8 C  px              199     -3.041903  11 F  px        
   222     -3.010504  12 F  px               50     -2.769588   3 C  s         
    57     -2.711132   3 C  px              192     -1.949776  11 F  s         
   215      1.938797  12 F  s                73      1.891948   4 C  s         
    35     -1.825997   2 C  py               96     -1.797631   5 O  s         
 
 Vector   73  Occ=0.000000D+00  E= 3.928467D-01
              MO Center= -2.2D-01, -7.4D-01, -7.3D-02, r^2= 1.1D+01
   Bfn.  Coefficient  Atom+Function         Bfn.  Coefficient  Atom+Function  
  ----- ------------  ---------------      ----- ------------  ---------------
    50     11.675549   3 C  s                27     -8.484478   2 C  s         
    73     -4.667992   4 C  s                55     -3.417410   3 C  py        
   169      3.289889  10 F  s               178      2.773058  10 F  pz        
   136     -2.712396   8 C  s               137     -2.393595   8 C  s         
    58      2.378650   3 C  py              201      2.145254  11 F  pz        
 
 Vector   74  Occ=0.000000D+00  E= 3.981251D-01
              MO Center=  1.2D-01, -5.1D-01,  5.8D-01, r^2= 1.2D+01
   Bfn.  Coefficient  Atom+Function         Bfn.  Coefficient  Atom+Function  
  ----- ------------  ---------------      ----- ------------  ---------------
    57     14.028965   3 C  px               73    -12.439063   4 C  s         
    27      7.879591   2 C  s               144     -4.748214   8 C  px        
    50      4.248891   3 C  s                34     -3.262559   2 C  px        
     4      2.817128   1 O  s               126     -2.360025   7 H  s         
   223     -2.314918  12 F  py              158      2.216380   9 H  s         
 
 Vector   75  Occ=0.000000D+00  E= 4.008339D-01
              MO Center=  1.1D-01, -9.8D-01, -5.4D-01, r^2= 1.3D+01
   Bfn.  Coefficient  Atom+Function         Bfn.  Coefficient  Atom+Function  
  ----- ------------  ---------------      ----- ------------  ---------------
    27     15.818970   2 C  s                73    -10.752046   4 C  s         
    57      9.659130   3 C  px               54      5.299855   3 C  px        
   158     -4.549790   9 H  s               126      4.497122   7 H  s         
    34      4.179465   2 C  px               80      3.819675   4 C  px        
    31      3.722215   2 C  px               77      3.679340   4 C  px        
 
 Vector   76  Occ=0.000000D+00  E= 4.152107D-01
              MO Center= -1.5D-02,  6.5D-01, -2.0D-02, r^2= 1.0D+01
   Bfn.  Coefficient  Atom+Function         Bfn.  Coefficient  Atom+Function  
  ----- ------------  ---------------      ----- ------------  ---------------
   137     16.942476   8 C  s                58     10.325469   3 C  py        
    73     -9.604752   4 C  s                50     -8.941053   3 C  s         
    57      4.836893   3 C  px              136     -2.937404   8 C  s         
    69     -2.254601   3 C  d  2            117      2.144225   6 H  s         
     4     -1.997842   1 O  s               103      1.977059   5 O  px        
 
 Vector   77  Occ=0.000000D+00  E= 4.291719D-01
              MO Center= -2.3D-01,  9.7D-01, -9.8D-02, r^2= 1.4D+01
   Bfn.  Coefficient  Atom+Function         Bfn.  Coefficient  Atom+Function  
  ----- ------------  ---------------      ----- ------------  ---------------
   137     21.396220   8 C  s                58     20.327649   3 C  py        
    27    -18.986018   2 C  s                 4     10.479459   1 O  s         
    50     -9.275307   3 C  s                35     -6.504286   2 C  py        
    81     -5.998211   4 C  py               73     -5.460655   4 C  s         
    96      4.487607   5 O  s                57     -3.928492   3 C  px        
 
 Vector   78  Occ=0.000000D+00  E= 4.391990D-01
              MO Center=  2.1D-01,  2.1D-01, -3.6D-02, r^2= 1.0D+01
   Bfn.  Coefficient  Atom+Function         Bfn.  Coefficient  Atom+Function  
  ----- ------------  ---------------      ----- ------------  ---------------
    57      6.879283   3 C  px               50     -5.529150   3 C  s         
    27      4.461943   2 C  s                73     -2.024830   4 C  s         
   137      1.918376   8 C  s               144     -1.623350   8 C  px        
    72     -1.598545   4 C  s                 4      1.524532   1 O  s         
    65      1.488414   3 C  d -2            165      1.410591   9 H  pz        
 
 Vector   79  Occ=0.000000D+00  E= 4.481709D-01
              MO Center= -4.7D-02, -1.1D+00,  1.3D-01, r^2= 9.3D+00
   Bfn.  Coefficient  Atom+Function         Bfn.  Coefficient  Atom+Function  
  ----- ------------  ---------------      ----- ------------  ---------------
   137     37.925789   8 C  s                58     25.191872   3 C  py        
    73    -14.890152   4 C  s                27    -14.168138   2 C  s         
    34     -5.014070   2 C  px               80      5.020937   4 C  px        
    49      3.960739   3 C  s               169     -3.712996  10 F  s         
    35     -3.602072   2 C  py              215     -3.605117  12 F  s         
 
 Vector   80  Occ=0.000000D+00  E= 4.621891D-01
              MO Center= -2.8D-01,  6.1D-01,  5.4D-02, r^2= 1.2D+01
   Bfn.  Coefficient  Atom+Function         Bfn.  Coefficient  Atom+Function  
  ----- ------------  ---------------      ----- ------------  ---------------
    27     33.369065   2 C  s                73    -26.843546   4 C  s         
    57     15.397261   3 C  px                4    -12.388726   1 O  s         
    96     10.772861   5 O  s                50     -8.628189   3 C  s         
    54     -7.868447   3 C  px               26     -7.791258   2 C  s         
    34      6.086716   2 C  px               31     -5.417335   2 C  px        
 
 Vector   81  Occ=0.000000D+00  E= 4.757088D-01
              MO Center=  4.0D-01,  6.8D-01, -4.6D-02, r^2= 1.0D+01
   Bfn.  Coefficient  Atom+Function         Bfn.  Coefficient  Atom+Function  
  ----- ------------  ---------------      ----- ------------  ---------------
   137     17.942700   8 C  s                50    -15.178966   3 C  s         
    27    -12.426856   2 C  s                73      9.742298   4 C  s         
    58      7.545272   3 C  py               57     -6.599284   3 C  px        
   215     -4.752485  12 F  s                 4      4.522538   1 O  s         
    26      3.185735   2 C  s                96     -2.900758   5 O  s         
 
 Vector   82  Occ=0.000000D+00  E= 4.821759D-01
              MO Center= -1.9D-01,  6.7D-01, -1.3D-01, r^2= 1.0D+01
   Bfn.  Coefficient  Atom+Function         Bfn.  Coefficient  Atom+Function  
  ----- ------------  ---------------      ----- ------------  ---------------
    73     26.972043   4 C  s                27    -14.630400   2 C  s         
    57    -11.634166   3 C  px               96     -7.964306   5 O  s         
    50     -6.914402   3 C  s                72     -6.344358   4 C  s         
    55      4.929129   3 C  py               77      4.735405   4 C  px        
   136      4.659921   8 C  s               142      4.258898   8 C  py        
 
 Vector   83  Occ=0.000000D+00  E= 4.889718D-01
              MO Center= -1.1D-01,  1.9D-01,  8.9D-03, r^2= 1.2D+01
   Bfn.  Coefficient  Atom+Function         Bfn.  Coefficient  Atom+Function  
  ----- ------------  ---------------      ----- ------------  ---------------
    27     30.054834   2 C  s                73    -22.937865   4 C  s         
    50    -16.226990   3 C  s                57     13.940559   3 C  px        
   137     10.789254   8 C  s                 4     -9.101946   1 O  s         
    96      7.993068   5 O  s                26     -6.272303   2 C  s         
   192     -6.031111  11 F  s                31     -5.035840   2 C  px        
 
 Vector   84  Occ=0.000000D+00  E= 4.927553D-01
              MO Center= -1.6D-01,  1.2D-01, -2.8D-01, r^2= 9.3D+00
   Bfn.  Coefficient  Atom+Function         Bfn.  Coefficient  Atom+Function  
  ----- ------------  ---------------      ----- ------------  ---------------
   137     11.324109   8 C  s                73     -6.726517   4 C  s         
    27     -6.657911   2 C  s               169     -6.398264  10 F  s         
    50      5.202444   3 C  s                58      4.124818   3 C  py        
     4      3.605832   1 O  s                59     -2.810539   3 C  pz        
   136     -2.524449   8 C  s               142     -2.510572   8 C  py        
 
 Vector   85  Occ=0.000000D+00  E= 5.115136D-01
              MO Center=  3.9D-03, -2.7D-01,  1.7D-01, r^2= 8.2D+00
   Bfn.  Coefficient  Atom+Function         Bfn.  Coefficient  Atom+Function  
  ----- ------------  ---------------      ----- ------------  ---------------
    27      6.898022   2 C  s                73      6.228798   4 C  s         
   137     -5.843569   8 C  s               136      5.534392   8 C  s         
    50     -5.504234   3 C  s               158     -4.780062   9 H  s         
    55      4.206557   3 C  py              192      3.849566  11 F  s         
    58     -3.827499   3 C  py               59     -3.693246   3 C  pz        
 

 center of mass
 --------------
 x =   0.00460819 y =  -0.11378445 z =  -0.00000000

 moments of inertia (a.u.)
 ------------------
        1464.828791864709          -0.000000000000          -0.000000000000
          -0.000000000000         655.071074526413           0.000000000000
          -0.000000000000           0.000000000000        1816.165249944535
 
  Mulliken analysis of the total density
  --------------------------------------

    Atom       Charge   Shell Charges
 -----------   ------   -------------------------------------------------------
    1 O    8     8.73   2.00  0.82  1.02  0.18  2.83  1.79  0.05  0.02  0.02
    2 C    6     5.22   2.01  0.68  0.91 -0.33  1.88  0.06  0.07  0.15 -0.22
    3 C    6     6.06   2.01  0.64  0.25 -0.04  2.14  0.21  0.47  0.08  0.31
    4 C    6     5.27   2.01  0.69  0.86 -0.35  1.87  0.11  0.04  0.17 -0.12
    5 O    8     8.89   2.00  0.83  1.06  0.20  2.77  1.88  0.10  0.02  0.03
    6 H    1     0.76   0.64  0.04 -0.01  0.09 -0.00
    7 H    1     1.32   0.77  0.54  0.01  0.03 -0.02
    8 C    6     3.65   2.01  0.68 -0.43 -0.21  1.80 -0.36 -0.03  0.36 -0.16
    9 H    1     1.26   0.77  0.48 -0.00  0.03 -0.01
   10 F    9     9.59   2.00  0.89  1.09  0.15  3.34  2.04  0.07  0.01  0.01
   11 F    9     9.63   2.00  0.88  1.09  0.15  3.34  2.05  0.09  0.01  0.01
   12 F    9     9.63   2.00  0.88  1.09  0.16  3.34  2.05  0.09  0.01  0.01
 
       Multipole analysis of the density wrt the origin
       ------------------------------------------------
 
     L   x y z        total         open         nuclear
     -   - - -        -----         ----         -------
     0   0 0 0     -0.000000      0.000000     70.000000
 
     1   1 0 0     -0.278877      0.000000      0.000000
     1   0 1 0     -0.425993      0.000000     -0.000000
     1   0 0 1     -0.000789      0.000000     -0.000000
 
     2   2 0 0    -35.428844      0.000000    264.379534
     2   1 1 0     -1.444068      0.000000     -1.742737
     2   1 0 1      0.009434      0.000000      0.000000
     2   0 2 0    -44.096087      0.000000    655.154279
     2   0 1 1     -0.049810      0.000000     -0.000000
     2   0 0 2    -37.573998      0.000000     71.943204
 
                   NWChem MP2 Semi-direct Energy/Gradient Module
                   ---------------------------------------------
 
 
                                  H,MeF,H Chelate
 
 

int_init: setting std/high accuracies to  1.0D-16  1.0D-32
  Basis functions       =    234
  Molecular orbitals    =    234
  Frozen core           =      9
  Frozen virtuals       =      0
  Active alpha occupied =     26
  Active beta occupied  =     26
  Active alpha virtual  =    199
  Active beta virtual   =    199
  Use MO symmetry       = F
  Use skeleton AO sym   = F

  AO/Fock/Back tols     =   1.0D-15  1.0D-15  1.0D-15

 GA uses MA = F    GA memory limited = T

 Available: 
  local mem=  3.77D+08
 global mem=  1.23D+08
 local disk=  0.00D+00

int_init: setting std/high accuracies to  1.0D-16  1.0D-32
  mp2_memr nvloc                     19
  nvloc new                     19
   1 passes of  26:        5242880                     533613                  58585235.
   1 passes of  26: M    376601879           G      122945855           F     371358999.
 
 Semi-direct pass number   1 of   1  for RHF alpha+beta  at      176.1s

int_init: setting std/high accuracies to  1.0D-16  1.0D-32
  vrange nnbf                  26988
  mp2_eaftype                    173  avail_ma_in_mb                   3283
 EAF : mp2_eaftype filesize         173   22711267.
  mp2_eaf for mointskh                     173
Node 0 wrote    106.7 Mb in      0.2 s     Agg I/O rate:  4817.9 Mb/s
 Done moints_semi at      193.6s
  mp2_eaftype                    173  avail_ma_in_mb                   3110
 EAF : mp2_eaftype filesize         173   22711267.
  mp2_eaf for kh                    173
  mp2_eaftype                     39  avail_ma_in_mb                   3110
 EAF : mp2_eaftype filesize          39    5111912.
  mp2_eaf for ta tb                     39
  mp2_eaf for ta                      39
  mp2_eaf for tb                      39
 Done maket at      195.0s
 Done pijab at      195.3s
 Done wijab at      195.6s
 Done lai at      201.9s

int_init: setting std/high accuracies to  1.0D-16  1.0D-32
  mp2_eaftype                    195  avail_ma_in_mb                   3030
 EAF : mp2_eaftype filesize         195   25650144.
  mp2_eaf for 2pdm                     195
 Done nonsep at      270.0s
 Done multipass loop at      270.0s


          -------------------------------------------
          SCF energy                -601.326542065378
          Correlation energy          -1.526464593506
          Singlet pairs               -0.896629221031
          Triplet pairs               -0.629835372476
          Total MP2 energy          -602.853006658884
          -------------------------------------------



          ---------------------------------------------------
                    Spin Component Scaled (SCS) MP2
          Same spin pairs                     -0.419890248317
          Same spin scaling factor             0.333333333333
          Opposite spin pairs                 -1.106574345189
          Opposite spin scaling fact.          1.200000000000
          SCS-MP2 correlation energy          -1.467852630333
          Total SCS-MP2 energy              -602.794394695711
          ---------------------------------------------------


int_init: setting std/high accuracies to  1.0D-16  1.0D-32
                                NWChem CPHF Module
                                ------------------
 
 

int_init: setting std/high accuracies to  1.0D-16  1.0D-32
    scftype = RHF 
    nclosed =   35
      nopen =    0
  variables =     6965
  tolerance =   1.0D-06
  max. iter =  999

 SCF residual:   1.022167110473420E-010

            ----- linear solve (tol: 1.0E-06 prod-acc: 3.0E-14) -----

               iter nbas    rnorm     rnorm-scal   ratio     time
               ---- ---- ----------- ----------- --------- -------
                  1    1  1.0833E-01  4.3119E-01    0.0000   287.1
                  2    2  2.6020E-02  1.0357E-01    0.2402   293.0
                  3    3  1.1864E-02  4.7223E-02    0.4560   298.9
                  4    4  3.5831E-03  1.4262E-02    0.3020   304.7
                  5    5  1.3866E-03  5.5191E-03    0.3870   310.5
                  6    6  4.9349E-04  1.9643E-03    0.3559   316.2
                  7    7  2.1524E-04  8.5673E-04    0.4361   321.9
                  8    8  8.7065E-05  3.4655E-04    0.4045   327.5
                  9    9  3.0675E-05  1.2210E-04    0.3523   333.2
                 10   10  1.0831E-05  4.3112E-05    0.3531   338.7
                 11   11  3.3558E-06  1.3358E-05    0.3098   344.0
                 12   12  1.2152E-06  4.8368E-06    0.3621   349.3
                 13   13  4.0638E-07  1.6175E-06    0.3344   354.5
                 14   14  1.0230E-07  4.0718E-07    0.2517   359.4

 CPHF converged to   4.1D-07 in   14 iters


int_init: setting std/high accuracies to  1.0D-16  1.0D-32
                Dipole Moments (a.u.)
                --------------
         Nuclear       SCF       SCF+MP2
       ----------- ----------- -----------
 X       0.000000   -0.278877   -0.191923
 Y      -0.000000   -0.425993   -0.259955
 Z      -0.000000   -0.000789    0.001177
 

 MP2 RHF      natural orbital occupation numbers


              1      
    1    2.0000
    2    2.0000
    3    2.0000
    4    2.0000
    5    2.0000
[...]
           9     0.00120     0.07399     0.00074    -0.06594     0.00259     0.00476
          10    -0.01457    -0.00540     0.16908     0.01774    -0.00995     0.08682
          11     0.02275    -0.00023    -0.01605     0.00075    -0.00042     0.00892
          12     0.00166    -0.04428    -0.02057     0.14530    -0.08149    -0.01065
          13     0.02261     0.00347    -0.03768    -0.00307     0.00310     0.00455
          14     0.02708     0.00015    -0.01021    -0.00013     0.00013     0.02862
          15    -0.00290     0.02839     0.00465    -0.02516     0.02540    -0.00070
          16    -0.03390    -0.08222     0.10553    -0.05347    -0.05838     0.00060
          17     0.06318    -0.00346    -0.20491    -0.00225    -0.00245     0.00207
          18     0.00382    -0.67332    -0.01182    -0.43781    -0.47805    -0.00008
          19    -0.00435     0.04954    -0.16125    -0.02105    -0.08057    -0.15653
          20     0.04228     0.00208     0.00144    -0.00089    -0.00339     0.13745
          21     0.00031     0.40568     0.01968    -0.17239    -0.65975     0.01842
          22     0.00253     0.00113    -0.01117    -0.00131    -0.00304     0.00105
          23    -0.09727     0.00005     0.05447    -0.00005    -0.00013    -0.13723
          24     0.00019     0.00926     0.00108    -0.01070    -0.02487     0.00057
          25    -0.00950     0.00938     0.21373    -0.07960     0.03939     0.19407
          26     0.02933     0.00040     0.05281    -0.00335     0.00166     0.17082
          27     0.00101     0.07681    -0.02637    -0.65183     0.32255    -0.02458
          28     0.04547     0.00361     0.01397    -0.00333    -0.00328    -0.01717
          29     0.00516    -0.00523    -0.02145     0.00634     0.00358     0.03278
          30    -0.11058    -0.00618    -0.03227     0.00702     0.00853     0.03706
          31    -0.11502     0.00003    -0.02535     0.00009     0.00015     0.04511
          32     0.00500     0.00000    -0.01765     0.00000     0.00001     0.04037
          33     0.01402     0.00024     0.00319     0.00071     0.00120    -0.00572
          34     0.07074    -0.00500     0.02135     0.00493     0.00524    -0.02562
          35     0.00622     0.00517    -0.02114    -0.00627    -0.00349     0.03242
          36     0.09633    -0.00519     0.02817     0.00607     0.00753    -0.03217

                   25          26          27          28          29          30
 
 P.Frequency     1117.04     1144.87     1279.52     1353.48     1381.65     1445.35
 
           1    -0.00038    -0.00258     0.00147     0.02093     0.01076    -0.03023
           2    -0.00002     0.03248    -0.10991     0.07115     0.05945     0.02320
           3    -0.00307     0.00015     0.00038    -0.00292    -0.00162     0.00357
           4    -0.00159    -0.03448     0.02387     0.01245    -0.01655    -0.03026
           5    -0.00007    -0.01450     0.07069    -0.11795    -0.12461    -0.02669
           6    -0.01299     0.00429    -0.00328    -0.00091     0.00266     0.00383
           7     0.00364     0.03543    -0.02620    -0.03894     0.09213     0.15830
           8     0.00016     0.02108    -0.02328    -0.09746     0.01531     0.03593
           9     0.02980    -0.00444     0.00332     0.00526    -0.01133    -0.01952
          10     0.00016    -0.01697     0.02911    -0.01282     0.02113    -0.10212
          11     0.00001    -0.00519     0.00216     0.04196     0.02184     0.00916
          12     0.00136     0.00210    -0.00357     0.00135    -0.00269     0.01242
          13    -0.00023    -0.00260    -0.00535     0.00773    -0.03021     0.02663
          14    -0.00001    -0.01589    -0.00430    -0.03957     0.01701    -0.05627
          15    -0.00184     0.00040     0.00067    -0.00074     0.00360    -0.00296
          16     0.00527     0.03606    -0.17857    -0.10513    -0.07088     0.12248
          17     0.00022    -0.04953     0.28650     0.27265     0.16922    -0.26257
          18     0.04312    -0.00415     0.02034     0.01144     0.00779    -0.01361
          19     0.01169    -0.01405    -0.28283    -0.02327    -0.21906    -0.21173
          20     0.00049    -0.05528     0.67697    -0.04928     0.25805     0.31169
          21     0.09573     0.00200     0.03107     0.00309     0.02543     0.02426
          22    -0.03049     0.24208     0.04614     0.01071    -0.02855    -0.04384
          23    -0.00128    -0.01833     0.03831     0.16783    -0.00130    -0.01417
          24    -0.24976    -0.02946    -0.00583    -0.00217     0.00349     0.00543
          25    -0.00047    -0.02009     0.05938     0.13721    -0.33922     0.12513
          26    -0.00002    -0.01665     0.04138     0.29001    -0.57795     0.41586
          27    -0.00385     0.00254    -0.00746    -0.01825     0.04439    -0.01742
          28    -0.02029    -0.02756    -0.00358     0.00434     0.00213     0.00375
          29     0.02689     0.01801    -0.00173    -0.01632     0.00081     0.00162
          30     0.06631     0.03134     0.00088    -0.01218    -0.00035    -0.00096
          31     0.00210    -0.07664    -0.01421    -0.01803     0.00242     0.00482
          32     0.00009    -0.03255    -0.00920    -0.01776    -0.00194    -0.00274
          33     0.01721     0.00953     0.00178     0.00229    -0.00029    -0.00058
          34     0.03568    -0.03432    -0.00369     0.00717     0.00215     0.00387
          35    -0.02624     0.01772    -0.00174    -0.01620     0.00081     0.00163
          36     0.05975    -0.02397     0.00002     0.01094    -0.00018     0.00001

                   31          32          33          34          35          36
 
 P.Frequency     1455.92     1641.45     1711.53     3071.02     3151.03     3252.10
 
           1     0.05389     0.02943    -0.01908     0.00513    -0.05441     0.01011
           2    -0.01277    -0.00717     0.03563     0.00213    -0.01951     0.00334
           3    -0.00652    -0.00356     0.00215    -0.00064     0.00675    -0.00125
           4    -0.01243    -0.08238     0.11273    -0.00060     0.01789     0.07444
           5    -0.05192     0.01243    -0.12055     0.00001    -0.00283     0.03640
           6     0.00178     0.01000    -0.01315     0.00007    -0.00217    -0.00928
           7    -0.03004     0.08240    -0.10643     0.00318    -0.00891    -0.00316
           8     0.13880    -0.00171     0.10791     0.00147     0.00186     0.00244
           9     0.00296    -0.01005     0.01244    -0.00040     0.00108     0.00037
          10    -0.00446    -0.04445    -0.00605    -0.07179     0.00068    -0.00089
          11     0.07031    -0.17332    -0.11560     0.03928     0.01380    -0.00261
          12     0.00018     0.00632     0.00133     0.00857    -0.00015     0.00012
          13    -0.01159     0.00908     0.00208     0.00044     0.00131    -0.00023
          14    -0.08501     0.09980     0.06661     0.00053    -0.00703     0.00139
          15     0.00185    -0.00162    -0.00060    -0.00006    -0.00012     0.00002
          16    -0.21143    -0.12766     0.06307    -0.07467     0.84135    -0.17155
          17     0.48097     0.44663    -0.16333    -0.04361     0.40812    -0.09053
          18     0.02335     0.01330    -0.00686     0.00934    -0.10484     0.02141
          19     0.01968    -0.01044    -0.05122     0.00822    -0.17386    -0.82298
          20    -0.11094    -0.16201     0.25104     0.00410    -0.08044    -0.42579
          21    -0.00183     0.00211     0.00497    -0.00102     0.02165     0.10269
          22    -0.01007    -0.01059     0.01302    -0.00168    -0.00013     0.00104
          23    -0.11296     0.00786    -0.01996     0.00093    -0.00114     0.00031
          24     0.00181     0.00125    -0.00149     0.00020     0.00002    -0.00013
          25     0.07311     0.11938     0.12971     0.80945     0.06791    -0.00581
          26     0.19441     0.10690     0.11762    -0.48866    -0.05617     0.00705
          27    -0.00993    -0.01513    -0.01644    -0.09634    -0.00800     0.00067
          28    -0.00119     0.00120    -0.00015     0.00028    -0.00010    -0.00000
          29     0.00659     0.00031    -0.00232    -0.00016     0.00024    -0.00014
          30     0.00488    -0.00050    -0.00093    -0.00020     0.00011    -0.00005
          31     0.01021     0.00084    -0.00151     0.00006    -0.00009    -0.00038
          32     0.01130    -0.00163     0.00128    -0.00024     0.00008     0.00023
          33    -0.00131    -0.00009     0.00018    -0.00001     0.00001     0.00004
          34    -0.00234     0.00129     0.00008     0.00033    -0.00013     0.00001
          35     0.00655     0.00031    -0.00232    -0.00016     0.00024    -0.00014
          36    -0.00452     0.00019     0.00096     0.00013    -0.00009     0.00006



 ----------------------------------------------------------------------------
 Normal Eigenvalue ||    Projected Derivative Dipole Moments (debye/angs)
  Mode   [cm**-1]  ||      [d/dqX]             [d/dqY]           [d/dqZ]
 ------ ---------- || ------------------ ------------------ -----------------
    1       -0.000 ||      -0.001              -0.003            -0.000
    2       -0.000 ||       0.000               0.010            -0.017
    3       -0.000 ||      -0.005              -0.007            -0.031
    4       -0.000 ||      -0.001              -0.008             0.004
    5        0.000 ||       0.004               0.018             0.000
    6        0.000 ||      -0.002               0.002            -0.017
    7       37.781 ||      -0.002              -0.000            -0.013
    8      142.212 ||      -0.031              -0.001            -0.256
    9      188.450 ||       0.303               0.070            -0.037
   10      262.766 ||      -0.046              -0.002            -0.375
   11      273.921 ||       0.231              -0.053            -0.028
   12      365.981 ||      -0.025              -0.001            -0.204
   13      384.450 ||       0.223               0.226            -0.028
   14      397.750 ||      -0.382               0.377             0.045
   15      441.343 ||      -0.008              -0.000            -0.062
   16      516.520 ||      -0.557              -0.180             0.069
   17      561.252 ||      -0.289              -0.048             0.036
   18      589.396 ||      -0.015              -0.001            -0.127
   19      713.501 ||      -0.017              -0.455             0.004
   20      922.120 ||      -0.090              -0.004            -0.741
   21      923.797 ||       0.608               0.678            -0.078
   22     1013.194 ||      -0.104              -0.004            -0.853
   23     1039.945 ||      -0.147              -0.006            -1.204
   24     1056.989 ||       0.893              -1.705            -0.100
   25     1117.038 ||      -0.295              -0.012            -2.413
   26     1144.874 ||       2.010              -0.681            -0.242
   27     1279.517 ||      -0.423               2.311             0.040
   28     1353.485 ||       0.926               1.812            -0.122
   29     1381.649 ||      -0.297              -0.718             0.040
   30     1445.352 ||      -1.320              -0.464             0.164
   31     1455.918 ||       0.256              -0.455            -0.029
   32     1641.448 ||      -2.144              -0.182             0.263
   33     1711.535 ||       1.446              -2.340            -0.165
   34     3071.018 ||      -1.012               0.421             0.121
   35     3151.027 ||       1.991               0.994            -0.248
   36     3252.097 ||      -0.383              -0.077             0.047
 ----------------------------------------------------------------------------



  
  
 ----------------------------------------------------------------------------
 Normal Eigenvalue ||           Projected Infra Red Intensities
  Mode   [cm**-1]  || [atomic units] [(debye/angs)**2] [(KM/mol)] [arbitrary]
 ------ ---------- || -------------- ----------------- ---------- -----------
    1       -0.000 ||    0.000000           0.000         0.000       0.000
    2       -0.000 ||    0.000017           0.000         0.017       0.003
    3       -0.000 ||    0.000046           0.001         0.045       0.008
    4       -0.000 ||    0.000003           0.000         0.003       0.001
    5        0.000 ||    0.000015           0.000         0.015       0.003
    6        0.000 ||    0.000013           0.000         0.013       0.002
    7       37.781 ||    0.000008           0.000         0.007       0.001
    8      142.212 ||    0.002875           0.066         2.803       0.473
    9      188.450 ||    0.004259           0.098         4.152       0.701
   10      262.766 ||    0.006187           0.143         6.031       1.018
   11      273.921 ||    0.002466           0.057         2.404       0.406
   12      365.981 ||    0.001825           0.042         1.779       0.300
   13      384.450 ||    0.004396           0.101         4.286       0.723
   14      397.750 ||    0.012563           0.290        12.247       2.067
   15      441.343 ||    0.000168           0.004         0.164       0.028
   16      516.520 ||    0.015075           0.348        14.696       2.481
   17      561.252 ||    0.003769           0.087         3.674       0.620
   18      589.396 ||    0.000706           0.016         0.688       0.116
   19      713.501 ||    0.008975           0.207         8.749       1.477
   20      922.120 ||    0.024151           0.557        23.543       3.975
   21      923.797 ||    0.036178           0.835        35.268       5.954
   22     1013.194 ||    0.032021           0.739        31.216       5.270
   23     1039.945 ||    0.063792           1.472        62.188      10.499
   24     1056.989 ||    0.160974           3.714       156.925      26.492
   25     1117.038 ||    0.256106           5.909       249.665      42.148
   26     1144.874 ||    0.197741           4.562       192.768      32.543
   27     1279.517 ||    0.239410           5.523       233.388      39.400
   28     1353.485 ||    0.180105           4.155       175.576      29.640
   29     1381.649 ||    0.026273           0.606        25.613       4.324
   30     1445.352 ||    0.086067           1.986        83.903      14.164
   31     1455.918 ||    0.011837           0.273        11.540       1.948
   32     1641.448 ||    0.203660           4.699       198.538      33.517
   33     1711.535 ||    0.329084           7.592       320.807      54.158
   34     3071.018 ||    0.052751           1.217        51.424       8.681
   35     3151.027 ||    0.217257           5.012       211.793      35.755
   36     3252.097 ||    0.006706           0.155         6.537       1.104
 ----------------------------------------------------------------------------



 vib:animation  F

 Task  times  cpu:    22698.2s     wall:    22813.1s
 
 
                                NWChem Input Module
                                -------------------
 
 
 Summary of allocated global arrays
-----------------------------------
  No active global arrays



                         GA Statistics for process    0
                         ------------------------------

       create   destroy   get      put      acc     scatter   gather  read&inc
calls: 9.75e+04 9.75e+04 3.03e+07 3.27e+06 1.18e+07    0        0     1.33e+05 
number of processes/call -2.02e+09 -2.70e+12 5.20e+11 0.00e+00 0.00e+00
bytes total:             2.89e+10 5.75e+10 8.83e+09 0.00e+00 0.00e+00 1.06e+06
bytes remote:            1.32e+10 3.95e+10 5.93e+09 0.00e+00 0.00e+00 0.00e+00
Max memory consumed for GA by this process: 422668280 bytes
 
MA_summarize_allocated_blocks: starting scan ...
MA_summarize_allocated_blocks: scan completed: 0 heap blocks, 0 stack blocks
MA usage statistics:

	allocation statistics:
					      heap	     stack
					      ----	     -----
	current number of blocks	         0	         0
	maximum number of blocks	        22	        39
	current total bytes		         0	         0
	maximum total bytes		 286316096	  27400952
	maximum total K-bytes		    286317	     27401
	maximum total M-bytes		       287	        28
 
 
                                     CITATION
                                     --------
                Please cite the following reference when publishing
                           results obtained with NWChem:
 
          E. Apr, E. J. Bylaska, W. A. de Jong, N. Govind, K. Kowalski,
       T. P. Straatsma, M. Valiev, H. J. J. van Dam, Y. Alexeev, J. Anchell,
       V. Anisimov, F. W. Aquino, R. Atta-Fynn, J. Autschbach, N. P. Bauman,
     J. C. Becca, D. E. Bernholdt, K. Bhaskaran-Nair, S. Bogatko, P. Borowski,
        J. Boschen, J. Brabec, A. Bruner, E. Caut, Y. Chen, G. N. Chuev,
      C. J. Cramer, J. Daily, M. J. O. Deegan, T. H. Dunning Jr., M. Dupuis,
   K. G. Dyall, G. I. Fann, S. A. Fischer, A. Fonari, H. Frchtl, L. Gagliardi,
      J. Garza, N. Gawande, S. Ghosh, K. Glaesemann, A. W. Gtz, J. Hammond,
       V. Helms, E. D. Hermes, K. Hirao, S. Hirata, M. Jacquelin, L. Jensen,
   B. G. Johnson, H. Jnsson, R. A. Kendall, M. Klemm, R. Kobayashi, V. Konkov,
      S. Krishnamoorthy, M. Krishnan, Z. Lin, R. D. Lins, R. J. Littlefield,
      A. J. Logsdail, K. Lopata, W. Ma, A. V. Marenich, J. Martin del Campo,
   D. Mejia-Rodriguez, J. E. Moore, J. M. Mullin, T. Nakajima, D. R. Nascimento,
    J. A. Nichols, P. J. Nichols, J. Nieplocha, A. Otero-de-la-Roza, B. Palmer,
    A. Panyala, T. Pirojsirikul, B. Peng, R. Peverati, J. Pittner, L. Pollack,
   R. M. Richard, P. Sadayappan, G. C. Schatz, W. A. Shelton, D. W. Silverstein,
   D. M. A. Smith, T. A. Soares, D. Song, M. Swart, H. L. Taylor, G. S. Thomas,
            V. Tipparaju, D. G. Truhlar, K. Tsemekhman, T. Van Voorhis,
     . Vzquez-Mayagoitia, P. Verma, O. Villa, A. Vishnu, K. D. Vogiatzis,
        D. Wang, J. H. Weare, M. J. Williamson, T. L. Windus, K. Woliski,
        A. T. Wong, Q. Wu, C. Yang, Q. Yu, M. Zacharias, Z. Zhang, Y. Zhao,
                                and R. J. Harrison
                        "NWChem: Past, present, and future
                         J. Chem. Phys. 152, 184102 (2020)
                               doi:10.1063/5.0004997
 
                                      AUTHORS
                                      -------
     E. Apra, E. J. Bylaska, N. Govind, K. Kowalski, M. Valiev, W. A. de Jong,
      T. P. Straatsma, H. J. J. van Dam, D. Wang, T. L. Windus, N. P. Bauman,
       A. Panyala, J. Hammond, J. Autschbach, K. Bhaskaran-Nair, J. Brabec,
    K. Lopata, S. A. Fischer, S. Krishnamoorthy, M. Jacquelin, W. Ma, M. Klemm,
       O. Villa, Y. Chen, V. Anisimov, F. Aquino, S. Hirata, M. T. Hackler,
           Eric Hermes, L. Jensen, J. E. Moore, J. C. Becca, V. Konjkov,
            D. Mejia-Rodriguez, T. Risthaus, M. Malagoli, A. Marenich,
   A. Otero-de-la-Roza, J. Mullin, P. Nichols, R. Peverati, J. Pittner, Y. Zhao,
        P.-D. Fan, A. Fonari, M. J. Williamson, R. J. Harrison, J. R. Rehr,
      M. Dupuis, D. Silverstein, D. M. A. Smith, J. Nieplocha, V. Tipparaju,
      M. Krishnan, B. E. Van Kuiken, A. Vazquez-Mayagoitia, M. Swart, Q. Wu,
   T. Van Voorhis, A. A. Auer, M. Nooijen, L. D. Crosby, E. Brown, G. Cisneros,
     G. I. Fann, H. Fruchtl, J. Garza, K. Hirao, R. A. Kendall, J. A. Nichols,
       K. Tsemekhman, K. Wolinski, J. Anchell, D. E. Bernholdt, P. Borowski,
       T. Clark, D. Clerc, H. Dachsel, M. J. O. Deegan, K. Dyall, D. Elwood,
      E. Glendening, M. Gutowski, A. C. Hess, J. Jaffe, B. G. Johnson, J. Ju,
        R. Kobayashi, R. Kutteh, Z. Lin, R. Littlefield, X. Long, B. Meng,
      T. Nakajima, S. Niu, L. Pollack, M. Rosing, K. Glaesemann, G. Sandrone,
      M. Stave, H. Taylor, G. Thomas, J. H. van Lenthe, A. T. Wong, Z. Zhang.

 Total times  cpu:    30907.6s     wall:    31075.7s
