 argument  1 = 14O.nw
 


============================== echo of input deck ==============================
echo
start 14O_
title "H,MeF,H Open"
charge 0

geometry
 zmatrix
  O
  C  1  R1
  C  2  R2  1  A1
  C  3  R3  2  A2  1  D0
  O  4  R4  3  A3  2  D0
  H  1  R5  2  A4  3  D180
  H  2  R6  3  A5  4  D180
  C  3  R7  2  A6  1  D180
  H  4  R8  3  A7  2  D180
  F  8  R9  3  A8  2  D1
  F  8  R10 3  A9  2  D2
  F  8  R11 3  A10 2  D3
  variables
    R1  1.329
    R2  1.363
    A1  124.5
    R3  1.440
    A2  119.5
    R4  1.249
    A3  123.5
    R5  0.994
    A4  105.4
    R6  1.085
    A5  122.5
    R7  1.478
    A6  120.0
    R8  1.099
    A7  117.6
    R9  1.300
    A8  110.0
    D1  90.00
    R10 1.300
    A9  110.0
    D2  -30.0
    R11 1.300
    A10 110.0
    D3  -150.0
  constants
    D0  0.000
    D180 180.0
 end
end

basis spherical
 * library aug-cc-pVDZ
end

set lindep:n_dep 0

set cphf:maxsub 95
set cphf:maxiter 999
set int:acc_std 1d-16
set fock:densityscreen f

scf
 maxiter 99
 vectors input atomic
 thresh 1d-9
 tol2e 1d-15
end

mp2
 freeze atomic
 tight
end

driver
 clear
 maxiter 99
 tight
end

set "mp2:aotol2e fock" 1d-15
set mp2:aotol2e 1d-15
set mp2:backtol 1d-15


task mp2 optimize
task mp2 frequencies


================================================================================


                                         
                                         
 
 
             Northwest Computational Chemistry Package (NWChem) 7.0.0
             --------------------------------------------------------
 
 
                    Environmental Molecular Sciences Laboratory
                       Pacific Northwest National Laboratory
                                Richland, WA 99352
 
                              Copyright (c) 1994-2020
                       Pacific Northwest National Laboratory
                            Battelle Memorial Institute
 
             NWChem is an open-source computational chemistry package
                        distributed under the terms of the
                      Educational Community License (ECL) 2.0
             A copy of the license is included with this distribution
                              in the LICENSE.TXT file
 
                                  ACKNOWLEDGMENT
                                  --------------

            This software and its documentation were developed at the
            EMSL at Pacific Northwest National Laboratory, a multiprogram
            national laboratory, operated for the U.S. Department of Energy
            by Battelle under Contract Number DE-AC05-76RL01830. Support
            for this work was provided by the Department of Energy Office
            of Biological and Environmental Research, Office of Basic
            Energy Sciences, and the Office of Advanced Scientific Computing.


           Job information
           ---------------

    hostname        = compute-0-40.local
    program         = /scratch/nwchem.277679
    date            = Tue Apr  6 11:34:26 2021

    compiled        = Wed_Mar_31_13:42:43_2021
    source          = /home/edo/nwchem-7.0.1
    nwchem branch   = 7.0.1
    nwchem revision = de46fdf
    ga revision     = 5.7.1
    use scalapack   = T
    input           = 14O.nw
    prefix          = 14O_.
    data base       = ./14O_.db
    status          = startup
    nproc           =       11
    time left       =     -1s



           Memory information
           ------------------

    heap     =  215205455 doubles =   1641.9 Mbytes
    stack    =  215205457 doubles =   1641.9 Mbytes
    global   =  122974549 doubles =    938.2 Mbytes (distinct from heap & stack)
    total    =  553385461 doubles =   4222.0 Mbytes
    verify   = yes
    hardfail = no 


           Directory information
           ---------------------
 
  0 permanent = .
  0 scratch   = /scratch
 
 
 
 
                                NWChem Input Module
                                -------------------
 
 
                                   H,MeF,H Open
                                   ------------

 Scaling coordinates for geometry "geometry" by  1.889725989
 (inverse scale =  0.529177249)

 C1  symmetry detected
 
 
                             Geometry "geometry" -> ""
                             -------------------------
 
 Output coordinates in angstroms (scale by  1.889725989 to convert to a.u.)
 
  No.       Tag          Charge          X              Y              Z
 ---- ---------------- ---------- -------------- -------------- --------------
    1 O                    8.0000    -1.21820198     2.28518676    -0.00000000
    2 C                    6.0000    -1.13855572     0.95857549    -0.00000000
    3 C                    6.0000     0.02897555     0.25526920    -0.00000000
    4 C                    6.0000     1.28308194     0.96295357    -0.00000000
    5 O                    8.0000     1.37160460     2.20881260    -0.00000000
    6 H                    1.0000    -2.19060951     2.49124404    -0.00000000
    7 H                    1.0000    -2.11010166     0.47553978    -0.00000000
    8 C                    6.0000     0.00152414    -1.22247584     0.00000000
    9 H                    1.0000     2.20515434     0.36497071    -0.00000000
   10 F                    9.0000    -0.00673406    -1.66702533    -1.22160041
   11 F                    9.0000    -1.06448855    -1.64737590     0.61080020
   12 F                    9.0000     1.05102044    -1.68667476     0.61080020
 
      Atomic Mass 
      ----------- 
 
      O                 15.994910
      C                 12.000000
      H                  1.007825
      F                 18.998400
 

 Effective nuclear repulsion energy (a.u.)     484.0301520360

            Nuclear Dipole moment (a.u.) 
            ----------------------------
        X                 Y               Z
 ---------------- ---------------- ----------------
     0.0000000000     0.0000000000    -0.0000000000
 


                                Z-matrix (user)
                                -------- 

 Units are Angstrom for bonds and degrees for angles

  Constants are marked with an asterisk (*).

  Constrained variables are marked with a plus sign (+).

 
      Type          Name      I     J     K     L     M      Value
      ----------- --------  ----- ----- ----- ----- ----- ----------
    1 Stretch      R1          2     1                       1.32900
    2 Stretch      R2          3     2                       1.36300
    3 Bend         A1          3     2     1               124.50000
    4 Stretch      R3          4     3                       1.44000
    5 Bend         A2          4     3     2               119.50000
    6*Torsion      D0          4     3     2     1           0.00000
    7 Stretch      R4          5     4                       1.24900
    8 Bend         A3          5     4     3               123.50000
    9*Torsion      D0          5     4     3     2           0.00000
   10 Stretch      R5          6     1                       0.99400
   11 Bend         A4          6     1     2               105.40000
   12*Torsion      D180        6     1     2     3         180.00000
   13 Stretch      R6          7     2                       1.08500
   14 Bend         A5          7     2     3               122.50000
   15*Torsion      D180        7     2     3     4         180.00000
   16 Stretch      R7          8     3                       1.47800
   17 Bend         A6          8     3     2               120.00000
   18*Torsion      D180        8     3     2     1         180.00000
   19 Stretch      R8          9     4                       1.09900
   20 Bend         A7          9     4     3               117.60000
   21*Torsion      D180        9     4     3     2         180.00000
   22 Stretch      R9         10     8                       1.30000
   23 Bend         A8         10     8     3               110.00000
   24 Torsion      D1         10     8     3     2          90.00000
   25 Stretch      R10        11     8                       1.30000
   26 Bend         A9         11     8     3               110.00000
   27 Torsion      D2         11     8     3     2         -30.00000
   28 Stretch      R11        12     8                       1.30000
   29 Bend         A10        12     8     3               110.00000
   30 Torsion      D3         12     8     3     2        -150.00000
 
 
            XYZ format geometry
            -------------------
    12
 geometry
 O                    -1.21820198     2.28518676    -0.00000000
 C                    -1.13855572     0.95857549    -0.00000000
 C                     0.02897555     0.25526920    -0.00000000
 C                     1.28308194     0.96295357    -0.00000000
 O                     1.37160460     2.20881260    -0.00000000
 H                    -2.19060951     2.49124404    -0.00000000
 H                    -2.11010166     0.47553978    -0.00000000
 C                     0.00152414    -1.22247584     0.00000000
 H                     2.20515434     0.36497071    -0.00000000
 F                    -0.00673406    -1.66702533    -1.22160041
 F                    -1.06448855    -1.64737590     0.61080020
 F                     1.05102044    -1.68667476     0.61080020
 
 ==============================================================================
                                internuclear distances
 ------------------------------------------------------------------------------
       center one      |      center two      | atomic units |  angstroms
 ------------------------------------------------------------------------------
    2 C                |   1 O                |     2.51145  |     1.32900
    3 C                |   2 C                |     2.57570  |     1.36300
    4 C                |   3 C                |     2.72121  |     1.44000
    5 O                |   4 C                |     2.36027  |     1.24900
    6 H                |   1 O                |     1.87839  |     0.99400
    7 H                |   2 C                |     2.05035  |     1.08500
    8 C                |   3 C                |     2.79302  |     1.47800
    9 H                |   4 C                |     2.07681  |     1.09900
   10 F                |   8 C                |     2.45664  |     1.30000
   11 F                |   8 C                |     2.45664  |     1.30000
   12 F                |   8 C                |     2.45664  |     1.30000
 ------------------------------------------------------------------------------
                         number of included internuclear distances:         11
 ==============================================================================



 ==============================================================================
                                 internuclear angles
 ------------------------------------------------------------------------------
        center 1       |       center 2       |       center 3       |  degrees
 ------------------------------------------------------------------------------
    2 C                |   1 O                |   6 H                |   105.40
    1 O                |   2 C                |   3 C                |   124.50
    1 O                |   2 C                |   7 H                |   113.00
    3 C                |   2 C                |   7 H                |   122.50
    2 C                |   3 C                |   4 C                |   119.50
    2 C                |   3 C                |   8 C                |   120.00
    4 C                |   3 C                |   8 C                |   120.50
    3 C                |   4 C                |   5 O                |   123.50
    3 C                |   4 C                |   9 H                |   117.60
    5 O                |   4 C                |   9 H                |   118.90
    3 C                |   8 C                |  10 F                |   110.00
    3 C                |   8 C                |  11 F                |   110.00
    3 C                |   8 C                |  12 F                |   110.00
   10 F                |   8 C                |  11 F                |   108.94
   10 F                |   8 C                |  12 F                |   108.94
   11 F                |   8 C                |  12 F                |   108.94
 ------------------------------------------------------------------------------
                            number of included internuclear angles:         16
 ==============================================================================





 Summary of "ao basis" -> "" (spherical)
 ------------------------------------------------------------------------------
       Tag                 Description            Shells   Functions and Types
 ---------------- ------------------------------  ------  ---------------------
 *                        aug-cc-pVDZ                 on all atoms 


 
  Deleted DRIVER restart files 
 
 
 
                           NWChem Geometry Optimization
                           ----------------------------
 
 
 
 
                                   H,MeF,H Open
 
 
 maximum gradient threshold         (gmax) =   0.000015
 rms gradient threshold             (grms) =   0.000010
 maximum cartesian step threshold   (xmax) =   0.000060
 rms cartesian step threshold       (xrms) =   0.000040
 fixed trust radius                (trust) =   0.300000
 maximum step size to saddle      (sadstp) =   0.100000
 energy precision                  (eprec) =   1.0D-07
 maximum number of steps          (nptopt) =   99
 initial hessian option           (inhess) =    0
 line search option               (linopt) =    1
 hessian update option            (modupd) =    1
 saddle point option              (modsad) =    0
 initial eigen-mode to follow     (moddir) =    0
 initial variable to follow       (vardir) =    0
 follow first negative mode     (firstneg) =    T
 apply conjugacy                    (opcg) =    F
 source of zmatrix                         =   user    


          -------------------
          Energy Minimization
          -------------------

 
 Names of Z-matrix variables 
    1 R1           2 R2           3 A1           4 R3           5 A2      
    6 D0           7 R4           8 A3           9 D0          10 R5      
   11 A4          12 D180        13 R6          14 A5          15 D180    
   16 R7          17 A6          18 D180        19 R8          20 A7      
   21 D180        22 R9          23 A8          24 D1          25 R10     
   26 A9          27 D2          28 R11         29 A10         30 D3      
 
 Variables with the same non-blank name are constrained to be equal
 
     variables named       D0 =     6    9 
     variables named     D180 =    12   15   18   21 

 Number of frozen variables =    6
           Frozen variables =    6    9   12   15   18   21
 
 Using diagonal initial Hessian 
 Scaling for Hessian diagonals: bonds = 1.00  angles = 0.25  torsions = 0.10

          --------
          Step   0
          --------
 
 
                         Geometry "geometry" -> "geometry"
                         ---------------------------------
 
 Output coordinates in angstroms (scale by  1.889725989 to convert to a.u.)
 
  No.       Tag          Charge          X              Y              Z
 ---- ---------------- ---------- -------------- -------------- --------------
    1 O                    8.0000    -1.21820198     2.28518676    -0.00000000
    2 C                    6.0000    -1.13855572     0.95857549    -0.00000000
    3 C                    6.0000     0.02897555     0.25526920    -0.00000000
    4 C                    6.0000     1.28308194     0.96295357    -0.00000000
    5 O                    8.0000     1.37160460     2.20881260    -0.00000000
    6 H                    1.0000    -2.19060951     2.49124404    -0.00000000
    7 H                    1.0000    -2.11010166     0.47553978    -0.00000000
    8 C                    6.0000     0.00152414    -1.22247584     0.00000000
    9 H                    1.0000     2.20515434     0.36497071    -0.00000000
   10 F                    9.0000    -0.00673406    -1.66702533    -1.22160041
   11 F                    9.0000    -1.06448855    -1.64737590     0.61080020
   12 F                    9.0000     1.05102044    -1.68667476     0.61080020
 
      Atomic Mass 
      ----------- 
 
      O                 15.994910
      C                 12.000000
      H                  1.007825
      F                 18.998400
 

 Effective nuclear repulsion energy (a.u.)     484.0301520360

            Nuclear Dipole moment (a.u.) 
            ----------------------------
        X                 Y               Z
 ---------------- ---------------- ----------------
     0.0000000000     0.0000000000    -0.0000000000
 
                      Basis "ao basis" -> "ao basis" (spherical)
                      -----
  O (Oxygen)
  ----------
            Exponent  Coefficients 
       -------------- ---------------------------------------------------------
  1 S  1.17200000E+04  0.000710
  1 S  1.75900000E+03  0.005470
  1 S  4.00800000E+02  0.027837
  1 S  1.13700000E+02  0.104800
  1 S  3.70300000E+01  0.283062
  1 S  1.32700000E+01  0.448719
  1 S  5.02500000E+00  0.270952
  1 S  1.01300000E+00  0.015458
 
  2 S  1.17200000E+04 -0.000160
  2 S  1.75900000E+03 -0.001263
  2 S  4.00800000E+02 -0.006267
  2 S  1.13700000E+02 -0.025716
  2 S  3.70300000E+01 -0.070924
  2 S  1.32700000E+01 -0.165411
  2 S  5.02500000E+00 -0.116955
  2 S  1.01300000E+00  0.557368
 
  3 S  3.02300000E-01  1.000000
 
  4 S  7.89600000E-02  1.000000
 
  5 P  1.77000000E+01  0.043018
  5 P  3.85400000E+00  0.228913
  5 P  1.04600000E+00  0.508728
 
  6 P  2.75300000E-01  1.000000
 
  7 P  6.85600000E-02  1.000000
 
  8 D  1.18500000E+00  1.000000
 
  9 D  3.32000000E-01  1.000000
 
  C (Carbon)
  ----------
            Exponent  Coefficients 
       -------------- ---------------------------------------------------------
  1 S  6.66500000E+03  0.000692
  1 S  1.00000000E+03  0.005329
  1 S  2.28000000E+02  0.027077
  1 S  6.47100000E+01  0.101718
  1 S  2.10600000E+01  0.274740
  1 S  7.49500000E+00  0.448564
  1 S  2.79700000E+00  0.285074
  1 S  5.21500000E-01  0.015204
 
  2 S  6.66500000E+03 -0.000146
  2 S  1.00000000E+03 -0.001154
  2 S  2.28000000E+02 -0.005725
  2 S  6.47100000E+01 -0.023312
  2 S  2.10600000E+01 -0.063955
  2 S  7.49500000E+00 -0.149981
  2 S  2.79700000E+00 -0.127262
  2 S  5.21500000E-01  0.544529
 
  3 S  1.59600000E-01  1.000000
 
  4 S  4.69000000E-02  1.000000
 
  5 P  9.43900000E+00  0.038109
  5 P  2.00200000E+00  0.209480
  5 P  5.45600000E-01  0.508557
 
  6 P  1.51700000E-01  1.000000
 
  7 P  4.04100000E-02  1.000000
 
  8 D  5.50000000E-01  1.000000
 
  9 D  1.51000000E-01  1.000000
 
  H (Hydrogen)
  ------------
            Exponent  Coefficients 
       -------------- ---------------------------------------------------------
  1 S  1.30100000E+01  0.019685
  1 S  1.96200000E+00  0.137977
  1 S  4.44600000E-01  0.478148
 
  2 S  1.22000000E-01  1.000000
 
  3 S  2.97400000E-02  1.000000
 
  4 P  7.27000000E-01  1.000000
 
  5 P  1.41000000E-01  1.000000
 
  F (Fluorine)
  ------------
            Exponent  Coefficients 
       -------------- ---------------------------------------------------------
  1 S  1.47100000E+04  0.000721
  1 S  2.20700000E+03  0.005553
  1 S  5.02800000E+02  0.028267
  1 S  1.42600000E+02  0.106444
  1 S  4.64700000E+01  0.286814
  1 S  1.67000000E+01  0.448641
  1 S  6.35600000E+00  0.264761
  1 S  1.31600000E+00  0.015333
 
  2 S  1.47100000E+04 -0.000165
  2 S  2.20700000E+03 -0.001308
  2 S  5.02800000E+02 -0.006495
  2 S  1.42600000E+02 -0.026691
  2 S  4.64700000E+01 -0.073690
  2 S  1.67000000E+01 -0.170776
  2 S  6.35600000E+00 -0.112327
  2 S  1.31600000E+00  0.562814
 
  3 S  3.89700000E-01  1.000000
 
  4 S  9.86300000E-02  1.000000
 
  5 P  2.26700000E+01  0.044878
  5 P  4.97700000E+00  0.235718
  5 P  1.34700000E+00  0.508521
 
  6 P  3.47100000E-01  1.000000
 
  7 P  8.50200000E-02  1.000000
 
  8 D  1.64000000E+00  1.000000
 
  9 D  4.64000000E-01  1.000000
 


 Summary of "ao basis" -> "ao basis" (spherical)
 ------------------------------------------------------------------------------
       Tag                 Description            Shells   Functions and Types
 ---------------- ------------------------------  ------  ---------------------
 O                        aug-cc-pVDZ                9       23   4s3p2d
 C                        aug-cc-pVDZ                9       23   4s3p2d
 H                        aug-cc-pVDZ                5        9   3s2p
 F                        aug-cc-pVDZ                9       23   4s3p2d


                                 NWChem SCF Module
                                 -----------------
 
 
                                   H,MeF,H Open
 
 

  ao basis        = "ao basis"
  functions       =   234
  atoms           =    12
  closed shells   =    35
  open shells     =     0
  charge          =   0.00
  wavefunction    = RHF 
  input vectors   = atomic
  output vectors  = ./14O_.movecs
  use symmetry    = F
  symmetry adapt  = F


 Summary of "ao basis" -> "ao basis" (spherical)
 ------------------------------------------------------------------------------
       Tag                 Description            Shells   Functions and Types
 ---------------- ------------------------------  ------  ---------------------
 O                        aug-cc-pVDZ                9       23   4s3p2d
 C                        aug-cc-pVDZ                9       23   4s3p2d
 H                        aug-cc-pVDZ                5        9   3s2p
 F                        aug-cc-pVDZ                9       23   4s3p2d



int_init: setting std/high accuracies to  1.0D-16  1.0D-32

 Forming initial guess at       0.7s


 Forcing the number of linearly dependent vectors to be  0
 
      Superposition of Atomic Density Guess
      -------------------------------------
 
 Sum of atomic energies:        -599.86547455
 
      Non-variational initial energy
      ------------------------------

 Total energy =    -604.007854
 1-e energy   =   -1790.320082
 2-e energy   =     702.282075
 HOMO         =      -0.304958
 LUMO         =      -0.067561
 

 Starting SCF solution at       6.1s



 ----------------------------------------------
         Quadratically convergent ROHF

 Convergence threshold     :          1.000E-09
 Maximum no. of iterations :           99
 Final Fock-matrix accuracy:          1.000E-15
 ----------------------------------------------


              iter       energy          gnorm     gmax       time
             ----- ------------------- --------- --------- --------
                 1     -601.0394953364  2.13D+00  3.18D-01     12.0
                 2     -601.2685334702  5.97D-01  8.87D-02     23.9
                 3     -601.3008415625  2.42D-02  4.97D-03     44.4
                 4     -601.3009679168  4.27D-04  9.56D-05     75.0
                 5     -601.3009679382  1.20D-07  3.98D-08    128.4
                 6     -601.3009679382  8.41D-11  9.04D-12    178.5


       Final RHF  results 
       ------------------ 

         Total SCF energy =   -601.300967938243
      One-electron energy =  -1792.960882671496
      Two-electron energy =    707.629762697265
 Nuclear repulsion energy =    484.030152035988

        Time for solution =    172.5s


             Final eigenvalues
             -----------------

              1      
    1  -26.3658
    2  -26.3650
    3  -26.3599
    4  -20.6543
    5  -20.5559
    6  -11.5208
    7  -11.3753
    8  -11.3449
    9  -11.2598
   10   -1.7776
   11   -1.6721
   12   -1.6680
   13   -1.4661
   14   -1.3658
   15   -1.1305
   16   -0.9899
   17   -0.9266
   18   -0.8687
   19   -0.8588
   20   -0.8505
   21   -0.7935
   22   -0.7658
   23   -0.7332
   24   -0.7305
   25   -0.6849
   26   -0.6839
   27   -0.6643
   28   -0.6607
   29   -0.6365
   30   -0.6271
   31   -0.5904
   32   -0.5743
   33   -0.5217
   34   -0.4257
   35   -0.3818
   36    0.0183
   37    0.0463
   38    0.0507
   39    0.0587
   40    0.0800
   41    0.0812
   42    0.0981
   43    0.1100
   44    0.1207
   45    0.1227
 
                       ROHF Final Molecular Orbital Analysis
                       -------------------------------------
 
 Vector   13  Occ=2.000000D+00  E=-1.466065D+00
              MO Center= -1.3D+00,  2.0D+00, -8.2D-05, r^2= 6.2D-01
   Bfn.  Coefficient  Atom+Function         Bfn.  Coefficient  Atom+Function  
  ----- ------------  ---------------      ----- ------------  ---------------
     3      0.470227   1 O  s                 2      0.412420   1 O  s         
    27     -0.267559   2 C  s                32     -0.176235   2 C  py        
   116      0.173142   6 H  s                26      0.158308   2 C  s         
    25      0.153309   2 C  s                 4      0.151278   1 O  s         
 
 Vector   14  Occ=2.000000D+00  E=-1.365815D+00
              MO Center=  1.3D+00,  1.8D+00, -6.6D-05, r^2= 6.5D-01
   Bfn.  Coefficient  Atom+Function         Bfn.  Coefficient  Atom+Function  
  ----- ------------  ---------------      ----- ------------  ---------------
    95      0.458159   5 O  s                94      0.394697   5 O  s         
    72      0.291066   4 C  s                71      0.215929   4 C  s         
    73     -0.213043   4 C  s                54     -0.173405   3 C  px        
    75      0.166039   4 C  py        
 
 Vector   15  Occ=2.000000D+00  E=-1.130480D+00
              MO Center= -1.4D-01,  1.4D-01,  2.1D-03, r^2= 2.1D+00
   Bfn.  Coefficient  Atom+Function         Bfn.  Coefficient  Atom+Function  
  ----- ------------  ---------------      ----- ------------  ---------------
    48      0.299805   3 C  s                49      0.231570   3 C  s         
    25      0.180915   2 C  s                26      0.178614   2 C  s         
   135      0.167697   8 C  s         
 
 Vector   16  Occ=2.000000D+00  E=-9.898522D-01
              MO Center= -2.1D-01, -8.3D-01,  1.8D-02, r^2= 3.5D+00
   Bfn.  Coefficient  Atom+Function         Bfn.  Coefficient  Atom+Function  
  ----- ------------  ---------------      ----- ------------  ---------------
   137      0.420764   8 C  s                27     -0.334881   2 C  s         
   135     -0.296881   8 C  s                26      0.251911   2 C  s         
   172     -0.211593  10 F  pz              216      0.194896  12 F  px        
   193     -0.193503  11 F  px               25      0.176233   2 C  s         
    58      0.157492   3 C  py              126      0.153702   7 H  s         
 
 Vector   17  Occ=2.000000D+00  E=-9.266209D-01
              MO Center= -5.1D-02,  3.8D-01,  2.7D-02, r^2= 3.7D+00
   Bfn.  Coefficient  Atom+Function         Bfn.  Coefficient  Atom+Function  
  ----- ------------  ---------------      ----- ------------  ---------------
    26      0.458820   2 C  s                72     -0.393964   4 C  s         
    73      0.385256   4 C  s                27     -0.374422   2 C  s         
    31      0.255358   2 C  px               54      0.251194   3 C  px        
    57     -0.234386   3 C  px               77      0.227460   4 C  px        
    25      0.224564   2 C  s                49     -0.214268   3 C  s         
 
 Vector   18  Occ=2.000000D+00  E=-8.686618D-01
              MO Center=  1.9D-02, -7.1D-01,  7.3D-02, r^2= 3.6D+00
   Bfn.  Coefficient  Atom+Function         Bfn.  Coefficient  Atom+Function  
  ----- ------------  ---------------      ----- ------------  ---------------
    72      0.244327   4 C  s               139     -0.245333   8 C  py        
   194     -0.244441  11 F  py              216     -0.205550  12 F  px        
   218     -0.188504  12 F  pz               55      0.171490   3 C  py        
    52      0.168553   3 C  py              197     -0.159494  11 F  py        
   138      0.157485   8 C  px              171     -0.156340  10 F  py        
 
 Vector   19  Occ=2.000000D+00  E=-8.587587D-01
              MO Center= -2.5D-02, -1.6D+00, -2.4D-01, r^2= 1.8D+00
   Bfn.  Coefficient  Atom+Function         Bfn.  Coefficient  Atom+Function  
  ----- ------------  ---------------      ----- ------------  ---------------
   136      0.362811   8 C  s               172      0.329715  10 F  pz        
   140     -0.321404   8 C  pz               55      0.265463   3 C  py        
   193     -0.259906  11 F  px              216      0.244084  12 F  px        
    26     -0.221836   2 C  s                69      0.214781   3 C  d  2      
   142      0.193352   8 C  py               72     -0.188331   4 C  s         
 
 Vector   20  Occ=2.000000D+00  E=-8.504733D-01
              MO Center=  2.4D-02, -1.1D+00,  1.6D-01, r^2= 3.1D+00
   Bfn.  Coefficient  Atom+Function         Bfn.  Coefficient  Atom+Function  
  ----- ------------  ---------------      ----- ------------  ---------------
   138      0.267813   8 C  px              195      0.254159  11 F  pz        
   170      0.222901  10 F  px              193     -0.206248  11 F  px        
   217      0.198466  12 F  py              218     -0.186449  12 F  pz        
   198      0.158674  11 F  pz        
 
 Vector   21  Occ=2.000000D+00  E=-7.935265D-01
              MO Center= -5.5D-01,  1.2D+00, -1.0D-02, r^2= 3.5D+00
   Bfn.  Coefficient  Atom+Function         Bfn.  Coefficient  Atom+Function  
  ----- ------------  ---------------      ----- ------------  ---------------
    28      0.280151   2 C  px              126     -0.270881   7 H  s         
     5      0.258991   1 O  px              125     -0.258030   7 H  s         
    27      0.247064   2 C  s               157     -0.182790   9 H  s         
     3      0.166362   1 O  s               137     -0.163853   8 C  s         
 
 Vector   22  Occ=2.000000D+00  E=-7.657940D-01
              MO Center= -6.3D-01,  9.7D-01,  3.1D-02, r^2= 4.4D+00
   Bfn.  Coefficient  Atom+Function         Bfn.  Coefficient  Atom+Function  
  ----- ------------  ---------------      ----- ------------  ---------------
     6      0.319080   1 O  py               29     -0.282011   2 C  py        
   116      0.251472   6 H  s               217     -0.230568  12 F  py        
     5     -0.223323   1 O  px                9      0.174397   1 O  py        
    50     -0.165883   3 C  s               220     -0.162438  12 F  py        
 
 Vector   23  Occ=2.000000D+00  E=-7.331950D-01
              MO Center= -8.9D-02, -1.6D+00, -4.4D-02, r^2= 2.2D+00
   Bfn.  Coefficient  Atom+Function         Bfn.  Coefficient  Atom+Function  
  ----- ------------  ---------------      ----- ------------  ---------------
   171      0.376829  10 F  py              194     -0.308723  11 F  py        
   218      0.291539  12 F  pz              174      0.258427  10 F  py        
   136      0.233926   8 C  s               197     -0.214606  11 F  py        
   195      0.204827  11 F  pz              221      0.199438  12 F  pz        
    69      0.188151   3 C  d  2             72     -0.177122   4 C  s         
 
 Vector   24  Occ=2.000000D+00  E=-7.304922D-01
              MO Center= -3.5D-02, -1.5D+00,  5.4D-02, r^2= 2.6D+00
   Bfn.  Coefficient  Atom+Function         Bfn.  Coefficient  Atom+Function  
  ----- ------------  ---------------      ----- ------------  ---------------
   217      0.349898  12 F  py              170     -0.307154  10 F  px        
   194     -0.287360  11 F  py              220      0.238813  12 F  py        
   195     -0.215931  11 F  pz               26      0.213635   2 C  s         
   173     -0.214247  10 F  px               54      0.197457   3 C  px        
   197     -0.197241  11 F  py               73      0.181023   4 C  s         
 
 Vector   25  Occ=2.000000D+00  E=-6.848921D-01
              MO Center= -1.5D-01, -1.4D+00,  1.9D-01, r^2= 2.6D+00
   Bfn.  Coefficient  Atom+Function         Bfn.  Coefficient  Atom+Function  
  ----- ------------  ---------------      ----- ------------  ---------------
   193      0.321520  11 F  px              216      0.311872  12 F  px        
   194     -0.301385  11 F  py              170      0.245746  10 F  px        
    72     -0.234816   4 C  s               197     -0.228436  11 F  py        
   219      0.211427  12 F  px              196      0.207432  11 F  px        
   173      0.175519  10 F  px               54      0.169620   3 C  px        
 
 Vector   26  Occ=2.000000D+00  E=-6.838784D-01
              MO Center=  1.3D-01, -1.6D+00, -1.7D-01, r^2= 2.2D+00
   Bfn.  Coefficient  Atom+Function         Bfn.  Coefficient  Atom+Function  
  ----- ------------  ---------------      ----- ------------  ---------------
   172      0.337666  10 F  pz              195      0.285915  11 F  pz        
   218      0.276198  12 F  pz              171     -0.268114  10 F  py        
   175      0.218170  10 F  pz              217      0.216764  12 F  py        
   174     -0.201456  10 F  py              198      0.201801  11 F  pz        
    26      0.190959   2 C  s               221      0.186981  12 F  pz        
 
 Vector   27  Occ=2.000000D+00  E=-6.643000D-01
              MO Center=  1.4D-01, -7.6D-01, -4.0D-02, r^2= 4.0D+00
   Bfn.  Coefficient  Atom+Function         Bfn.  Coefficient  Atom+Function  
  ----- ------------  ---------------      ----- ------------  ---------------
   170      0.348166  10 F  px              218      0.288139  12 F  pz        
   195     -0.285940  11 F  pz              173      0.246549  10 F  px        
   221      0.200949  12 F  pz              198     -0.199767  11 F  pz        
    74     -0.197523   4 C  px               54      0.158446   3 C  px        
    51      0.154782   3 C  px              193     -0.150632  11 F  px        
 
 Vector   28  Occ=2.000000D+00  E=-6.607361D-01
              MO Center=  2.8D-01,  2.1D-01, -5.0D-02, r^2= 4.5D+00
   Bfn.  Coefficient  Atom+Function         Bfn.  Coefficient  Atom+Function  
  ----- ------------  ---------------      ----- ------------  ---------------
    74      0.275513   4 C  px              170      0.268633  10 F  px        
    51     -0.211653   3 C  px               72     -0.211365   4 C  s         
   218      0.203620  12 F  pz              173      0.189657  10 F  px        
   195     -0.182789  11 F  pz              157      0.179512   9 H  s         
    97      0.170480   5 O  px                6      0.166571   1 O  py        
 
 Vector   29  Occ=2.000000D+00  E=-6.364906D-01
              MO Center=  1.0D+00,  9.6D-01,  2.3D-02, r^2= 4.0D+00
   Bfn.  Coefficient  Atom+Function         Bfn.  Coefficient  Atom+Function  
  ----- ------------  ---------------      ----- ------------  ---------------
    98      0.379712   5 O  py              136      0.360065   8 C  s         
    26     -0.302516   2 C  s                75     -0.295041   4 C  py        
   142      0.256999   8 C  py              217     -0.252882  12 F  py        
    95      0.240411   5 O  s                27      0.203229   2 C  s         
   101      0.198670   5 O  py              220     -0.188509  12 F  py        
 
 Vector   30  Occ=2.000000D+00  E=-6.271088D-01
              MO Center= -1.1D+00,  1.9D+00, -4.5D-03, r^2= 1.5D+00
   Bfn.  Coefficient  Atom+Function         Bfn.  Coefficient  Atom+Function  
  ----- ------------  ---------------      ----- ------------  ---------------
     7      0.529100   1 O  pz               10      0.390248   1 O  pz        
    30      0.234739   2 C  pz        
 
 Vector   31  Occ=2.000000D+00  E=-5.904066D-01
              MO Center= -5.2D-01,  1.1D+00, -1.8D-02, r^2= 3.9D+00
   Bfn.  Coefficient  Atom+Function         Bfn.  Coefficient  Atom+Function  
  ----- ------------  ---------------      ----- ------------  ---------------
   126     -0.295475   7 H  s                50     -0.281807   3 C  s         
    27      0.272180   2 C  s                 6     -0.253039   1 O  py        
   125     -0.243807   7 H  s                 5     -0.233797   1 O  px        
    98     -0.191763   5 O  py               28      0.180082   2 C  px        
    75      0.177012   4 C  py               29      0.164782   2 C  py        
 
 Vector   32  Occ=2.000000D+00  E=-5.742853D-01
              MO Center= -1.3D-01,  5.5D-01, -1.2D-03, r^2= 4.3D+00
   Bfn.  Coefficient  Atom+Function         Bfn.  Coefficient  Atom+Function  
  ----- ------------  ---------------      ----- ------------  ---------------
   136      0.402187   8 C  s               142      0.291545   8 C  py        
    52     -0.270847   3 C  py               26     -0.256133   2 C  s         
     5      0.232564   1 O  px               28     -0.229794   2 C  px        
   139      0.227103   8 C  py               98     -0.217836   5 O  py        
    73      0.212520   4 C  s               194     -0.191668  11 F  py        
 
 Vector   33  Occ=2.000000D+00  E=-5.217130D-01
              MO Center=  1.0D+00,  1.6D+00, -9.3D-04, r^2= 1.9D+00
   Bfn.  Coefficient  Atom+Function         Bfn.  Coefficient  Atom+Function  
  ----- ------------  ---------------      ----- ------------  ---------------
    99      0.421239   5 O  pz               76      0.320920   4 C  pz        
   102      0.315799   5 O  pz                7     -0.188449   1 O  pz        
    79      0.162814   4 C  pz               53      0.157065   3 C  pz        
 
 Vector   34  Occ=2.000000D+00  E=-4.256857D-01
              MO Center=  1.2D+00,  1.7D+00,  1.0D-03, r^2= 1.9D+00
   Bfn.  Coefficient  Atom+Function         Bfn.  Coefficient  Atom+Function  
  ----- ------------  ---------------      ----- ------------  ---------------
    97      0.552666   5 O  px              100      0.424252   5 O  px        
    77     -0.307670   4 C  px               72      0.290576   4 C  s         
    26     -0.239118   2 C  s               157     -0.219684   9 H  s         
    31     -0.177123   2 C  px               51      0.177240   3 C  px        
    65     -0.172411   3 C  d -2             74     -0.168955   4 C  px        
 
 Vector   35  Occ=2.000000D+00  E=-3.817841D-01
              MO Center= -1.1D-01,  9.2D-01, -2.6D-03, r^2= 2.6D+00
   Bfn.  Coefficient  Atom+Function         Bfn.  Coefficient  Atom+Function  
  ----- ------------  ---------------      ----- ------------  ---------------
    53      0.399316   3 C  pz               56      0.315545   3 C  pz        
    99     -0.265329   5 O  pz               30      0.261573   2 C  pz        
     7     -0.236602   1 O  pz              102     -0.204566   5 O  pz        
    10     -0.188705   1 O  pz               33      0.176900   2 C  pz        
 
 Vector   36  Occ=0.000000D+00  E= 1.834228D-02
              MO Center= -3.6D+00,  1.9D+00, -2.5D-02, r^2= 1.1D+01
   Bfn.  Coefficient  Atom+Function         Bfn.  Coefficient  Atom+Function  
  ----- ------------  ---------------      ----- ------------  ---------------
    73      4.327291   4 C  s               137      2.776547   8 C  s         
    57     -2.727735   3 C  px              127     -2.444148   7 H  s         
    34     -1.926277   2 C  px              118     -1.782954   6 H  s         
    27     -1.717124   2 C  s                35      1.370562   2 C  py        
    80     -1.024891   4 C  px               50     -0.947258   3 C  s         
 
 Vector   37  Occ=0.000000D+00  E= 4.625097D-02
              MO Center=  5.3D-01, -4.7D-01, -3.5D-02, r^2= 2.7D+01
   Bfn.  Coefficient  Atom+Function         Bfn.  Coefficient  Atom+Function  
  ----- ------------  ---------------      ----- ------------  ---------------
   137     15.556206   8 C  s                58      9.680719   3 C  py        
    73     -5.498424   4 C  s                50     -4.936788   3 C  s         
   159     -3.884499   9 H  s                35     -3.406581   2 C  py        
    80      3.021697   4 C  px              127     -2.759109   7 H  s         
    57      2.677790   3 C  px              145      2.496417   8 C  py        
 
 Vector   38  Occ=0.000000D+00  E= 5.069730D-02
              MO Center= -2.8D-01,  4.8D-01, -1.2D-01, r^2= 2.9D+01
   Bfn.  Coefficient  Atom+Function         Bfn.  Coefficient  Atom+Function  
  ----- ------------  ---------------      ----- ------------  ---------------
    27      6.139814   2 C  s               127      5.401300   7 H  s         
    73     -4.897832   4 C  s               159     -4.368597   9 H  s         
    57      4.185751   3 C  px               80      3.309368   4 C  px        
    34      2.917892   2 C  px              118     -2.391744   6 H  s         
    35      1.144427   2 C  py              137     -1.148830   8 C  s         
 
 Vector   39  Occ=0.000000D+00  E= 5.872168D-02
              MO Center= -4.4D-01,  8.9D-01,  6.6D-02, r^2= 6.3D+00
   Bfn.  Coefficient  Atom+Function         Bfn.  Coefficient  Atom+Function  
  ----- ------------  ---------------      ----- ------------  ---------------
    36      1.362954   2 C  pz               27      1.218270   2 C  s         
    59     -1.141293   3 C  pz              137     -1.045656   8 C  s         
   127      0.898831   7 H  s                58     -0.812466   3 C  py        
    34      0.570511   2 C  px               73     -0.565635   4 C  s         
    57      0.553214   3 C  px              159     -0.512067   9 H  s         
 
 Vector   40  Occ=0.000000D+00  E= 8.000136D-02
              MO Center= -1.3D-01, -1.3D+00,  2.2D-01, r^2= 2.4D+01
   Bfn.  Coefficient  Atom+Function         Bfn.  Coefficient  Atom+Function  
  ----- ------------  ---------------      ----- ------------  ---------------
   137     20.111973   8 C  s                27    -14.203124   2 C  s         
    58     12.847347   3 C  py               73    -11.125018   4 C  s         
    50      6.389567   3 C  s               145      4.612779   8 C  py        
    34     -4.437249   2 C  px               80      2.471132   4 C  px        
   118     -1.925622   6 H  s               169     -1.295053  10 F  s         
 
 Vector   41  Occ=0.000000D+00  E= 8.121377D-02
              MO Center= -2.5D-01, -2.0D-01,  8.6D-02, r^2= 1.8D+01
   Bfn.  Coefficient  Atom+Function         Bfn.  Coefficient  Atom+Function  
  ----- ------------  ---------------      ----- ------------  ---------------
   137      5.667036   8 C  s                27     -3.732942   2 C  s         
    59     -3.581795   3 C  pz               58      2.741771   3 C  py        
    73     -2.446252   4 C  s               146      2.241382   8 C  pz        
    36      1.979128   2 C  pz               82      1.672010   4 C  pz        
   145      1.669056   8 C  py               34     -1.028606   2 C  px        
 
 Vector   42  Occ=0.000000D+00  E= 9.812714D-02
              MO Center= -1.4D-01,  9.4D-01, -1.9D-02, r^2= 2.2D+01
   Bfn.  Coefficient  Atom+Function         Bfn.  Coefficient  Atom+Function  
  ----- ------------  ---------------      ----- ------------  ---------------
    27     27.533727   2 C  s                73    -17.081952   4 C  s         
    57     15.908558   3 C  px               50    -15.161093   3 C  s         
    34      8.420374   2 C  px               35     -4.372274   2 C  py        
   127      3.826262   7 H  s                81      3.300754   4 C  py        
    80      3.150436   4 C  px              144     -2.583460   8 C  px        
 
 Vector   43  Occ=0.000000D+00  E= 1.099680D-01
              MO Center=  2.4D-01,  6.2D-01, -4.0D-02, r^2= 2.0D+01
   Bfn.  Coefficient  Atom+Function         Bfn.  Coefficient  Atom+Function  
  ----- ------------  ---------------      ----- ------------  ---------------
    73     26.413318   4 C  s                50    -18.819171   3 C  s         
    57    -15.119990   3 C  px               27     -9.799270   2 C  s         
    80     -5.879592   4 C  px               35      3.774579   2 C  py        
   137      3.468813   8 C  s                81     -3.344441   4 C  py        
    58     -2.998079   3 C  py              144      2.791739   8 C  px        
 
 Vector   44  Occ=0.000000D+00  E= 1.206508D-01
              MO Center= -5.1D-01, -6.1D-01, -8.5D-02, r^2= 1.9D+01
   Bfn.  Coefficient  Atom+Function         Bfn.  Coefficient  Atom+Function  
  ----- ------------  ---------------      ----- ------------  ---------------
   146      2.920496   8 C  pz               27      2.385904   2 C  s         
    36     -1.884633   2 C  pz               57      1.798689   3 C  px        
     4     -1.282535   1 O  s                34     -1.241629   2 C  px        
   144     -1.173370   8 C  px              169      1.032613  10 F  s         
   127     -0.995256   7 H  s                82     -0.959994   4 C  pz        
 
 Vector   45  Occ=0.000000D+00  E= 1.227279D-01
              MO Center= -1.6D+00,  1.3D+00,  1.0D-01, r^2= 2.1D+01
   Bfn.  Coefficient  Atom+Function         Bfn.  Coefficient  Atom+Function  
  ----- ------------  ---------------      ----- ------------  ---------------
    50      7.372048   3 C  s                35      5.592100   2 C  py        
    73      5.560508   4 C  s                58     -4.584396   3 C  py        
    34     -4.178974   2 C  px                4     -3.871739   1 O  s         
   118     -2.912954   6 H  s               127     -2.813398   7 H  s         
   137     -2.246314   8 C  s               144     -2.007728   8 C  px        
 
 Vector   46  Occ=0.000000D+00  E= 1.331932D-01
              MO Center=  1.0D+00,  6.4D-01, -2.5D-01, r^2= 1.6D+01
   Bfn.  Coefficient  Atom+Function         Bfn.  Coefficient  Atom+Function  
  ----- ------------  ---------------      ----- ------------  ---------------
    73      3.937257   4 C  s                27     -3.008443   2 C  s         
   144     -2.440690   8 C  px               50     -2.357628   3 C  s         
    82      2.112144   4 C  pz               81     -2.074122   4 C  py        
    80     -1.672305   4 C  px              159      1.660838   9 H  s         
    57     -1.488443   3 C  px               35      1.399512   2 C  py        
 
 Vector   47  Occ=0.000000D+00  E= 1.387805D-01
              MO Center=  4.1D-01, -4.9D-01,  2.7D-01, r^2= 2.2D+01
   Bfn.  Coefficient  Atom+Function         Bfn.  Coefficient  Atom+Function  
  ----- ------------  ---------------      ----- ------------  ---------------
    73     -6.711295   4 C  s                27      6.276659   2 C  s         
    57      4.365229   3 C  px              144      4.005118   8 C  px        
    81      3.925703   4 C  py               50      3.868584   3 C  s         
   127      3.441259   7 H  s               159     -2.790971   9 H  s         
   137     -2.599063   8 C  s                80      2.102531   4 C  px        
 
 Vector   48  Occ=0.000000D+00  E= 1.563565D-01
              MO Center=  5.4D-01,  2.6D-01, -8.3D-02, r^2= 1.9D+01
   Bfn.  Coefficient  Atom+Function         Bfn.  Coefficient  Atom+Function  
  ----- ------------  ---------------      ----- ------------  ---------------
    27     31.516644   2 C  s                57     23.650472   3 C  px        
    73    -22.877364   4 C  s                50    -17.375661   3 C  s         
   137     15.756098   8 C  s                35    -10.002478   2 C  py        
    58      8.828598   3 C  py              159     -3.781579   9 H  s         
   126     -3.511753   7 H  s                80      2.788209   4 C  px        
 
 Vector   49  Occ=0.000000D+00  E= 1.644622D-01
              MO Center=  1.4D+00,  2.6D-01,  3.6D-02, r^2= 2.0D+01
   Bfn.  Coefficient  Atom+Function         Bfn.  Coefficient  Atom+Function  
  ----- ------------  ---------------      ----- ------------  ---------------
   137     20.767720   8 C  s                58     18.778109   3 C  py        
    73    -11.781828   4 C  s                80      8.929807   4 C  px        
   159     -6.666914   9 H  s                81     -5.143581   4 C  py        
    27     -3.776084   2 C  s               127      3.576675   7 H  s         
    34      2.457881   2 C  px                4     -1.997346   1 O  s         
 
 Vector   50  Occ=0.000000D+00  E= 1.739374D-01
              MO Center= -1.3D+00,  1.0D-01, -1.8D-01, r^2= 1.8D+01
   Bfn.  Coefficient  Atom+Function         Bfn.  Coefficient  Atom+Function  
  ----- ------------  ---------------      ----- ------------  ---------------
    27     27.119017   2 C  s               137    -21.222358   8 C  s         
    57     17.392404   3 C  px               58    -16.256242   3 C  py        
    73    -14.883375   4 C  s               127      6.366825   7 H  s         
    34      5.228469   2 C  px               35      4.776735   2 C  py        
     4     -4.025295   1 O  s               144     -3.728571   8 C  px        
 
 Vector   51  Occ=0.000000D+00  E= 1.800022D-01
              MO Center=  6.7D-01,  3.2D-01,  1.0D-01, r^2= 1.9D+01
   Bfn.  Coefficient  Atom+Function         Bfn.  Coefficient  Atom+Function  
  ----- ------------  ---------------      ----- ------------  ---------------
    58     23.863143   3 C  py              137     22.314410   8 C  s         
    73    -13.311946   4 C  s                50     -9.026622   3 C  s         
    57      7.488389   3 C  px               35     -7.159790   2 C  py        
    34     -4.458427   2 C  px               27     -4.168438   2 C  s         
    81     -3.783972   4 C  py              159      3.493760   9 H  s         
 
 Vector   52  Occ=0.000000D+00  E= 1.854936D-01
              MO Center=  1.4D-01,  4.8D-01, -2.8D-01, r^2= 1.4D+01
   Bfn.  Coefficient  Atom+Function         Bfn.  Coefficient  Atom+Function  
  ----- ------------  ---------------      ----- ------------  ---------------
    59      8.341689   3 C  pz               58     -6.619199   3 C  py        
   137     -6.475279   8 C  s                73      4.879989   4 C  s         
    27      3.270297   2 C  s               146     -3.279081   8 C  pz        
    82     -2.864779   4 C  pz               36     -2.715309   2 C  pz        
    50     -1.687225   3 C  s               169      1.687201  10 F  s         
 
 Vector   53  Occ=0.000000D+00  E= 2.058604D-01
              MO Center=  1.6D-01,  1.1D+00,  2.7D-02, r^2= 8.1D+00
   Bfn.  Coefficient  Atom+Function         Bfn.  Coefficient  Atom+Function  
  ----- ------------  ---------------      ----- ------------  ---------------
    50      9.733760   3 C  s                27     -6.351977   2 C  s         
    73     -2.518087   4 C  s                 4      1.634620   1 O  s         
    34     -1.448361   2 C  px              136     -1.436512   8 C  s         
    55     -1.120897   3 C  py              142     -1.029949   8 C  py        
    32     -0.928449   2 C  py               59      0.911172   3 C  pz        
 
 Vector   54  Occ=0.000000D+00  E= 2.098889D-01
              MO Center= -4.2D-01,  1.4D+00,  8.3D-02, r^2= 1.3D+01
   Bfn.  Coefficient  Atom+Function         Bfn.  Coefficient  Atom+Function  
  ----- ------------  ---------------      ----- ------------  ---------------
    50     26.451649   3 C  s                27    -18.283842   2 C  s         
    73     -5.190982   4 C  s                34     -4.470414   2 C  px        
     4      3.666575   1 O  s                35      3.485707   2 C  py        
   137     -3.094658   8 C  s               136     -2.492962   8 C  s         
    57     -2.326812   3 C  px               12     -2.307183   1 O  py        
 
 Vector   55  Occ=0.000000D+00  E= 2.289319D-01
              MO Center= -1.1D+00,  1.2D+00, -1.3D-02, r^2= 1.8D+01
   Bfn.  Coefficient  Atom+Function         Bfn.  Coefficient  Atom+Function  
  ----- ------------  ---------------      ----- ------------  ---------------
    35     11.127973   2 C  py               73      7.020607   4 C  s         
   137      6.849021   8 C  s                58     -6.712189   3 C  py        
    34     -6.139439   2 C  px                4     -5.372971   1 O  s         
    11      4.979198   1 O  px              117      3.929737   6 H  s         
   144     -3.541139   8 C  px               96     -3.072071   5 O  s         
 
 Vector   56  Occ=0.000000D+00  E= 2.379307D-01
              MO Center=  1.8D-01, -8.9D-01,  6.9D-02, r^2= 1.9D+01
   Bfn.  Coefficient  Atom+Function         Bfn.  Coefficient  Atom+Function  
  ----- ------------  ---------------      ----- ------------  ---------------
   137     50.079983   8 C  s                73    -32.629367   4 C  s         
    58     28.477421   3 C  py               27    -23.124343   2 C  s         
   145      7.792498   8 C  py               50      7.372305   3 C  s         
    80      6.979732   4 C  px              192     -4.618084  11 F  s         
    96      4.526684   5 O  s               215     -4.505948  12 F  s         
 
 Vector   57  Occ=0.000000D+00  E= 2.434270D-01
              MO Center= -1.9D-01, -3.2D-01, -4.0D-02, r^2= 1.5D+01
   Bfn.  Coefficient  Atom+Function         Bfn.  Coefficient  Atom+Function  
  ----- ------------  ---------------      ----- ------------  ---------------
    27      9.758702   2 C  s               137     -5.500349   8 C  s         
    73     -4.859461   4 C  s                57      4.531336   3 C  px        
    58     -4.256371   3 C  py                4     -2.643336   1 O  s         
   215      1.878918  12 F  s                50      1.868883   3 C  s         
   222     -1.384259  12 F  px               35      1.335460   2 C  py        
 
 Vector   58  Occ=0.000000D+00  E= 2.628866D-01
              MO Center= -3.2D-01,  1.5D+00,  1.1D-01, r^2= 1.5D+01
   Bfn.  Coefficient  Atom+Function         Bfn.  Coefficient  Atom+Function  
  ----- ------------  ---------------      ----- ------------  ---------------
    73     46.356319   4 C  s                27    -41.792164   2 C  s         
    57    -27.249859   3 C  px               50    -17.310631   3 C  s         
     4      8.886652   1 O  s                80     -8.592079   4 C  px        
   137      7.614781   8 C  s                96     -5.922751   5 O  s         
   126      5.468099   7 H  s                81     -4.278784   4 C  py        
 
 Vector   59  Occ=0.000000D+00  E= 2.714289D-01
              MO Center= -9.0D-02,  5.7D-01,  1.9D-01, r^2= 1.3D+01
   Bfn.  Coefficient  Atom+Function         Bfn.  Coefficient  Atom+Function  
  ----- ------------  ---------------      ----- ------------  ---------------
    50     11.062483   3 C  s               137     -9.308931   8 C  s         
    73     -4.646712   4 C  s                58     -4.054854   3 C  py        
    57      2.895646   3 C  px               27      1.910069   2 C  s         
    36      1.837309   2 C  pz              126     -1.697833   7 H  s         
     4      1.599011   1 O  s                13     -1.568228   1 O  pz        
 
 Vector   60  Occ=0.000000D+00  E= 2.749084D-01
              MO Center= -6.5D-01,  1.6D+00,  1.9D-02, r^2= 1.4D+01
   Bfn.  Coefficient  Atom+Function         Bfn.  Coefficient  Atom+Function  
  ----- ------------  ---------------      ----- ------------  ---------------
    27     49.704554   2 C  s                73    -31.356132   4 C  s         
    50    -28.092766   3 C  s                57     24.382916   3 C  px        
    34     12.270295   2 C  px               35     -7.436223   2 C  py        
    80      4.694094   4 C  px               81      3.973373   4 C  py        
    96      3.834833   5 O  s               158      3.717561   9 H  s         
 
 Vector   61  Occ=0.000000D+00  E= 2.845513D-01
              MO Center=  1.7D-02,  2.2D-01, -4.2D-01, r^2= 1.4D+01
   Bfn.  Coefficient  Atom+Function         Bfn.  Coefficient  Atom+Function  
  ----- ------------  ---------------      ----- ------------  ---------------
   137     12.635869   8 C  s                50    -10.487074   3 C  s         
    58      5.751501   3 C  py               73     -4.273013   4 C  s         
     4     -3.088060   1 O  s                27      2.393400   2 C  s         
   136     -2.258322   8 C  s               169     -2.185253  10 F  s         
    69     -2.116437   3 C  d  2            142     -1.812167   8 C  py        
 
 Vector   62  Occ=0.000000D+00  E= 3.059542D-01
              MO Center=  2.3D-01,  9.3D-01,  1.3D-01, r^2= 1.4D+01
   Bfn.  Coefficient  Atom+Function         Bfn.  Coefficient  Atom+Function  
  ----- ------------  ---------------      ----- ------------  ---------------
    27     22.207734   2 C  s                58    -18.134246   3 C  py        
    50    -14.099443   3 C  s               137    -12.578632   8 C  s         
    73      7.159459   4 C  s                35      5.362125   2 C  py        
    57      3.747789   3 C  px                4     -3.706524   1 O  s         
    81      3.679698   4 C  py               34      3.122773   2 C  px        
 
 Vector   63  Occ=0.000000D+00  E= 3.110057D-01
              MO Center= -6.8D-01,  3.7D-01,  1.6D-01, r^2= 1.3D+01
   Bfn.  Coefficient  Atom+Function         Bfn.  Coefficient  Atom+Function  
  ----- ------------  ---------------      ----- ------------  ---------------
    50     20.691043   3 C  s                27    -12.254817   2 C  s         
    73     -9.391887   4 C  s                58      4.272047   3 C  py        
   136     -3.514195   8 C  s                69     -3.136644   3 C  d  2      
   142     -3.012630   8 C  py               55     -2.369798   3 C  py        
    34     -2.314297   2 C  px               32     -2.113641   2 C  py        
 
 Vector   64  Occ=0.000000D+00  E= 3.237160D-01
              MO Center=  8.7D-01,  3.5D-01,  5.2D-01, r^2= 1.3D+01
   Bfn.  Coefficient  Atom+Function         Bfn.  Coefficient  Atom+Function  
  ----- ------------  ---------------      ----- ------------  ---------------
    50     18.445154   3 C  s                27    -13.963226   2 C  s         
    55     -3.814427   3 C  py               34     -3.657722   2 C  px        
   142     -3.521900   8 C  py              136     -3.015237   8 C  s         
    57     -2.985920   3 C  px               69     -2.651009   3 C  d  2      
   137     -2.459278   8 C  s                26      2.316425   2 C  s         
 
 Vector   65  Occ=0.000000D+00  E= 3.362427D-01
              MO Center= -7.9D-01,  2.6D-01,  1.1D-01, r^2= 1.2D+01
   Bfn.  Coefficient  Atom+Function         Bfn.  Coefficient  Atom+Function  
  ----- ------------  ---------------      ----- ------------  ---------------
    50     29.252511   3 C  s                73    -14.463505   4 C  s         
    27    -12.411647   2 C  s                35      5.891259   2 C  py        
   137     -5.333192   8 C  s                80      3.556756   4 C  px        
   127      3.537504   7 H  s               126      3.013353   7 H  s         
    54      2.735913   3 C  px               72     -2.269515   4 C  s         
 
 Vector   66  Occ=0.000000D+00  E= 3.444733D-01
              MO Center= -3.7D-01,  9.7D-02,  1.2D-01, r^2= 1.3D+01
   Bfn.  Coefficient  Atom+Function         Bfn.  Coefficient  Atom+Function  
  ----- ------------  ---------------      ----- ------------  ---------------
    50      7.375069   3 C  s                27     -4.951994   2 C  s         
    73     -4.548346   4 C  s                58      3.280460   3 C  py        
    34     -2.958111   2 C  px               55     -2.805725   3 C  py        
   127     -2.079478   7 H  s               142     -2.016177   8 C  py        
   200     -1.804506  11 F  py               35     -1.794024   2 C  py        
 
 Vector   67  Occ=0.000000D+00  E= 3.454990D-01
              MO Center=  5.2D-01, -5.7D-02,  2.9D-02, r^2= 1.2D+01
   Bfn.  Coefficient  Atom+Function         Bfn.  Coefficient  Atom+Function  
  ----- ------------  ---------------      ----- ------------  ---------------
    27     23.432254   2 C  s                50    -21.078399   3 C  s         
    73    -18.199050   4 C  s                58     14.553640   3 C  py        
   137     14.460354   8 C  s                57     13.561139   3 C  px        
    35    -10.590765   2 C  py               34      4.524385   2 C  px        
    80      3.992511   4 C  px              159     -3.273149   9 H  s         
 
 Vector   68  Occ=0.000000D+00  E= 3.519171D-01
              MO Center=  2.6D-01, -3.6D-01, -3.5D-01, r^2= 1.2D+01
   Bfn.  Coefficient  Atom+Function         Bfn.  Coefficient  Atom+Function  
  ----- ------------  ---------------      ----- ------------  ---------------
    73     14.185590   4 C  s                58     -9.536836   3 C  py        
    50     -8.632056   3 C  s                57     -6.247657   3 C  px        
   137     -4.802656   8 C  s                80     -3.730204   4 C  px        
    35      3.480776   2 C  py              142      3.334299   8 C  py        
    72     -3.148615   4 C  s                27     -3.081871   2 C  s         
 
 Vector   69  Occ=0.000000D+00  E= 3.615885D-01
              MO Center=  1.8D-01, -4.5D-01, -2.2D-01, r^2= 1.6D+01
   Bfn.  Coefficient  Atom+Function         Bfn.  Coefficient  Atom+Function  
  ----- ------------  ---------------      ----- ------------  ---------------
    58      6.471288   3 C  py               73     -6.272704   4 C  s         
   137      5.161304   8 C  s               146      3.986876   8 C  pz        
    35     -3.910576   2 C  py               57      3.549584   3 C  px        
    34     -3.284183   2 C  px               26     -2.995003   2 C  s         
    80     -2.731895   4 C  px               59     -2.653524   3 C  pz        
 
 Vector   70  Occ=0.000000D+00  E= 3.665412D-01
              MO Center=  3.9D-01,  3.3D-01, -2.2D-01, r^2= 1.3D+01
   Bfn.  Coefficient  Atom+Function         Bfn.  Coefficient  Atom+Function  
  ----- ------------  ---------------      ----- ------------  ---------------
    27     15.718703   2 C  s                58    -13.053897   3 C  py        
    73    -10.873359   4 C  s               137     -8.839148   8 C  s         
    57      8.190404   3 C  px               81      6.875730   4 C  py        
    96      3.601036   5 O  s                26     -3.397872   2 C  s         
    72      3.303709   4 C  s               104     -3.218218   5 O  py        
 
 Vector   71  Occ=0.000000D+00  E= 3.681933D-01
              MO Center=  5.1D-01,  3.1D-01,  8.2D-02, r^2= 1.5D+01
   Bfn.  Coefficient  Atom+Function         Bfn.  Coefficient  Atom+Function  
  ----- ------------  ---------------      ----- ------------  ---------------
    26      4.554431   2 C  s                80      4.231134   4 C  px        
    27      3.875097   2 C  s                58     -3.765946   3 C  py        
    50     -3.212042   3 C  s                34      3.186227   2 C  px        
   159     -2.851020   9 H  s                54      2.641187   3 C  px        
   103     -2.583967   5 O  px               65      2.433200   3 C  d -2      
 
 Vector   72  Occ=0.000000D+00  E= 3.818724D-01
              MO Center=  3.3D-01, -9.3D-01,  1.2D-01, r^2= 1.4D+01
   Bfn.  Coefficient  Atom+Function         Bfn.  Coefficient  Atom+Function  
  ----- ------------  ---------------      ----- ------------  ---------------
   144      5.302735   8 C  px              222     -2.816226  12 F  px        
   199     -2.570650  11 F  px               81      2.504689   4 C  py        
    50     -2.078236   3 C  s                 4      1.997690   1 O  s         
   215      1.838961  12 F  s               158      1.794946   9 H  s         
    49     -1.732534   3 C  s               136     -1.710966   8 C  s         
 
 Vector   73  Occ=0.000000D+00  E= 3.894294D-01
              MO Center= -3.9D-01, -5.8D-01,  8.8D-02, r^2= 1.2D+01
   Bfn.  Coefficient  Atom+Function         Bfn.  Coefficient  Atom+Function  
  ----- ------------  ---------------      ----- ------------  ---------------
    27     11.022322   2 C  s                57      5.264758   3 C  px        
    50     -4.309337   3 C  s                73     -2.772539   4 C  s         
   136      2.649388   8 C  s               178     -2.652714  10 F  pz        
   169     -2.537181  10 F  s                59      2.382190   3 C  pz        
     4     -2.369376   1 O  s                49      2.103083   3 C  s         
 
 Vector   74  Occ=0.000000D+00  E= 3.971800D-01
              MO Center=  5.1D-02, -3.3D-02,  2.4D-01, r^2= 1.3D+01
   Bfn.  Coefficient  Atom+Function         Bfn.  Coefficient  Atom+Function  
  ----- ------------  ---------------      ----- ------------  ---------------
    50      8.424167   3 C  s                73     -7.986622   4 C  s         
    57      7.731066   3 C  px                4      5.207819   1 O  s         
   144     -4.762138   8 C  px              158      3.396905   9 H  s         
    49     -3.328883   3 C  s               137     -3.210583   8 C  s         
    34     -2.609450   2 C  px              117     -2.509985   6 H  s         
 
 Vector   75  Occ=0.000000D+00  E= 4.050841D-01
              MO Center=  6.4D-03, -6.3D-01, -2.7D-01, r^2= 1.3D+01
   Bfn.  Coefficient  Atom+Function         Bfn.  Coefficient  Atom+Function  
  ----- ------------  ---------------      ----- ------------  ---------------
    73     16.418049   4 C  s                57    -12.364619   3 C  px        
    27    -10.593653   2 C  s                54     -4.425798   3 C  px        
   126     -4.362012   7 H  s                31     -4.160436   2 C  px        
    58     -3.918617   3 C  py              137     -3.819828   8 C  s         
   158      3.444262   9 H  s                26     -3.053445   2 C  s         
 
 Vector   76  Occ=0.000000D+00  E= 4.197206D-01
              MO Center= -2.0D-01,  6.2D-01, -2.6D-01, r^2= 1.5D+01
   Bfn.  Coefficient  Atom+Function         Bfn.  Coefficient  Atom+Function  
  ----- ------------  ---------------      ----- ------------  ---------------
    50     24.364416   3 C  s               137    -21.421050   8 C  s         
    58    -12.964768   3 C  py               27     -8.255231   2 C  s         
    73      6.853847   4 C  s                57     -5.116486   3 C  px        
    35      4.840370   2 C  py               11     -4.052695   1 O  px        
   127      3.370737   7 H  s                96     -2.976005   5 O  s         
 
 Vector   77  Occ=0.000000D+00  E= 4.221360D-01
              MO Center= -1.3D-01,  5.2D-01,  1.7D-01, r^2= 1.3D+01
   Bfn.  Coefficient  Atom+Function         Bfn.  Coefficient  Atom+Function  
  ----- ------------  ---------------      ----- ------------  ---------------
    27     14.122862   2 C  s                57     10.331496   3 C  px        
    73    -10.092905   4 C  s                 4     -6.330875   1 O  s         
    49      4.264333   3 C  s                50     -4.233535   3 C  s         
   137      3.893181   8 C  s                11      3.252746   1 O  px        
   117      3.257809   6 H  s                54     -3.051152   3 C  px        
 
 Vector   78  Occ=0.000000D+00  E= 4.299551D-01
              MO Center=  1.6D-01,  2.4D-01,  9.5D-03, r^2= 1.1D+01
   Bfn.  Coefficient  Atom+Function         Bfn.  Coefficient  Atom+Function  
  ----- ------------  ---------------      ----- ------------  ---------------
    50     13.827671   3 C  s                27     -6.865835   2 C  s         
    57     -4.138001   3 C  px               73     -3.052013   4 C  s         
    55     -2.982876   3 C  py              142     -2.982936   8 C  py        
     4     -2.878553   1 O  s               215     -2.665266  12 F  s         
    72      2.586033   4 C  s               158      2.398451   9 H  s         
 
 Vector   79  Occ=0.000000D+00  E= 4.486511D-01
              MO Center= -2.1D-01,  1.4D-01, -2.7D-02, r^2= 1.1D+01
   Bfn.  Coefficient  Atom+Function         Bfn.  Coefficient  Atom+Function  
  ----- ------------  ---------------      ----- ------------  ---------------
    27     10.444776   2 C  s                73     -9.260502   4 C  s         
     4     -8.486211   1 O  s               137      7.931578   8 C  s         
    57      7.708592   3 C  px               50      5.722599   3 C  s         
    49      4.931094   3 C  s               117      3.884247   6 H  s         
    80      3.302763   4 C  px               35      3.120118   2 C  py        
 
 Vector   80  Occ=0.000000D+00  E= 4.580830D-01
              MO Center= -6.6D-01, -2.9D-01,  1.7D-01, r^2= 1.2D+01
   Bfn.  Coefficient  Atom+Function         Bfn.  Coefficient  Atom+Function  
  ----- ------------  ---------------      ----- ------------  ---------------
   137     41.801009   8 C  s                58     28.765823   3 C  py        
    27    -24.906654   2 C  s                 4      8.363746   1 O  s         
    73     -7.459899   4 C  s                50     -6.311681   3 C  s         
    35     -5.799506   2 C  py              192     -4.638153  11 F  s         
    81     -4.610670   4 C  py               57     -4.142948   3 C  px        
 
 Vector   81  Occ=0.000000D+00  E= 4.685148D-01
              MO Center= -7.7D-01,  7.0D-01,  1.3D-02, r^2= 1.1D+01
   Bfn.  Coefficient  Atom+Function         Bfn.  Coefficient  Atom+Function  
  ----- ------------  ---------------      ----- ------------  ---------------
   137      5.549289   8 C  s                50     -4.522873   3 C  s         
   126     -3.417734   7 H  s                 4     -3.043000   1 O  s         
    57     -2.643298   3 C  px               59     -2.516527   3 C  pz        
    27      2.489866   2 C  s               158     -2.458816   9 H  s         
   169     -2.374787  10 F  s               136      2.271969   8 C  s         
 
 Vector   82  Occ=0.000000D+00  E= 4.776537D-01
              MO Center=  4.8D-01, -1.4D-01, -1.6D-01, r^2= 1.1D+01
   Bfn.  Coefficient  Atom+Function         Bfn.  Coefficient  Atom+Function  
  ----- ------------  ---------------      ----- ------------  ---------------
   137    -17.810600   8 C  s                50     16.267511   3 C  s         
    58     -9.710758   3 C  py               27      6.621384   2 C  s         
   215      4.797479  12 F  s                73     -3.779199   4 C  s         
    57      3.324876   3 C  px              169     -3.295125  10 F  s         
    11      2.988058   1 O  px              222     -2.209406  12 F  px        
 
 Vector   83  Occ=0.000000D+00  E= 4.878012D-01
              MO Center=  6.5D-02,  3.2D-01, -2.6D-01, r^2= 9.7D+00
   Bfn.  Coefficient  Atom+Function         Bfn.  Coefficient  Atom+Function  
  ----- ------------  ---------------      ----- ------------  ---------------
    73     19.916524   4 C  s               137    -13.523871   8 C  s         
    58     -7.552844   3 C  py               72     -7.564097   4 C  s         
    96     -6.915008   5 O  s                57     -5.794675   3 C  px        
   136      4.973195   8 C  s                35      4.663438   2 C  py        
    54      4.530284   3 C  px               78      4.460735   4 C  py        
 
 Vector   84  Occ=0.000000D+00  E= 5.007988D-01
              MO Center=  1.1D-01,  5.7D-01,  4.4D-02, r^2= 1.3D+01
   Bfn.  Coefficient  Atom+Function         Bfn.  Coefficient  Atom+Function  
  ----- ------------  ---------------      ----- ------------  ---------------
    27     42.026031   2 C  s                73    -35.145919   4 C  s         
    57     20.424345   3 C  px                4    -12.643295   1 O  s         
    96     11.237539   5 O  s                26    -10.709034   2 C  s         
    54     -8.802772   3 C  px               50     -8.431819   3 C  s         
    31     -6.568086   2 C  px               34      6.586978   2 C  px        
 

 center of mass
 --------------
 x =   0.02778010 y =  -0.11231893 z =   0.00000000

 moments of inertia (a.u.)
 ------------------
        1462.297173075809          -0.000000000000          -0.000000000000
          -0.000000000000         672.737769874924           0.000000000001
          -0.000000000000           0.000000000001        1831.300326504147
 
  Mulliken analysis of the total density
  --------------------------------------

    Atom       Charge   Shell Charges
 -----------   ------   -------------------------------------------------------
    1 O    8     8.78   2.00  0.83  1.00  0.24  2.81  1.73  0.12  0.02  0.02
    2 C    6     4.89   2.01  0.68  0.79 -0.49  1.89 -0.01  0.04  0.15 -0.16
    3 C    6     6.35   2.01  0.64  0.34 -0.02  2.13  0.20  0.59  0.08  0.38
    4 C    6     5.18   2.01  0.69  0.81 -0.38  1.88  0.07  0.05  0.17 -0.12
    5 O    8     8.80   2.00  0.84  1.06  0.20  2.75  1.80  0.10  0.02  0.03
    6 H    1     0.71   0.69 -0.04 -0.00  0.07 -0.01
    7 H    1     1.47   0.78  0.68  0.01  0.03 -0.02
    8 C    6     3.67   2.01  0.68 -0.41 -0.21  1.80 -0.35 -0.03  0.36 -0.17
    9 H    1     1.27   0.77  0.48 -0.01  0.03 -0.01
   10 F    9     9.59   2.00  0.89  1.09  0.15  3.34  2.04  0.07  0.01  0.01
   11 F    9     9.64   2.00  0.88  1.09  0.16  3.34  2.05  0.09  0.01  0.01
   12 F    9     9.63   2.00  0.88  1.09  0.16  3.34  2.05  0.09  0.01  0.01
 
       Multipole analysis of the density wrt the origin
       ------------------------------------------------
 
     L   x y z        total         open         nuclear
     -   - - -        -----         ----         -------
     0   0 0 0     -0.000000      0.000000     70.000000
 
     1   1 0 0     -1.610537      0.000000      0.000000
     1   0 1 0     -0.332327      0.000000      0.000000
     1   0 0 1     -0.000402      0.000000     -0.000000
 
     2   2 0 0    -29.813693      0.000000    281.534336
     2   1 1 0     -8.568626      0.000000    -10.222009
     2   1 0 1      0.018013      0.000000      0.000000
     2   0 2 0    -44.108011      0.000000    652.957901
     2   0 1 1     -0.043912      0.000000     -0.000000
     2   0 0 2    -37.686707      0.000000     71.943204
 
                   NWChem MP2 Semi-direct Energy/Gradient Module
                   ---------------------------------------------
 
 
                                   H,MeF,H Open
 
 

int_init: setting std/high accuracies to  1.0D-16  1.0D-32
  Basis functions       =    234
  Molecular orbitals    =    234
  Frozen core           =      9
  Frozen virtuals       =      0
  Active alpha occupied =     26
  Active beta occupied  =     26
  Active alpha virtual  =    199
  Active beta virtual   =    199
  Use MO symmetry       = F
  Use skeleton AO sym   = F

  AO/Fock/Back tols     =   1.0D-15  1.0D-15  1.0D-15

 GA uses MA = F    GA memory limited = T

 Available: 
  local mem=  3.77D+08
 global mem=  1.23D+08
 local disk=  0.00D+00

int_init: setting std/high accuracies to  1.0D-16  1.0D-32
  mp2_memr nvloc                     19
  nvloc new                     19
   1 passes of  26:        5242880                     532746                  58576793.
   1 passes of  26: M    376601879           G      122945855           F     371358999.
 
 Semi-direct pass number   1 of   1  for RHF alpha+beta  at      178.9s

int_init: setting std/high accuracies to  1.0D-16  1.0D-32
  vrange nnbf                  26941
  mp2_eaftype                    172  avail_ma_in_mb                   3283
 EAF : mp2_eaftype filesize         172   22671797.
  mp2_eaf for mointskh                     172
Node 0 wrote    106.5 Mb in      0.2 s     Agg I/O rate:  4792.0 Mb/s
 Done moints_semi at      196.5s
  mp2_eaftype                    172  avail_ma_in_mb                   3111
 EAF : mp2_eaftype filesize         172   22671797.
  mp2_eaf for kh                    172
  mp2_eaftype                     39  avail_ma_in_mb                   3111
 EAF : mp2_eaftype filesize          39    5111912.
  mp2_eaf for ta tb                     39
  mp2_eaf for ta                      39
  mp2_eaf for tb                      39
 Done maket at      197.9s
 Done pijab at      198.2s
 Done wijab at      198.5s
 Done lai at      204.9s

int_init: setting std/high accuracies to  1.0D-16  1.0D-32
  mp2_eaftype                    195  avail_ma_in_mb                   3031
 EAF : mp2_eaftype filesize         195   25681172.
  mp2_eaf for 2pdm                     195
 Done nonsep at      272.7s
 Done multipass loop at      272.7s


          -------------------------------------------
          SCF energy                -601.300967938243
          Correlation energy          -1.527494942323
          Singlet pairs               -0.899621767451
          Triplet pairs               -0.627873174872
          Total MP2 energy          -602.828462880566
          -------------------------------------------



          ---------------------------------------------------
                    Spin Component Scaled (SCS) MP2
          Same spin pairs                     -0.418582116581
          Same spin scaling factor             0.333333333333
          Opposite spin pairs                 -1.108912825742
          Opposite spin scaling fact.          1.200000000000
          SCS-MP2 correlation energy          -1.470222763084
          Total SCS-MP2 energy              -602.771190701327
          ---------------------------------------------------


int_init: setting std/high accuracies to  1.0D-16  1.0D-32
                                NWChem CPHF Module
                                ------------------
 
 

int_init: setting std/high accuracies to  1.0D-16  1.0D-32
    scftype = RHF 
    nclosed =   35
      nopen =    0
  variables =     6965
  tolerance =   1.0D-06
  max. iter =  999

 SCF residual:   8.136862067932496E-011

            ----- linear solve (tol: 1.0E-06 prod-acc: 3.0E-14) -----

               iter nbas    rnorm     rnorm-scal   ratio     time
               ---- ---- ----------- ----------- --------- -------
                  1    1  1.0526E-01  4.2159E-01    0.0000   289.8
                  2    2  2.4621E-02  9.8610E-02    0.2339   295.6
                  3    3  1.1076E-02  4.4358E-02    0.4498   301.5
                  4    4  3.2746E-03  1.3115E-02    0.2957   307.2
                  5    5  1.3345E-03  5.3449E-03    0.4075   313.0
                  6    6  4.8275E-04  1.9335E-03    0.3617   318.7
                  7    7  2.1715E-04  8.6969E-04    0.4498   324.4
                  8    8  8.0042E-05  3.2057E-04    0.3686   329.9
                  9    9  2.7039E-05  1.0830E-04    0.3378   335.4
                 10   10  8.8547E-06  3.5464E-05    0.3275   340.9
                 11   11  2.7769E-06  1.1122E-05    0.3136   346.1
                 12   12  8.7375E-07  3.4994E-06    0.3146   351.4
                 13   13  2.9986E-07  1.2010E-06    0.3432   356.2
                 14   14  1.1443E-07  4.5832E-07    0.3816   361.1

 CPHF converged to   4.6D-07 in   14 iters


int_init: setting std/high accuracies to  1.0D-16  1.0D-32
                Dipole Moments (a.u.)
                --------------
         Nuclear       SCF       SCF+MP2
       ----------- ----------- -----------
 X       0.000000   -1.610537   -1.453426
 Y       0.000000   -0.332327   -0.155544
 Z      -0.000000   -0.000402    0.001771
 

 MP2 RHF      natural orbital occupation numbers


              1      
    1    2.0000
    2    2.0000
    3    2.0000
    4    2.0000
    5    2.0000
    6    2.0000
    7    2.0000
    8    2.0000
    9    2.0000
   10    1.9904
   11    1.9892
   12    1.9892
   13    1.9867
   14    1.9852
   15    1.9814
   16    1.9761
   17    1.9758
   18    1.9755
   19    1.9750
   20    1.9736
   21    1.9731
   22    1.9724
   23    1.9713
   24    1.9701
   25    1.9648
   26    1.9646
   27    1.9635
   28    1.9624
   29    1.9623
   30    1.9608
   31    1.9585
   32    1.9555
   33    1.9547
   34    1.9408
   35    1.9260
   36    0.0649
   37    0.0449
   38    0.0348
[...]
           9     0.15304     0.00190     0.00052    -0.07819    -0.05883     0.00696
          10     0.00222    -0.01150     0.18644     0.00424     0.01710     0.06597
          11     0.00039     0.02308    -0.02680     0.00074     0.00296     0.00854
          12     0.02216     0.00075    -0.01825     0.04226     0.17036    -0.00677
          13    -0.00126     0.02599    -0.04337    -0.00127    -0.00416     0.01579
          14    -0.00022     0.02497    -0.00272    -0.00022    -0.00072     0.03179
          15    -0.01258    -0.00304     0.00440    -0.01270    -0.04148    -0.00214
          16     0.01396    -0.03169     0.07865     0.00206    -0.00122    -0.03324
          17     0.00242    -0.01654     0.26906     0.00036    -0.00021     0.00731
          18     0.13907     0.00347    -0.01258     0.02055    -0.01215     0.00321
          19    -0.01509    -0.00928    -0.16275    -0.07558     0.02770    -0.12254
          20    -0.00262     0.04241    -0.00698    -0.01311     0.00480     0.10193
          21    -0.15033     0.00019     0.01645    -0.75309     0.27603     0.01052
          22    -0.00699     0.00333    -0.01043    -0.00151     0.00014    -0.00843
          23    -0.00121    -0.09786     0.03501    -0.00026     0.00003    -0.12455
          24    -0.06969     0.00137     0.00044    -0.01501     0.00142     0.00302
          25    -0.01738    -0.00388     0.23353    -0.01702    -0.06938     0.15757
          26    -0.00301     0.03187     0.03077    -0.00295    -0.01203     0.11758
          27    -0.17314    -0.00017    -0.02397    -0.16953    -0.69125    -0.01786
          28     0.07251     0.04757     0.01128    -0.00637    -0.00107    -0.01916
          29    -0.05478     0.00473    -0.01695     0.00942     0.00370     0.03417
          30    -0.06271    -0.10908    -0.02635     0.01142     0.00175     0.04008
          31     0.00736    -0.11461    -0.01493    -0.00001     0.00000     0.05417
          32     0.00128     0.00696    -0.00763    -0.00000     0.00000     0.04428
          33     0.07335     0.01138     0.00163    -0.00013     0.00005    -0.00621
          34    -0.08372     0.06828     0.01635     0.00854     0.00141    -0.02686
          35     0.05284     0.00832    -0.01607    -0.00904    -0.00364     0.03284
          36    -0.04890     0.09722     0.02415     0.01024     0.00163    -0.03663

                   25          26          27          28          29          30
 
 P.Frequency     1117.28     1134.87     1256.51     1285.65     1372.80     1407.90
 
           1    -0.00008    -0.00490    -0.02372    -0.04027    -0.02693    -0.03498
           2    -0.00002     0.04371     0.06153    -0.12804     0.00160     0.00927
           3    -0.00080    -0.00027     0.00131     0.00627     0.00268     0.00335
           4    -0.00073    -0.03227     0.00376     0.02585     0.03388     0.01077
           5    -0.00012    -0.04043    -0.08647     0.14414     0.00540    -0.06605
           6    -0.00737     0.00394     0.00113    -0.00510    -0.00349     0.00007
           7     0.00287     0.04311     0.08056    -0.00052    -0.03636     0.12572
           8     0.00049     0.01693     0.02266     0.00702    -0.14156    -0.04351
           9     0.02868    -0.00462    -0.00848    -0.00007     0.00611    -0.01186
          10    -0.00013    -0.01821    -0.04917    -0.00118    -0.02874    -0.01457
          11    -0.00002    -0.00276     0.00470    -0.01148     0.00612     0.00737
          12    -0.00130     0.00188     0.00485     0.00032     0.00278     0.00133
          13    -0.00004    -0.00527     0.00144     0.00135     0.02188    -0.00608
          14    -0.00000    -0.01732    -0.00685     0.00539    -0.01513     0.01145
          15    -0.00038     0.00083    -0.00003    -0.00023    -0.00193     0.00041
          16    -0.00147     0.01489     0.10611     0.14537     0.05214     0.02238
          17    -0.00027     0.12968     0.56383     0.51609     0.29614     0.21467
          18    -0.01457    -0.00375    -0.02046    -0.02357    -0.01039    -0.00598
          19     0.00628    -0.00047     0.22211     0.01485     0.07353    -0.37735
          20     0.00110    -0.09443    -0.45593     0.17392    -0.05729     0.58028
          21     0.06260     0.00170    -0.01436    -0.00452    -0.00638     0.02777
          22    -0.02526     0.23423    -0.08253     0.02406     0.02154    -0.01996
          23    -0.00437    -0.02737    -0.04726    -0.09253     0.17516     0.05529
          24    -0.25132    -0.02307     0.00911    -0.00081    -0.00521     0.00104
          25     0.00039    -0.01048    -0.08883     0.05262     0.24518    -0.23366
          26     0.00007    -0.00267    -0.03995     0.05233     0.36221    -0.27078
          27     0.00382     0.00110     0.00961    -0.00619    -0.03091     0.02816
          28    -0.02192    -0.02852     0.00671    -0.00663     0.00356     0.00273
          29     0.02804     0.02008     0.00268     0.01237    -0.01567    -0.00267
          30     0.06599     0.03214    -0.00207     0.01089    -0.01123    -0.00285
          31     0.00173    -0.07202     0.02230     0.00636    -0.01865    -0.00458
          32     0.00030    -0.02921     0.01213     0.00972    -0.01804    -0.01036
          33     0.01710     0.00774    -0.00245    -0.00081     0.00219     0.00064
          34     0.03470    -0.03440     0.00698    -0.00871     0.00578     0.00325
          35    -0.02583     0.01906     0.00272     0.01201    -0.01529    -0.00258
          36     0.06125    -0.02649     0.00060    -0.00977     0.01084     0.00234

                   31          32          33          34          35          36
 
 P.Frequency     1443.76     1679.35     1751.92     3001.09     3223.47     3808.67
 
           1     0.00567     0.01339    -0.01824     0.00003    -0.00172     0.05774
           2     0.00660    -0.00180     0.01682     0.00026    -0.00098    -0.01817
           3    -0.00068    -0.00131     0.00154    -0.00001     0.00019    -0.00548
           4    -0.03137    -0.08414     0.12480     0.00037     0.07419     0.00293
           5    -0.02883     0.05277    -0.11554    -0.00083     0.03867     0.00171
           6     0.00365     0.00753    -0.01051    -0.00002    -0.00812    -0.00032
           7     0.08395     0.09383    -0.12450     0.00112    -0.00471    -0.00147
           8     0.07937    -0.02914     0.09415     0.00134     0.00304     0.00079
           9    -0.00981    -0.00891     0.01086    -0.00014     0.00042     0.00013
          10    -0.07936    -0.05911    -0.00852    -0.06491    -0.00027     0.00063
          11     0.01754    -0.18610    -0.11461     0.04766    -0.00047     0.00063
          12     0.00766     0.00917     0.00285     0.00568     0.00004    -0.00007
          13     0.01567     0.02215     0.00869     0.00070    -0.00004     0.00000
          14    -0.07575     0.12539     0.07082     0.00023     0.00017    -0.00038
          15    -0.00025    -0.00441    -0.00210    -0.00007     0.00000     0.00001
          16    -0.02395    -0.02420     0.02391    -0.00126     0.01485    -0.92676
          17    -0.10138    -0.11315     0.15505    -0.00018     0.00228     0.25790
          18     0.00417     0.00440    -0.00510     0.00013    -0.00153     0.08853
          19    -0.18199    -0.00297    -0.04569    -0.00020    -0.81490    -0.01337
          20     0.21812    -0.11104     0.22277     0.00149    -0.48499    -0.00020
          21     0.01447     0.00223     0.00071    -0.00001     0.09023     0.00135
          22    -0.03283    -0.00721     0.01393    -0.00216     0.00096     0.00003
          23    -0.04935     0.01579    -0.01373     0.00110     0.00000    -0.00055
          24     0.00415     0.00045    -0.00116     0.00020    -0.00010     0.00001
          25     0.36504     0.10713     0.13708     0.75350     0.00130    -0.00088
          26     0.60330     0.03946     0.08153    -0.58519     0.00043     0.00046
          27    -0.04714    -0.01144    -0.01518    -0.06544    -0.00014     0.00008
          28     0.00215     0.00086    -0.00022     0.00039    -0.00001    -0.00003
          29     0.00301     0.00046    -0.00249    -0.00015    -0.00009     0.00010
          30     0.00084    -0.00031    -0.00102    -0.00022    -0.00003     0.00004
          31     0.00717    -0.00015    -0.00144     0.00010    -0.00044     0.00003
          32     0.00220    -0.00252     0.00136    -0.00028     0.00039     0.00008
          33    -0.00076     0.00006     0.00012    -0.00001     0.00004    -0.00000
          34     0.00193     0.00090    -0.00001     0.00042    -0.00001    -0.00004
          35     0.00297     0.00046    -0.00245    -0.00014    -0.00009     0.00010
          36    -0.00135     0.00012     0.00113     0.00014     0.00004    -0.00004



 ----------------------------------------------------------------------------
 Normal Eigenvalue ||    Projected Derivative Dipole Moments (debye/angs)
  Mode   [cm**-1]  ||      [d/dqX]             [d/dqY]           [d/dqZ]
 ------ ---------- || ------------------ ------------------ -----------------
    1       -0.000 ||       0.022               0.030             0.200
    2       -0.000 ||       0.012               0.122             0.004
    3       -0.000 ||      -0.007              -0.058            -0.012
    4        0.000 ||      -0.000              -0.077             0.069
    5        0.000 ||       0.013               0.014             0.119
    6        0.000 ||      -0.006               0.031            -0.095
    7       45.296 ||      -0.027              -0.005            -0.271
    8      118.464 ||      -0.041              -0.007            -0.411
    9      170.751 ||      -0.012              -0.002            -0.119
   10      183.249 ||       0.339               0.087            -0.035
   11      210.790 ||       0.068              -0.258            -0.002
   12      318.488 ||      -0.120              -0.021            -1.196
   13      384.330 ||       0.331              -0.007            -0.033
   14      391.926 ||      -0.223               0.248             0.018
   15      429.712 ||      -0.056              -0.010            -0.555
   16      451.184 ||      -0.556               0.361             0.049
   17      525.623 ||      -0.110              -0.019            -1.100
   18      557.293 ||      -0.263               0.024             0.026
   19      591.065 ||       0.001               0.000             0.012
   20      711.216 ||       0.056              -0.615             0.005
   21      887.404 ||       0.787               1.073            -0.098
   22      930.193 ||      -0.055              -0.010            -0.546
   23      999.867 ||       0.015               0.003             0.150
   24     1015.736 ||       0.875              -1.771            -0.057
   25     1117.284 ||      -0.251              -0.043            -2.499
   26     1134.868 ||       2.135              -0.641            -0.204
   27     1256.510 ||      -0.560              -0.716             0.069
   28     1285.651 ||      -0.862               1.218             0.065
   29     1372.801 ||       0.077               2.577            -0.053
   30     1407.897 ||      -0.611               0.722             0.049
   31     1443.760 ||      -0.723              -0.601             0.083
   32     1679.346 ||      -2.027              -0.618             0.214
   33     1751.918 ||       1.328              -1.744            -0.103
   34     3001.094 ||      -1.026               0.819             0.089
   35     3223.465 ||       0.031               0.154            -0.006
   36     3808.673 ||      -1.636               1.052             0.146
 ----------------------------------------------------------------------------



  
  
 ----------------------------------------------------------------------------
 Normal Eigenvalue ||           Projected Infra Red Intensities
  Mode   [cm**-1]  || [atomic units] [(debye/angs)**2] [(KM/mol)] [arbitrary]
 ------ ---------- || -------------- ----------------- ---------- -----------
    1       -0.000 ||    0.001786           0.041         1.741       0.307
    2       -0.000 ||    0.000654           0.015         0.638       0.112
    3       -0.000 ||    0.000156           0.004         0.152       0.027
    4        0.000 ||    0.000464           0.011         0.453       0.080
    5        0.000 ||    0.000626           0.014         0.611       0.108
    6        0.000 ||    0.000435           0.010         0.424       0.075
    7       45.296 ||    0.003206           0.074         3.126       0.550
    8      118.464 ||    0.007402           0.171         7.216       1.270
    9      170.751 ||    0.000617           0.014         0.602       0.106
   10      183.249 ||    0.005351           0.123         5.217       0.918
   11      210.790 ||    0.003091           0.071         3.013       0.530
   12      318.488 ||    0.062691           1.446        61.114      10.760
   13      384.330 ||    0.004804           0.111         4.683       0.825
   14      391.926 ||    0.004829           0.111         4.708       0.829
   15      429.712 ||    0.013479           0.311        13.140       2.313
   16      451.184 ||    0.019139           0.442        18.658       3.285
   17      525.623 ||    0.053025           1.223        51.691       9.101
   18      557.293 ||    0.003042           0.070         2.965       0.522
   19      591.065 ||    0.000006           0.000         0.006       0.001
   20      711.216 ||    0.016521           0.381        16.105       2.835
   21      887.404 ||    0.077155           1.780        75.214      13.242
   22      930.193 ||    0.013060           0.301        12.732       2.242
   23      999.867 ||    0.000984           0.023         0.959       0.169
   24     1015.736 ||    0.169294           3.906       165.037      29.056
   25     1117.284 ||    0.273438           6.308       266.561      46.930
   26     1134.868 ||    0.217252           5.012       211.788      37.287
   27     1256.510 ||    0.036048           0.832        35.141       6.187
   28     1285.651 ||    0.096698           2.231        94.266      16.596
   29     1372.801 ||    0.288178           6.649       280.930      49.460
   30     1407.897 ||    0.038893           0.897        37.914       6.675
   31     1443.760 ||    0.038628           0.891        37.657       6.630
   32     1679.346 ||    0.196748           4.539       191.799      33.768
   33     1751.918 ||    0.208794           4.817       203.543      35.835
   34     3001.094 ||    0.075035           1.731        73.148      12.878
   35     3223.465 ||    0.001074           0.025         1.047       0.184
   36     3808.673 ||    0.164932           3.805       160.784      28.307
 ----------------------------------------------------------------------------



 vib:animation  F

 Task  times  cpu:    22184.5s     wall:    22299.7s
 
 
                                NWChem Input Module
                                -------------------
 
 
 Summary of allocated global arrays
-----------------------------------
  No active global arrays



                         GA Statistics for process    0
                         ------------------------------

       create   destroy   get      put      acc     scatter   gather  read&inc
calls: 9.30e+04 9.30e+04 3.05e+07 3.26e+06 1.18e+07    0        0     1.31e+05 
number of processes/call -2.88e+10 -2.81e+12 5.05e+11 0.00e+00 0.00e+00
bytes total:             2.87e+10 5.74e+10 8.71e+09 0.00e+00 0.00e+00 1.05e+06
bytes remote:            1.29e+10 3.95e+10 5.82e+09 0.00e+00 0.00e+00 0.00e+00
Max memory consumed for GA by this process: 422668280 bytes
 
MA_summarize_allocated_blocks: starting scan ...
MA_summarize_allocated_blocks: scan completed: 0 heap blocks, 0 stack blocks
MA usage statistics:

	allocation statistics:
					      heap	     stack
					      ----	     -----
	current number of blocks	         0	         0
	maximum number of blocks	        22	        39
	current total bytes		         0	         0
	maximum total bytes		 289461840	  27400808
	maximum total K-bytes		    289462	     27401
	maximum total M-bytes		       290	        28
 
 
                                     CITATION
                                     --------
                Please cite the following reference when publishing
                           results obtained with NWChem:
 
          E. Apr, E. J. Bylaska, W. A. de Jong, N. Govind, K. Kowalski,
       T. P. Straatsma, M. Valiev, H. J. J. van Dam, Y. Alexeev, J. Anchell,
       V. Anisimov, F. W. Aquino, R. Atta-Fynn, J. Autschbach, N. P. Bauman,
     J. C. Becca, D. E. Bernholdt, K. Bhaskaran-Nair, S. Bogatko, P. Borowski,
        J. Boschen, J. Brabec, A. Bruner, E. Caut, Y. Chen, G. N. Chuev,
      C. J. Cramer, J. Daily, M. J. O. Deegan, T. H. Dunning Jr., M. Dupuis,
   K. G. Dyall, G. I. Fann, S. A. Fischer, A. Fonari, H. Frchtl, L. Gagliardi,
      J. Garza, N. Gawande, S. Ghosh, K. Glaesemann, A. W. Gtz, J. Hammond,
       V. Helms, E. D. Hermes, K. Hirao, S. Hirata, M. Jacquelin, L. Jensen,
   B. G. Johnson, H. Jnsson, R. A. Kendall, M. Klemm, R. Kobayashi, V. Konkov,
      S. Krishnamoorthy, M. Krishnan, Z. Lin, R. D. Lins, R. J. Littlefield,
      A. J. Logsdail, K. Lopata, W. Ma, A. V. Marenich, J. Martin del Campo,
   D. Mejia-Rodriguez, J. E. Moore, J. M. Mullin, T. Nakajima, D. R. Nascimento,
    J. A. Nichols, P. J. Nichols, J. Nieplocha, A. Otero-de-la-Roza, B. Palmer,
    A. Panyala, T. Pirojsirikul, B. Peng, R. Peverati, J. Pittner, L. Pollack,
   R. M. Richard, P. Sadayappan, G. C. Schatz, W. A. Shelton, D. W. Silverstein,
   D. M. A. Smith, T. A. Soares, D. Song, M. Swart, H. L. Taylor, G. S. Thomas,
            V. Tipparaju, D. G. Truhlar, K. Tsemekhman, T. Van Voorhis,
     . Vzquez-Mayagoitia, P. Verma, O. Villa, A. Vishnu, K. D. Vogiatzis,
        D. Wang, J. H. Weare, M. J. Williamson, T. L. Windus, K. Woliski,
        A. T. Wong, Q. Wu, C. Yang, Q. Yu, M. Zacharias, Z. Zhang, Y. Zhao,
                                and R. J. Harrison
                        "NWChem: Past, present, and future
                         J. Chem. Phys. 152, 184102 (2020)
                               doi:10.1063/5.0004997
 
                                      AUTHORS
                                      -------
     E. Apra, E. J. Bylaska, N. Govind, K. Kowalski, M. Valiev, W. A. de Jong,
      T. P. Straatsma, H. J. J. van Dam, D. Wang, T. L. Windus, N. P. Bauman,
       A. Panyala, J. Hammond, J. Autschbach, K. Bhaskaran-Nair, J. Brabec,
    K. Lopata, S. A. Fischer, S. Krishnamoorthy, M. Jacquelin, W. Ma, M. Klemm,
       O. Villa, Y. Chen, V. Anisimov, F. Aquino, S. Hirata, M. T. Hackler,
           Eric Hermes, L. Jensen, J. E. Moore, J. C. Becca, V. Konjkov,
            D. Mejia-Rodriguez, T. Risthaus, M. Malagoli, A. Marenich,
   A. Otero-de-la-Roza, J. Mullin, P. Nichols, R. Peverati, J. Pittner, Y. Zhao,
        P.-D. Fan, A. Fonari, M. J. Williamson, R. J. Harrison, J. R. Rehr,
      M. Dupuis, D. Silverstein, D. M. A. Smith, J. Nieplocha, V. Tipparaju,
      M. Krishnan, B. E. Van Kuiken, A. Vazquez-Mayagoitia, M. Swart, Q. Wu,
   T. Van Voorhis, A. A. Auer, M. Nooijen, L. D. Crosby, E. Brown, G. Cisneros,
     G. I. Fann, H. Fruchtl, J. Garza, K. Hirao, R. A. Kendall, J. A. Nichols,
       K. Tsemekhman, K. Wolinski, J. Anchell, D. E. Bernholdt, P. Borowski,
       T. Clark, D. Clerc, H. Dachsel, M. J. O. Deegan, K. Dyall, D. Elwood,
      E. Glendening, M. Gutowski, A. C. Hess, J. Jaffe, B. G. Johnson, J. Ju,
        R. Kobayashi, R. Kutteh, Z. Lin, R. Littlefield, X. Long, B. Meng,
      T. Nakajima, S. Niu, L. Pollack, M. Rosing, K. Glaesemann, G. Sandrone,
      M. Stave, H. Taylor, G. Thomas, J. H. van Lenthe, A. T. Wong, Z. Zhang.

 Total times  cpu:    30064.8s     wall:    30228.4s
