 argument  1 = 14R1.nw
 


============================== echo of input deck ==============================
echo
start 14R1_again_
title "H,MeF,H Ref 1"
charge 0

geometry
 zmatrix
  O
  C  1  R1
  C  2  R2  1  A1
  H  3  R3  2  A2  1  D0
  H  1  R5  2  A4  3  D0
  H  2  R6  3  A5  4  D180
  C  3  R7  2  A6  1  D180
  F  7  R9  3  A8  2  D1
  F  7  R10 3  A9  2  D2
  F  7  R11 3  A10 2  D3
  variables
    R1  1.329
    R2  1.363
    A1  124.5
    R3  1.040
    A2  119.5
    R5  0.994
    A4  105.4
    R6  1.085
    A5  122.5
    R7  1.478
    A6  120.0
    R9  1.300
    A8  110.0
    D1  90.00
    R10 1.300
    A9  110.0
    D2  -30.0
    R11 1.300
    A10 110.0
    D3  -150.0
  constants
    D0  0.000
    D180 180.0
 end
end

basis spherical
 * library aug-cc-pVDZ
end

set lindep:n_dep 0

set cphf:maxsub 95
set cphf:maxiter 999
set int:acc_std 1d-16
set fock:densityscreen f

scf
 maxiter 99
 vectors input atomic
 thresh 1d-9
 tol2e 1d-15
end

mp2
 freeze atomic
 tight
end

driver
 clear
 maxiter 99
 tight
end

set "mp2:aotol2e fock" 1d-15
set mp2:aotol2e 1d-15
set mp2:backtol 1d-15


task mp2 optimize
task mp2 frequencies


================================================================================


                                         
                                         
 
 
             Northwest Computational Chemistry Package (NWChem) 7.0.0
             --------------------------------------------------------
 
 
                    Environmental Molecular Sciences Laboratory
                       Pacific Northwest National Laboratory
                                Richland, WA 99352
 
                              Copyright (c) 1994-2020
                       Pacific Northwest National Laboratory
                            Battelle Memorial Institute
 
             NWChem is an open-source computational chemistry package
                        distributed under the terms of the
                      Educational Community License (ECL) 2.0
             A copy of the license is included with this distribution
                              in the LICENSE.TXT file
 
                                  ACKNOWLEDGMENT
                                  --------------

            This software and its documentation were developed at the
            EMSL at Pacific Northwest National Laboratory, a multiprogram
            national laboratory, operated for the U.S. Department of Energy
            by Battelle under Contract Number DE-AC05-76RL01830. Support
            for this work was provided by the Department of Energy Office
            of Biological and Environmental Research, Office of Basic
            Energy Sciences, and the Office of Advanced Scientific Computing.


           Job information
           ---------------

    hostname        = compute-0-25.local
    program         = /scratch/nwchem.277679
    date            = Mon Apr 19 11:29:34 2021

    compiled        = Wed_Mar_31_13:42:43_2021
    source          = /home/edo/nwchem-7.0.1
    nwchem branch   = 7.0.1
    nwchem revision = de46fdf
    ga revision     = 5.7.1
    use scalapack   = T
    input           = 14R1.nw
    prefix          = 14R1_again_.
    data base       = ./14R1_again_.db
    status          = startup
    nproc           =       11
    time left       =     -1s



           Memory information
           ------------------

    heap     =  215205461 doubles =   1641.9 Mbytes
    stack    =  215205455 doubles =   1641.9 Mbytes
    global   =  122974549 doubles =    938.2 Mbytes (distinct from heap & stack)
    total    =  553385465 doubles =   4222.0 Mbytes
    verify   = yes
    hardfail = no 


           Directory information
           ---------------------
 
  0 permanent = .
  0 scratch   = /scratch
 
 
 
 
                                NWChem Input Module
                                -------------------
 
 
                                   H,MeF,H Ref 1
                                   -------------

 Scaling coordinates for geometry "geometry" by  1.889725989
 (inverse scale =  0.529177249)

 C1  symmetry detected
 
 
                             Geometry "geometry" -> ""
                             -------------------------
 
 Output coordinates in angstroms (scale by  1.889725989 to convert to a.u.)
 
  No.       Tag          Charge          X              Y              Z
 ---- ---------------- ---------- -------------- -------------- --------------
    1 O                    8.0000     0.09588768     2.83820812     0.00000000
    2 C                    6.0000    -0.29037870     1.56657952     0.00000000
    3 C                    6.0000     0.56003356     0.50141851     0.00000000
    4 H                    1.0000     1.58693398     0.66596495     0.00000000
    5 H                    1.0000     1.08954863     2.81224828     0.00000000
    6 H                    1.0000    -1.36922840     1.45121781     0.00000000
    7 C                    6.0000     0.02082884    -0.87471458    -0.00000000
    8 F                    9.0000    -0.14137992    -1.28869618    -1.22160041
    9 F                    9.0000    -1.12640163    -0.90273905     0.61080020
   10 F                    9.0000     0.84364179    -1.67465330     0.61080020
 
      Atomic Mass 
      ----------- 
 
      O                 15.994910
      C                 12.000000
      H                  1.007825
      F                 18.998400
 

 Effective nuclear repulsion energy (a.u.)     327.2100451023

            Nuclear Dipole moment (a.u.) 
            ----------------------------
        X                 Y               Z
 ---------------- ---------------- ----------------
     0.0000000000     0.0000000000     0.0000000000
 


                                Z-matrix (user)
                                -------- 

 Units are Angstrom for bonds and degrees for angles

  Constants are marked with an asterisk (*).

  Constrained variables are marked with a plus sign (+).

 
      Type          Name      I     J     K     L     M      Value
      ----------- --------  ----- ----- ----- ----- ----- ----------
    1 Stretch      R1          2     1                       1.32900
    2 Stretch      R2          3     2                       1.36300
    3 Bend         A1          3     2     1               124.50000
    4 Stretch      R3          4     3                       1.04000
    5 Bend         A2          4     3     2               119.50000
    6*Torsion      D0          4     3     2     1           0.00000
    7 Stretch      R5          5     1                       0.99400
    8 Bend         A4          5     1     2               105.40000
    9*Torsion      D0          5     1     2     3           0.00000
   10 Stretch      R6          6     2                       1.08500
   11 Bend         A5          6     2     3               122.50000
   12*Torsion      D180        6     2     3     4         180.00000
   13 Stretch      R7          7     3                       1.47800
   14 Bend         A6          7     3     2               120.00000
   15*Torsion      D180        7     3     2     1         180.00000
   16 Stretch      R9          8     7                       1.30000
   17 Bend         A8          8     7     3               110.00000
   18 Torsion      D1          8     7     3     2          90.00000
   19 Stretch      R10         9     7                       1.30000
   20 Bend         A9          9     7     3               110.00000
   21 Torsion      D2          9     7     3     2         -30.00000
   22 Stretch      R11        10     7                       1.30000
   23 Bend         A10        10     7     3               110.00000
   24 Torsion      D3         10     7     3     2        -150.00000
 
 
            XYZ format geometry
            -------------------
    10
 geometry
 O                     0.09588768     2.83820812     0.00000000
 C                    -0.29037870     1.56657952     0.00000000
 C                     0.56003356     0.50141851     0.00000000
 H                     1.58693398     0.66596495     0.00000000
 H                     1.08954863     2.81224828     0.00000000
 H                    -1.36922840     1.45121781     0.00000000
 C                     0.02082884    -0.87471458    -0.00000000
 F                    -0.14137992    -1.28869618    -1.22160041
 F                    -1.12640163    -0.90273905     0.61080020
 F                     0.84364179    -1.67465330     0.61080020
 
 ==============================================================================
                                internuclear distances
 ------------------------------------------------------------------------------
       center one      |      center two      | atomic units |  angstroms
 ------------------------------------------------------------------------------
    2 C                |   1 O                |     2.51145  |     1.32900
    3 C                |   2 C                |     2.57570  |     1.36300
    4 H                |   3 C                |     1.96532  |     1.04000
    5 H                |   1 O                |     1.87839  |     0.99400
    6 H                |   2 C                |     2.05035  |     1.08500
    7 C                |   3 C                |     2.79302  |     1.47800
    8 F                |   7 C                |     2.45664  |     1.30000
    9 F                |   7 C                |     2.45664  |     1.30000
   10 F                |   7 C                |     2.45664  |     1.30000
 ------------------------------------------------------------------------------
                         number of included internuclear distances:          9
 ==============================================================================



 ==============================================================================
                                 internuclear angles
 ------------------------------------------------------------------------------
        center 1       |       center 2       |       center 3       |  degrees
 ------------------------------------------------------------------------------
    2 C                |   1 O                |   5 H                |   105.40
    1 O                |   2 C                |   3 C                |   124.50
    1 O                |   2 C                |   6 H                |   113.00
    3 C                |   2 C                |   6 H                |   122.50
    2 C                |   3 C                |   4 H                |   119.50
    2 C                |   3 C                |   7 C                |   120.00
    4 H                |   3 C                |   7 C                |   120.50
    3 C                |   7 C                |   8 F                |   110.00
    3 C                |   7 C                |   9 F                |   110.00
    3 C                |   7 C                |  10 F                |   110.00
    8 F                |   7 C                |   9 F                |   108.94
    8 F                |   7 C                |  10 F                |   108.94
    9 F                |   7 C                |  10 F                |   108.94
 ------------------------------------------------------------------------------
                            number of included internuclear angles:         13
 ==============================================================================





 Summary of "ao basis" -> "" (spherical)
 ------------------------------------------------------------------------------
       Tag                 Description            Shells   Functions and Types
 ---------------- ------------------------------  ------  ---------------------
 *                        aug-cc-pVDZ                 on all atoms 


 
  Deleted DRIVER restart files 
 
 
 
                           NWChem Geometry Optimization
                           ----------------------------
 
 
 
 
                                   H,MeF,H Ref 1
 
 
 maximum gradient threshold         (gmax) =   0.000015
 rms gradient threshold             (grms) =   0.000010
 maximum cartesian step threshold   (xmax) =   0.000060
 rms cartesian step threshold       (xrms) =   0.000040
 fixed trust radius                (trust) =   0.300000
 maximum step size to saddle      (sadstp) =   0.100000
 energy precision                  (eprec) =   1.0D-07
 maximum number of steps          (nptopt) =   99
 initial hessian option           (inhess) =    0
 line search option               (linopt) =    1
 hessian update option            (modupd) =    1
 saddle point option              (modsad) =    0
 initial eigen-mode to follow     (moddir) =    0
 initial variable to follow       (vardir) =    0
 follow first negative mode     (firstneg) =    T
 apply conjugacy                    (opcg) =    F
 source of zmatrix                         =   user    


          -------------------
          Energy Minimization
          -------------------

 
 Names of Z-matrix variables 
    1 R1           2 R2           3 A1           4 R3           5 A2      
    6 D0           7 R5           8 A4           9 D0          10 R6      
   11 A5          12 D180        13 R7          14 A6          15 D180    
   16 R9          17 A8          18 D1          19 R10         20 A9      
   21 D2          22 R11         23 A10         24 D3      
 
 Variables with the same non-blank name are constrained to be equal
 
     variables named       D0 =     6    9 
     variables named     D180 =    12   15 

 Number of frozen variables =    4
           Frozen variables =    6    9   12   15
 
 Using diagonal initial Hessian 
 Scaling for Hessian diagonals: bonds = 1.00  angles = 0.25  torsions = 0.10

          --------
          Step   0
          --------
 
 
                         Geometry "geometry" -> "geometry"
                         ---------------------------------
 
 Output coordinates in angstroms (scale by  1.889725989 to convert to a.u.)
 
  No.       Tag          Charge          X              Y              Z
 ---- ---------------- ---------- -------------- -------------- --------------
    1 O                    8.0000     0.09588768     2.83820812     0.00000000
    2 C                    6.0000    -0.29037870     1.56657952     0.00000000
    3 C                    6.0000     0.56003356     0.50141851     0.00000000
    4 H                    1.0000     1.58693398     0.66596495     0.00000000
    5 H                    1.0000     1.08954863     2.81224828     0.00000000
    6 H                    1.0000    -1.36922840     1.45121781     0.00000000
    7 C                    6.0000     0.02082884    -0.87471458    -0.00000000
    8 F                    9.0000    -0.14137992    -1.28869618    -1.22160041
    9 F                    9.0000    -1.12640163    -0.90273905     0.61080020
   10 F                    9.0000     0.84364179    -1.67465330     0.61080020
 
      Atomic Mass 
      ----------- 
 
      O                 15.994910
      C                 12.000000
      H                  1.007825
      F                 18.998400
 

 Effective nuclear repulsion energy (a.u.)     327.2100451023

            Nuclear Dipole moment (a.u.) 
            ----------------------------
        X                 Y               Z
 ---------------- ---------------- ----------------
     0.0000000000     0.0000000000     0.0000000000
 
                      Basis "ao basis" -> "ao basis" (spherical)
                      -----
  O (Oxygen)
  ----------
            Exponent  Coefficients 
       -------------- ---------------------------------------------------------
  1 S  1.17200000E+04  0.000710
  1 S  1.75900000E+03  0.005470
  1 S  4.00800000E+02  0.027837
  1 S  1.13700000E+02  0.104800
  1 S  3.70300000E+01  0.283062
  1 S  1.32700000E+01  0.448719
  1 S  5.02500000E+00  0.270952
  1 S  1.01300000E+00  0.015458
 
  2 S  1.17200000E+04 -0.000160
  2 S  1.75900000E+03 -0.001263
  2 S  4.00800000E+02 -0.006267
  2 S  1.13700000E+02 -0.025716
  2 S  3.70300000E+01 -0.070924
  2 S  1.32700000E+01 -0.165411
  2 S  5.02500000E+00 -0.116955
  2 S  1.01300000E+00  0.557368
 
  3 S  3.02300000E-01  1.000000
 
  4 S  7.89600000E-02  1.000000
 
  5 P  1.77000000E+01  0.043018
  5 P  3.85400000E+00  0.228913
  5 P  1.04600000E+00  0.508728
 
  6 P  2.75300000E-01  1.000000
 
  7 P  6.85600000E-02  1.000000
 
  8 D  1.18500000E+00  1.000000
 
  9 D  3.32000000E-01  1.000000
 
  C (Carbon)
  ----------
            Exponent  Coefficients 
       -------------- ---------------------------------------------------------
  1 S  6.66500000E+03  0.000692
  1 S  1.00000000E+03  0.005329
  1 S  2.28000000E+02  0.027077
  1 S  6.47100000E+01  0.101718
  1 S  2.10600000E+01  0.274740
  1 S  7.49500000E+00  0.448564
  1 S  2.79700000E+00  0.285074
  1 S  5.21500000E-01  0.015204
 
  2 S  6.66500000E+03 -0.000146
  2 S  1.00000000E+03 -0.001154
  2 S  2.28000000E+02 -0.005725
  2 S  6.47100000E+01 -0.023312
  2 S  2.10600000E+01 -0.063955
  2 S  7.49500000E+00 -0.149981
  2 S  2.79700000E+00 -0.127262
  2 S  5.21500000E-01  0.544529
 
  3 S  1.59600000E-01  1.000000
 
  4 S  4.69000000E-02  1.000000
 
  5 P  9.43900000E+00  0.038109
  5 P  2.00200000E+00  0.209480
  5 P  5.45600000E-01  0.508557
 
  6 P  1.51700000E-01  1.000000
 
  7 P  4.04100000E-02  1.000000
 
  8 D  5.50000000E-01  1.000000
 
  9 D  1.51000000E-01  1.000000
 
  H (Hydrogen)
  ------------
            Exponent  Coefficients 
       -------------- ---------------------------------------------------------
  1 S  1.30100000E+01  0.019685
  1 S  1.96200000E+00  0.137977
  1 S  4.44600000E-01  0.478148
 
  2 S  1.22000000E-01  1.000000
 
  3 S  2.97400000E-02  1.000000
 
  4 P  7.27000000E-01  1.000000
 
  5 P  1.41000000E-01  1.000000
 
  F (Fluorine)
  ------------
            Exponent  Coefficients 
       -------------- ---------------------------------------------------------
  1 S  1.47100000E+04  0.000721
  1 S  2.20700000E+03  0.005553
  1 S  5.02800000E+02  0.028267
  1 S  1.42600000E+02  0.106444
  1 S  4.64700000E+01  0.286814
  1 S  1.67000000E+01  0.448641
  1 S  6.35600000E+00  0.264761
  1 S  1.31600000E+00  0.015333
 
  2 S  1.47100000E+04 -0.000165
  2 S  2.20700000E+03 -0.001308
  2 S  5.02800000E+02 -0.006495
  2 S  1.42600000E+02 -0.026691
  2 S  4.64700000E+01 -0.073690
  2 S  1.67000000E+01 -0.170776
  2 S  6.35600000E+00 -0.112327
  2 S  1.31600000E+00  0.562814
 
  3 S  3.89700000E-01  1.000000
 
  4 S  9.86300000E-02  1.000000
 
  5 P  2.26700000E+01  0.044878
  5 P  4.97700000E+00  0.235718
  5 P  1.34700000E+00  0.508521
 
  6 P  3.47100000E-01  1.000000
 
  7 P  8.50200000E-02  1.000000
 
  8 D  1.64000000E+00  1.000000
 
  9 D  4.64000000E-01  1.000000
 


 Summary of "ao basis" -> "ao basis" (spherical)
 ------------------------------------------------------------------------------
       Tag                 Description            Shells   Functions and Types
 ---------------- ------------------------------  ------  ---------------------
 O                        aug-cc-pVDZ                9       23   4s3p2d
 C                        aug-cc-pVDZ                9       23   4s3p2d
 H                        aug-cc-pVDZ                5        9   3s2p
 F                        aug-cc-pVDZ                9       23   4s3p2d


                                 NWChem SCF Module
                                 -----------------
 
 
                                   H,MeF,H Ref 1
 
 

  ao basis        = "ao basis"
  functions       =   188
  atoms           =    10
  closed shells   =    28
  open shells     =     0
  charge          =   0.00
  wavefunction    = RHF 
  input vectors   = atomic
  output vectors  = ./14R1_again_.movecs
  use symmetry    = F
  symmetry adapt  = F


 Summary of "ao basis" -> "ao basis" (spherical)
 ------------------------------------------------------------------------------
       Tag                 Description            Shells   Functions and Types
 ---------------- ------------------------------  ------  ---------------------
 O                        aug-cc-pVDZ                9       23   4s3p2d
 C                        aug-cc-pVDZ                9       23   4s3p2d
 H                        aug-cc-pVDZ                5        9   3s2p
 F                        aug-cc-pVDZ                9       23   4s3p2d



int_init: setting std/high accuracies to  1.0D-16  1.0D-32

 Forming initial guess at       0.6s


 Forcing the number of linearly dependent vectors to be  0
 
      Superposition of Atomic Density Guess
      -------------------------------------
 
 Sum of atomic energies:        -487.43163791
 
      Non-variational initial energy
      ------------------------------

 Total energy =    -490.664321
 1-e energy   =   -1324.022181
 2-e energy   =     506.147814
 HOMO         =      -0.278605
 LUMO         =       0.023329
 

 Starting SCF solution at       3.1s



 ----------------------------------------------
         Quadratically convergent ROHF

 Convergence threshold     :          1.000E-09
 Maximum no. of iterations :           99
 Final Fock-matrix accuracy:          1.000E-15
 ----------------------------------------------


              iter       energy          gnorm     gmax       time
             ----- ------------------- --------- --------- --------
                 1     -488.4204437986  1.66D+00  1.69D-01      5.7
                 2     -488.5564540282  4.16D-01  5.38D-02     11.0
                 3     -488.5713081163  3.00D-02  4.63D-03     18.1
                 4     -488.5714102311  5.03D-04  1.08D-04     29.8
                 5     -488.5714102759  1.60D-07  2.44D-08     49.0
                 6     -488.5714102759  8.96D-11  1.01D-11     67.2


       Final RHF  results 
       ------------------ 

         Total SCF energy =   -488.571410275937
      One-electron energy =  -1326.306494584118
      Two-electron energy =    510.525039205912
 Nuclear repulsion energy =    327.210045102269

        Time for solution =     64.2s


             Final eigenvalues
             -----------------

              1      
    1  -26.3492
    2  -26.3482
    3  -26.3443
    4  -20.6350
    5  -11.5040
    6  -11.3420
    7  -11.2434
    8   -1.7610
    9   -1.6552
   10   -1.6520
   11   -1.4480
   12   -1.0924
   13   -0.9678
   14   -0.8828
   15   -0.8436
   16   -0.8423
   17   -0.8152
   18   -0.7300
   19   -0.7172
   20   -0.6983
   21   -0.6690
   22   -0.6679
   23   -0.6605
   24   -0.6470
   25   -0.6121
   26   -0.5736
   27   -0.5554
   28   -0.3708
   29    0.0284
   30    0.0458
   31    0.0564
   32    0.0888
   33    0.0999
   34    0.1041
   35    0.1098
   36    0.1261
   37    0.1304
   38    0.1328
 
                       ROHF Final Molecular Orbital Analysis
                       -------------------------------------
 
 Vector   11  Occ=2.000000D+00  E=-1.447998D+00
              MO Center=  1.4D-01,  2.6D+00, -1.1D-04, r^2= 5.7D-01
   Bfn.  Coefficient  Atom+Function         Bfn.  Coefficient  Atom+Function  
  ----- ------------  ---------------      ----- ------------  ---------------
     3      0.476538   1 O  s                 2      0.415134   1 O  s         
    27     -0.205057   2 C  s                32     -0.174283   2 C  py        
    79      0.173463   5 H  s                49     -0.154777   3 C  s         
 
 Vector   12  Occ=2.000000D+00  E=-1.092390D+00
              MO Center=  1.8D-01,  3.3D-01,  2.4D-03, r^2= 1.9D+00
   Bfn.  Coefficient  Atom+Function         Bfn.  Coefficient  Atom+Function  
  ----- ------------  ---------------      ----- ------------  ---------------
    48      0.296685   3 C  s                50     -0.203686   3 C  s         
    98      0.193582   7 C  s                25      0.185733   2 C  s         
    27      0.174979   2 C  s                49      0.165448   3 C  s         
 
 Vector   13  Occ=2.000000D+00  E=-9.678401D-01
              MO Center= -4.9D-02, -3.7D-01,  1.5D-02, r^2= 3.5D+00
   Bfn.  Coefficient  Atom+Function         Bfn.  Coefficient  Atom+Function  
  ----- ------------  ---------------      ----- ------------  ---------------
   100      0.341552   7 C  s                98     -0.284148   7 C  s         
    50     -0.230336   3 C  s               126     -0.214916   8 F  pz        
   147     -0.194801   9 F  px               25      0.192737   2 C  s         
   170      0.160448  10 F  px        
 
 Vector   14  Occ=2.000000D+00  E=-8.827586D-01
              MO Center= -3.1D-02,  6.6D-01,  6.5D-03, r^2= 4.0D+00
   Bfn.  Coefficient  Atom+Function         Bfn.  Coefficient  Atom+Function  
  ----- ------------  ---------------      ----- ------------  ---------------
    25      0.216045   2 C  s                 5     -0.193898   1 O  px        
   102     -0.182652   7 C  py               79     -0.178265   5 H  s         
    88      0.163178   6 H  s                 6     -0.154698   1 O  py        
   126      0.152888   8 F  pz        
 
 Vector   15  Occ=2.000000D+00  E=-8.436250D-01
              MO Center= -1.2D-01, -1.0D+00,  2.2D-01, r^2= 2.4D+00
   Bfn.  Coefficient  Atom+Function         Bfn.  Coefficient  Atom+Function  
  ----- ------------  ---------------      ----- ------------  ---------------
   101      0.274425   7 C  px              172     -0.272617  10 F  pz        
   147     -0.239555   9 F  px              124      0.227785   8 F  px        
   149      0.220297   9 F  pz              175     -0.168970  10 F  pz        
   171      0.159073  10 F  py              102     -0.153699   7 C  py        
   127      0.150436   8 F  px        
 
 Vector   16  Occ=2.000000D+00  E=-8.422725D-01
              MO Center= -8.0D-02, -1.2D+00, -2.2D-01, r^2= 1.8D+00
   Bfn.  Coefficient  Atom+Function         Bfn.  Coefficient  Atom+Function  
  ----- ------------  ---------------      ----- ------------  ---------------
   103      0.319740   7 C  pz              126     -0.319909   8 F  pz        
    26      0.263771   2 C  s               147      0.245464   9 F  px        
   170     -0.224527  10 F  px               55     -0.218222   3 C  py        
   171      0.186475  10 F  py               99     -0.178611   7 C  s         
   125     -0.178075   8 F  py              129     -0.176087   8 F  pz        
 
 Vector   17  Occ=2.000000D+00  E=-8.151732D-01
              MO Center=  8.0D-02,  5.1D-01,  1.9D-02, r^2= 3.7D+00
   Bfn.  Coefficient  Atom+Function         Bfn.  Coefficient  Atom+Function  
  ----- ------------  ---------------      ----- ------------  ---------------
     5      0.225381   1 O  px              148     -0.221903   9 F  py        
    55      0.204981   3 C  py               52      0.194525   3 C  py        
    28      0.191461   2 C  px               50     -0.180077   3 C  s         
   102     -0.173983   7 C  py              125     -0.163408   8 F  py        
    79      0.161496   5 H  s               171     -0.156454  10 F  py        
 
 Vector   18  Occ=2.000000D+00  E=-7.300202D-01
              MO Center= -2.2D-02, -1.7D-01,  1.2D-01, r^2= 3.8D+00
   Bfn.  Coefficient  Atom+Function         Bfn.  Coefficient  Atom+Function  
  ----- ------------  ---------------      ----- ------------  ---------------
   148      0.320670   9 F  py               50      0.286567   3 C  s         
   151      0.222255   9 F  py              171     -0.211631  10 F  py        
    71     -0.206455   4 H  s               124      0.197966   8 F  px        
    27     -0.192515   2 C  s               172     -0.180297  10 F  pz        
    29     -0.174316   2 C  py               51     -0.173475   3 C  px        
 
 Vector   19  Occ=2.000000D+00  E=-7.172295D-01
              MO Center= -1.3D-01, -1.3D+00, -1.0D-01, r^2= 2.0D+00
   Bfn.  Coefficient  Atom+Function         Bfn.  Coefficient  Atom+Function  
  ----- ------------  ---------------      ----- ------------  ---------------
   125      0.346317   8 F  py              149      0.298222   9 F  pz        
   128      0.236219   8 F  py              124      0.221475   8 F  px        
   171     -0.217218  10 F  py              172      0.217926  10 F  pz        
   152      0.203208   9 F  pz              170     -0.187511  10 F  px        
    27      0.173280   2 C  s               148     -0.154362   9 F  py        
 
 Vector   20  Occ=2.000000D+00  E=-6.983052D-01
              MO Center=  6.3D-02, -5.4D-02, -1.1D-02, r^2= 4.1D+00
   Bfn.  Coefficient  Atom+Function         Bfn.  Coefficient  Atom+Function  
  ----- ------------  ---------------      ----- ------------  ---------------
    50      0.274054   3 C  s               147     -0.248790   9 F  px        
   124     -0.224058   8 F  px              171      0.215994  10 F  py        
    71     -0.204336   4 H  s                27     -0.195064   2 C  s         
   170     -0.191566  10 F  px               29     -0.187399   2 C  py        
     5      0.169219   1 O  px               89      0.168086   6 H  s         
 
 Vector   21  Occ=2.000000D+00  E=-6.689797D-01
              MO Center=  8.5D-02,  1.6D+00,  2.8D-02, r^2= 4.1D+00
   Bfn.  Coefficient  Atom+Function         Bfn.  Coefficient  Atom+Function  
  ----- ------------  ---------------      ----- ------------  ---------------
     6      0.377214   1 O  py                9      0.251566   1 O  py        
    50     -0.232602   3 C  s                28     -0.206170   2 C  px        
     5     -0.195580   1 O  px              171     -0.195598  10 F  py        
     3      0.190517   1 O  s                27      0.167757   2 C  s         
   148     -0.154012   9 F  py        
 
 Vector   22  Occ=2.000000D+00  E=-6.678520D-01
              MO Center= -1.3D-01, -1.2D+00, -2.6D-01, r^2= 2.0D+00
   Bfn.  Coefficient  Atom+Function         Bfn.  Coefficient  Atom+Function  
  ----- ------------  ---------------      ----- ------------  ---------------
   126      0.371852   8 F  pz              149      0.315843   9 F  pz        
   172      0.308251  10 F  pz              125     -0.260310   8 F  py        
   129      0.240207   8 F  pz              152      0.218700   9 F  pz        
   175      0.213296  10 F  pz              128     -0.195729   8 F  py        
 
 Vector   23  Occ=2.000000D+00  E=-6.605119D-01
              MO Center= -8.4D-02, -8.3D-01,  2.6D-01, r^2= 2.9D+00
   Bfn.  Coefficient  Atom+Function         Bfn.  Coefficient  Atom+Function  
  ----- ------------  ---------------      ----- ------------  ---------------
   170     -0.377215  10 F  px              148      0.368652   9 F  py        
   151      0.268341   9 F  py              173     -0.259511  10 F  px        
   124     -0.235453   8 F  px              147     -0.180042   9 F  px        
   127     -0.168622   8 F  px              171     -0.166173  10 F  py        
 
 Vector   24  Occ=2.000000D+00  E=-6.470014D-01
              MO Center= -1.1D-01, -1.3D+00, -5.9D-02, r^2= 2.0D+00
   Bfn.  Coefficient  Atom+Function         Bfn.  Coefficient  Atom+Function  
  ----- ------------  ---------------      ----- ------------  ---------------
   124      0.394847   8 F  px              172      0.354526  10 F  pz        
   149     -0.338917   9 F  pz              127      0.279150   8 F  px        
   175      0.249716  10 F  pz              152     -0.238533   9 F  pz        
   170     -0.172914  10 F  px              147     -0.168017   9 F  px        
 
 Vector   25  Occ=2.000000D+00  E=-6.121140D-01
              MO Center=  6.5D-02,  2.5D+00, -2.3D-03, r^2= 1.2D+00
   Bfn.  Coefficient  Atom+Function         Bfn.  Coefficient  Atom+Function  
  ----- ------------  ---------------      ----- ------------  ---------------
     7      0.555594   1 O  pz               10      0.409571   1 O  pz        
    30      0.222348   2 C  pz        
 
 Vector   26  Occ=2.000000D+00  E=-5.735544D-01
              MO Center=  5.2D-02,  9.5D-01, -1.1D-02, r^2= 2.8D+00
   Bfn.  Coefficient  Atom+Function         Bfn.  Coefficient  Atom+Function  
  ----- ------------  ---------------      ----- ------------  ---------------
    71      0.365139   4 H  s                51      0.318586   3 C  px        
    89      0.285464   6 H  s                28     -0.282052   2 C  px        
    88      0.273479   6 H  s                70      0.268936   4 H  s         
    99     -0.254130   7 C  s                 5      0.182203   1 O  px        
    49     -0.164802   3 C  s               105     -0.156928   7 C  py        
 
 Vector   27  Occ=2.000000D+00  E=-5.554205D-01
              MO Center=  1.2D-01,  6.3D-01, -1.4D-03, r^2= 3.9D+00
   Bfn.  Coefficient  Atom+Function         Bfn.  Coefficient  Atom+Function  
  ----- ------------  ---------------      ----- ------------  ---------------
    99      0.415463   7 C  s                52     -0.328042   3 C  py        
   105      0.275978   7 C  py                6     -0.250387   1 O  py        
   102      0.247888   7 C  py              171     -0.222787  10 F  py        
     5      0.195921   1 O  px              125     -0.193089   8 F  py        
     9     -0.185052   1 O  py               26     -0.177929   2 C  s         
 
 Vector   28  Occ=2.000000D+00  E=-3.708261D-01
              MO Center=  2.5D-01,  1.1D+00, -1.8D-03, r^2= 2.0D+00
   Bfn.  Coefficient  Atom+Function         Bfn.  Coefficient  Atom+Function  
  ----- ------------  ---------------      ----- ------------  ---------------
    53      0.426034   3 C  pz               56      0.299405   3 C  pz        
    30      0.290924   2 C  pz                7     -0.274635   1 O  pz        
    10     -0.222355   1 O  pz               33      0.204230   2 C  pz        
 
 Vector   29  Occ=0.000000D+00  E= 2.838171D-02
              MO Center=  2.6D+00,  2.6D+00, -9.6D-03, r^2= 1.3D+01
   Bfn.  Coefficient  Atom+Function         Bfn.  Coefficient  Atom+Function  
  ----- ------------  ---------------      ----- ------------  ---------------
    50     -7.453318   3 C  s                27      7.181637   2 C  s         
   100      5.785053   7 C  s                72     -3.134460   4 H  s         
    57      3.040725   3 C  px               81     -1.817647   5 H  s         
     4     -1.535290   1 O  s                34      1.278004   2 C  px        
   108      1.009671   7 C  py               58      0.732769   3 C  py        
 
 Vector   30  Occ=0.000000D+00  E= 4.578704D-02
              MO Center= -2.5D+00,  1.5D+00, -8.4D-02, r^2= 1.6D+01
   Bfn.  Coefficient  Atom+Function         Bfn.  Coefficient  Atom+Function  
  ----- ------------  ---------------      ----- ------------  ---------------
    90      5.571439   6 H  s                27      4.893705   2 C  s         
    50     -4.261995   3 C  s               100     -3.945436   7 C  s         
    34      3.913328   2 C  px               58     -3.054735   3 C  py        
    72     -2.625653   4 H  s                57      1.524114   3 C  px        
     4     -1.219728   1 O  s                35     -1.213876   2 C  py        
 
 Vector   31  Occ=0.000000D+00  E= 5.636141D-02
              MO Center=  2.3D+00,  1.3D+00, -1.7D-02, r^2= 2.0D+01
   Bfn.  Coefficient  Atom+Function         Bfn.  Coefficient  Atom+Function  
  ----- ------------  ---------------      ----- ------------  ---------------
    72      5.926856   4 H  s               100     -4.137637   7 C  s         
    81     -3.616961   5 H  s                57     -3.298238   3 C  px        
    27     -2.918188   2 C  s                50      2.668491   3 C  s         
    35      1.613904   2 C  py              108     -1.195507   7 C  py        
    71      1.038624   4 H  s                89      0.888897   6 H  s         
 
 Vector   32  Occ=0.000000D+00  E= 8.877602D-02
              MO Center= -5.6D-01, -1.5D+00,  3.2D-02, r^2= 2.1D+01
   Bfn.  Coefficient  Atom+Function         Bfn.  Coefficient  Atom+Function  
  ----- ------------  ---------------      ----- ------------  ---------------
   100     14.252084   7 C  s                27     -9.142844   2 C  s         
    58      6.320262   3 C  py               50     -4.753856   3 C  s         
   108      4.381446   7 C  py               81     -2.661021   5 H  s         
    35      2.590899   2 C  py               72      2.399282   4 H  s         
   107      1.963688   7 C  px               34     -1.446476   2 C  px        
 
 Vector   33  Occ=0.000000D+00  E= 9.992000D-02
              MO Center= -1.1D+00,  7.2D-01,  1.5D-01, r^2= 1.3D+01
   Bfn.  Coefficient  Atom+Function         Bfn.  Coefficient  Atom+Function  
  ----- ------------  ---------------      ----- ------------  ---------------
    36      1.995895   2 C  pz               59     -1.841686   3 C  pz        
   109      1.815804   7 C  pz              123      0.926690   8 F  s         
    27     -0.661908   2 C  s               146     -0.660817   9 F  s         
   107      0.616635   7 C  px               57     -0.587966   3 C  px        
    13     -0.462583   1 O  pz               58      0.448918   3 C  py        
 
 Vector   34  Occ=0.000000D+00  E= 1.040785D-01
              MO Center=  8.0D-01,  2.9D-01,  1.7D-02, r^2= 1.2D+01
   Bfn.  Coefficient  Atom+Function         Bfn.  Coefficient  Atom+Function  
  ----- ------------  ---------------      ----- ------------  ---------------
    50      6.394651   3 C  s                27     -4.392555   2 C  s         
   100     -2.403785   7 C  s                57     -2.066446   3 C  px        
    59     -1.774666   3 C  pz               36      1.452840   2 C  pz        
    35      1.412926   2 C  py              123     -1.157530   8 F  s         
    72      0.925942   4 H  s                34     -0.919335   2 C  px        
 
 Vector   35  Occ=0.000000D+00  E= 1.098131D-01
              MO Center= -3.9D-01,  5.9D-01, -1.2D-01, r^2= 1.9D+01
   Bfn.  Coefficient  Atom+Function         Bfn.  Coefficient  Atom+Function  
  ----- ------------  ---------------      ----- ------------  ---------------
    50     17.365615   3 C  s                27    -11.871462   2 C  s         
    57     -5.989140   3 C  px              100     -5.869633   7 C  s         
    35      4.724421   2 C  py               72      3.280227   4 H  s         
    34     -3.084454   2 C  px               90     -2.304040   6 H  s         
   107      1.964088   7 C  px              108     -1.622317   7 C  py        
 
 Vector   36  Occ=0.000000D+00  E= 1.261451D-01
              MO Center=  3.4D-01,  1.4D-01, -1.2D-02, r^2= 1.7D+01
   Bfn.  Coefficient  Atom+Function         Bfn.  Coefficient  Atom+Function  
  ----- ------------  ---------------      ----- ------------  ---------------
   109      3.570810   7 C  pz               59     -2.346477   3 C  pz        
    27      2.118035   2 C  s                50     -1.528176   3 C  s         
    34      0.969781   2 C  px               58     -0.831640   3 C  py        
     4     -0.796550   1 O  s                36     -0.632490   2 C  pz        
   155     -0.559435   9 F  pz              178     -0.537401  10 F  pz        
 
 Vector   37  Occ=0.000000D+00  E= 1.304316D-01
              MO Center=  2.0D-01,  1.5D+00,  6.7D-02, r^2= 1.6D+01
   Bfn.  Coefficient  Atom+Function         Bfn.  Coefficient  Atom+Function  
  ----- ------------  ---------------      ----- ------------  ---------------
    50     22.672146   3 C  s                27    -18.616582   2 C  s         
    34     -8.602989   2 C  px              100     -7.557090   7 C  s         
     4      5.878107   1 O  s                90     -4.457129   6 H  s         
    72      2.819417   4 H  s                35      2.371556   2 C  py        
    58      2.049289   3 C  py               57     -2.009624   3 C  px        
 
 Vector   38  Occ=0.000000D+00  E= 1.328317D-01
              MO Center=  6.8D-01,  1.6D+00, -1.3D-02, r^2= 1.9D+01
   Bfn.  Coefficient  Atom+Function         Bfn.  Coefficient  Atom+Function  
  ----- ------------  ---------------      ----- ------------  ---------------
   100      8.408207   7 C  s                58      6.468165   3 C  py        
    50      4.184775   3 C  s                27     -4.067441   2 C  s         
    81     -3.383848   5 H  s                35      3.294955   2 C  py        
     4     -2.372338   1 O  s                34     -2.080018   2 C  px        
    90     -1.830399   6 H  s                71     -1.423594   4 H  s         
 
 Vector   39  Occ=0.000000D+00  E= 1.436348D-01
              MO Center=  3.5D-01, -7.7D-02, -2.4D-02, r^2= 2.2D+01
   Bfn.  Coefficient  Atom+Function         Bfn.  Coefficient  Atom+Function  
  ----- ------------  ---------------      ----- ------------  ---------------
    50     20.532795   3 C  s                27    -12.528739   2 C  s         
   100    -10.234454   7 C  s                72      7.989598   4 H  s         
    35      7.673314   2 C  py               57     -7.422647   3 C  px        
    90     -4.291805   6 H  s               107     -4.055248   7 C  px        
    58     -3.772570   3 C  py               34     -1.845837   2 C  px        
 
 Vector   40  Occ=0.000000D+00  E= 1.523881D-01
              MO Center=  1.2D+00,  4.9D-01, -1.9D-01, r^2= 1.8D+01
   Bfn.  Coefficient  Atom+Function         Bfn.  Coefficient  Atom+Function  
  ----- ------------  ---------------      ----- ------------  ---------------
    27     23.815891   2 C  s                58    -12.234036   3 C  py        
    50    -12.172040   3 C  s                57      7.824503   3 C  px        
   100     -7.408714   7 C  s                34      5.714360   2 C  px        
    72     -5.063159   4 H  s                 4     -4.297390   1 O  s         
   107     -3.859796   7 C  px               90      2.963865   6 H  s         
 
 Vector   41  Occ=0.000000D+00  E= 1.728071D-01
              MO Center= -1.1D+00,  8.0D-01, -7.0D-02, r^2= 1.5D+01
   Bfn.  Coefficient  Atom+Function         Bfn.  Coefficient  Atom+Function  
  ----- ------------  ---------------      ----- ------------  ---------------
   100     10.086229   7 C  s                27      7.079700   2 C  s         
    90     -5.188900   6 H  s                34     -4.378908   2 C  px        
    50     -4.134797   3 C  s                57      3.750596   3 C  px        
    72     -2.949224   4 H  s                89     -2.770271   6 H  s         
   108      2.393551   7 C  py              146     -2.031542   9 F  s         
 
 Vector   42  Occ=0.000000D+00  E= 1.776169D-01
              MO Center= -1.0D-01,  1.1D+00, -7.6D-04, r^2= 9.5D+00
   Bfn.  Coefficient  Atom+Function         Bfn.  Coefficient  Atom+Function  
  ----- ------------  ---------------      ----- ------------  ---------------
   100      6.524705   7 C  s                50     -3.426311   3 C  s         
    90     -2.445312   6 H  s                59      2.407665   3 C  pz        
    27      2.284981   2 C  s                34     -2.180357   2 C  px        
    36     -1.743386   2 C  pz               58      1.634605   3 C  py        
    89     -1.558483   6 H  s                57      1.475620   3 C  px        
 
 Vector   43  Occ=0.000000D+00  E= 2.069935D-01
              MO Center=  1.2D+00,  1.8D+00,  4.6D-02, r^2= 1.4D+01
   Bfn.  Coefficient  Atom+Function         Bfn.  Coefficient  Atom+Function  
  ----- ------------  ---------------      ----- ------------  ---------------
    27     17.959521   2 C  s                50    -16.101628   3 C  s         
   100     -6.092591   7 C  s                58     -5.749003   3 C  py        
    71      3.734367   4 H  s                34      3.252332   2 C  px        
    72      2.803631   4 H  s                81     -2.100856   5 H  s         
    11      1.945512   1 O  px               80     -1.777371   5 H  s         
 
 Vector   44  Occ=0.000000D+00  E= 2.298571D-01
              MO Center= -1.0D-01,  6.2D-02, -1.5D-01, r^2= 1.5D+01
   Bfn.  Coefficient  Atom+Function         Bfn.  Coefficient  Atom+Function  
  ----- ------------  ---------------      ----- ------------  ---------------
    27     31.014846   2 C  s               100    -23.427791   7 C  s         
    58     -9.570671   3 C  py               50     -7.530279   3 C  s         
    35     -6.117953   2 C  py                4     -5.144826   1 O  s         
   108     -4.966617   7 C  py               34      4.941393   2 C  px        
    57      4.857122   3 C  px               89     -4.247434   6 H  s         
 
 Vector   45  Occ=0.000000D+00  E= 2.448146D-01
              MO Center= -1.0D-01,  1.2D+00,  2.2D-01, r^2= 1.4D+01
   Bfn.  Coefficient  Atom+Function         Bfn.  Coefficient  Atom+Function  
  ----- ------------  ---------------      ----- ------------  ---------------
    27      5.446557   2 C  s                50     -5.036173   3 C  s         
    13      1.802250   1 O  pz               57      1.775471   3 C  px        
    71      1.336579   4 H  s                89     -1.239202   6 H  s         
   146      1.221754   9 F  s               169     -1.133901  10 F  s         
   153      1.068367   9 F  px               58     -0.967100   3 C  py        
 
 Vector   46  Occ=0.000000D+00  E= 2.598795D-01
              MO Center=  3.2D-01,  5.6D-02, -2.8D-02, r^2= 1.6D+01
   Bfn.  Coefficient  Atom+Function         Bfn.  Coefficient  Atom+Function  
  ----- ------------  ---------------      ----- ------------  ---------------
    50     36.697880   3 C  s               100    -31.564798   7 C  s         
    27     -9.876543   2 C  s                58     -6.748018   3 C  py        
   108     -5.547358   7 C  py               34     -4.793697   2 C  px        
    71     -4.456329   4 H  s                 4      4.426367   1 O  s         
    57     -4.428798   3 C  px              146      2.566683   9 F  s         
 
 Vector   47  Occ=0.000000D+00  E= 2.717448D-01
              MO Center= -1.6D-01,  3.1D-01,  1.8D-01, r^2= 1.5D+01
   Bfn.  Coefficient  Atom+Function         Bfn.  Coefficient  Atom+Function  
  ----- ------------  ---------------      ----- ------------  ---------------
    58      3.128001   3 C  py              100      2.097817   7 C  s         
   107      2.002652   7 C  px               89      1.987803   6 H  s         
     4     -1.958622   1 O  s                36     -1.797720   2 C  pz        
   146     -1.731292   9 F  s                12      1.711477   1 O  py        
    27     -1.675414   2 C  s               153     -1.496826   9 F  px        
 
 Vector   48  Occ=0.000000D+00  E= 2.767419D-01
              MO Center=  1.4D-01,  2.3D+00,  3.2D-02, r^2= 1.4D+01
   Bfn.  Coefficient  Atom+Function         Bfn.  Coefficient  Atom+Function  
  ----- ------------  ---------------      ----- ------------  ---------------
    27      8.278442   2 C  s                58     -7.811119   3 C  py        
    50     -5.740630   3 C  s               100     -3.985932   7 C  s         
    12     -3.604723   1 O  py                4      2.446965   1 O  s         
    81      2.287956   5 H  s                55     -1.984412   3 C  py        
    57      1.595707   3 C  px               32     -1.514155   2 C  py        
 
 Vector   49  Occ=0.000000D+00  E= 2.970949D-01
              MO Center=  5.4D-01,  8.7D-01,  5.0D-02, r^2= 1.1D+01
   Bfn.  Coefficient  Atom+Function         Bfn.  Coefficient  Atom+Function  
  ----- ------------  ---------------      ----- ------------  ---------------
    27     11.476887   2 C  s                50     -7.783472   3 C  s         
   100     -6.774465   7 C  s                34      4.851375   2 C  px        
     4     -4.341649   1 O  s                71      3.858696   4 H  s         
    35     -3.462462   2 C  py               58     -3.473971   3 C  py        
    80      2.752567   5 H  s                11     -2.590450   1 O  px        
 
 Vector   50  Occ=0.000000D+00  E= 3.002497D-01
              MO Center= -2.8D-01,  9.7D-01, -1.9D-01, r^2= 1.1D+01
   Bfn.  Coefficient  Atom+Function         Bfn.  Coefficient  Atom+Function  
  ----- ------------  ---------------      ----- ------------  ---------------
    50     19.403769   3 C  s                27    -15.967818   2 C  s         
    57     -6.625827   3 C  px               34     -5.848389   2 C  px        
    35      5.087340   2 C  py               72      4.769212   4 H  s         
   100     -3.919286   7 C  s                90     -3.724301   6 H  s         
    26     -3.055607   2 C  s                11      2.400963   1 O  px        
 
 Vector   51  Occ=0.000000D+00  E= 3.054808D-01
              MO Center= -8.5D-02,  1.3D-01, -1.9D-01, r^2= 1.3D+01
   Bfn.  Coefficient  Atom+Function         Bfn.  Coefficient  Atom+Function  
  ----- ------------  ---------------      ----- ------------  ---------------
    50     46.847483   3 C  s                27    -36.358118   2 C  s         
   100    -14.929371   7 C  s                57    -10.425631   3 C  px        
    35      7.026020   2 C  py               34     -6.265919   2 C  px        
     4      6.123348   1 O  s                71     -5.069400   4 H  s         
    72      4.858902   4 H  s                90     -3.058449   6 H  s         
 
 Vector   52  Occ=0.000000D+00  E= 3.234210D-01
              MO Center= -3.2D-01,  1.2D+00, -1.0D-02, r^2= 1.2D+01
   Bfn.  Coefficient  Atom+Function         Bfn.  Coefficient  Atom+Function  
  ----- ------------  ---------------      ----- ------------  ---------------
    50      5.400866   3 C  s                35      4.593912   2 C  py        
    89      3.365102   6 H  s                26      3.004977   2 C  s         
   100     -2.685314   7 C  s                11      2.496637   1 O  px        
    54      2.504286   3 C  px               32     -2.461435   2 C  py        
    55     -2.454235   3 C  py               49     -2.251912   3 C  s         
 
 Vector   53  Occ=0.000000D+00  E= 3.318408D-01
              MO Center= -3.0D-01, -5.6D-01,  4.2D-01, r^2= 1.0D+01
   Bfn.  Coefficient  Atom+Function         Bfn.  Coefficient  Atom+Function  
  ----- ------------  ---------------      ----- ------------  ---------------
    50     16.238410   3 C  s                27    -14.691470   2 C  s         
    58      5.265741   3 C  py               34     -4.857920   2 C  px        
    55     -4.030622   3 C  py              105     -3.021689   7 C  py        
    26      2.789485   2 C  s                90     -2.763335   6 H  s         
     4      2.707805   1 O  s                35      2.530243   2 C  py        
 
 Vector   54  Occ=0.000000D+00  E= 3.391003D-01
              MO Center= -1.9D-01, -1.6D-01, -4.3D-01, r^2= 1.2D+01
   Bfn.  Coefficient  Atom+Function         Bfn.  Coefficient  Atom+Function  
  ----- ------------  ---------------      ----- ------------  ---------------
    36     -1.645466   2 C  pz               13      1.572579   1 O  pz        
   131     -1.568551   8 F  py               71     -1.443671   4 H  s         
   154      1.051036   9 F  py               26      0.946880   2 C  s         
    27     -0.946102   2 C  s                89     -0.935231   6 H  s         
    57     -0.904153   3 C  px              177      0.787891  10 F  py        
 
 Vector   55  Occ=0.000000D+00  E= 3.660908D-01
              MO Center=  4.3D-01, -1.1D+00,  4.3D-01, r^2= 1.1D+01
   Bfn.  Coefficient  Atom+Function         Bfn.  Coefficient  Atom+Function  
  ----- ------------  ---------------      ----- ------------  ---------------
    27      7.791515   2 C  s                50     -5.806047   3 C  s         
    58     -4.390519   3 C  py              109     -4.037491   7 C  pz        
    57      2.857522   3 C  px               59      2.069389   3 C  pz        
   178      1.920219  10 F  pz              132      1.544843   8 F  pz        
   155      1.551328   9 F  pz              177     -1.377534  10 F  py        
 
 Vector   56  Occ=0.000000D+00  E= 3.759960D-01
              MO Center=  3.3D-01,  6.0D-02,  1.7D-01, r^2= 1.2D+01
   Bfn.  Coefficient  Atom+Function         Bfn.  Coefficient  Atom+Function  
  ----- ------------  ---------------      ----- ------------  ---------------
    50     24.059464   3 C  s                27    -15.735001   2 C  s         
   100     -9.129236   7 C  s                 4      5.493424   1 O  s         
    35      5.177723   2 C  py               34     -4.570868   2 C  px        
    58     -3.500283   3 C  py               57     -3.198107   3 C  px        
    90     -2.666546   6 H  s                80     -2.337639   5 H  s         
 
 Vector   57  Occ=0.000000D+00  E= 3.780448D-01
              MO Center= -7.0D-01, -5.1D-01,  6.0D-02, r^2= 1.1D+01
   Bfn.  Coefficient  Atom+Function         Bfn.  Coefficient  Atom+Function  
  ----- ------------  ---------------      ----- ------------  ---------------
   107      4.550457   7 C  px               35     -3.876631   2 C  py        
    50      3.135844   3 C  s                27     -3.095698   2 C  s         
    58      3.087919   3 C  py               71     -2.332221   4 H  s         
    34     -2.314417   2 C  px                4      2.037358   1 O  s         
   154     -1.952565   9 F  py              153     -1.688132   9 F  px        
 
 Vector   58  Occ=0.000000D+00  E= 3.816365D-01
              MO Center= -3.3D-01, -3.8D-01, -7.9D-02, r^2= 1.2D+01
   Bfn.  Coefficient  Atom+Function         Bfn.  Coefficient  Atom+Function  
  ----- ------------  ---------------      ----- ------------  ---------------
    50      6.352877   3 C  s                89      5.571716   6 H  s         
   100     -3.530197   7 C  s                 4     -3.250583   1 O  s         
    71     -3.019556   4 H  s                54      2.949244   3 C  px        
    27     -2.415902   2 C  s                31      2.352980   2 C  px        
    49     -2.048988   3 C  s                32     -1.853988   2 C  py        
 
 Vector   59  Occ=0.000000D+00  E= 3.915631D-01
              MO Center=  2.4D-01,  2.7D-01, -2.2D-01, r^2= 1.1D+01
   Bfn.  Coefficient  Atom+Function         Bfn.  Coefficient  Atom+Function  
  ----- ------------  ---------------      ----- ------------  ---------------
    50      9.427755   3 C  s                27     -6.151041   2 C  s         
    57     -3.534675   3 C  px              100     -3.130376   7 C  s         
    72      2.858259   4 H  s                34     -2.567384   2 C  px        
    71      2.498755   4 H  s               123     -2.486612   8 F  s         
    90     -2.383564   6 H  s                35      2.054439   2 C  py        
 
 Vector   60  Occ=0.000000D+00  E= 4.013809D-01
              MO Center=  2.4D-02, -2.2D-01, -9.9D-02, r^2= 1.3D+01
   Bfn.  Coefficient  Atom+Function         Bfn.  Coefficient  Atom+Function  
  ----- ------------  ---------------      ----- ------------  ---------------
    50     17.109949   3 C  s                27    -11.011801   2 C  s         
   100     -7.582087   7 C  s                57     -6.038878   3 C  px        
    72      4.157632   4 H  s               176      2.448706  10 F  px        
    35      2.427582   2 C  py              169     -2.140991  10 F  s         
    90     -2.058137   6 H  s               107     -1.921767   7 C  px        
 
 Vector   61  Occ=0.000000D+00  E= 4.057246D-01
              MO Center=  6.0D-01, -4.6D-01, -1.5D-01, r^2= 8.8D+00
   Bfn.  Coefficient  Atom+Function         Bfn.  Coefficient  Atom+Function  
  ----- ------------  ---------------      ----- ------------  ---------------
    27     11.373256   2 C  s                50     -7.104188   3 C  s         
    57      5.993916   3 C  px              146      4.316646   9 F  s         
    58     -3.894368   3 C  py              107     -3.593327   7 C  px        
    99      3.312748   7 C  s               153      2.738745   9 F  px        
   100     -2.531139   7 C  s               104      2.447872   7 C  px        
 
 Vector   62  Occ=0.000000D+00  E= 4.111582D-01
              MO Center=  4.6D-02,  6.7D-02,  1.3D-01, r^2= 1.1D+01
   Bfn.  Coefficient  Atom+Function         Bfn.  Coefficient  Atom+Function  
  ----- ------------  ---------------      ----- ------------  ---------------
   100     11.731061   7 C  s                27     -7.119523   2 C  s         
    58      7.122869   3 C  py               55     -4.512971   3 C  py        
   169     -3.711627  10 F  s                 4      3.372783   1 O  s         
    26      3.223104   2 C  s                31      2.861000   2 C  px        
    34     -2.769425   2 C  px              105     -2.526573   7 C  py        
 
 Vector   63  Occ=0.000000D+00  E= 4.292702D-01
              MO Center=  5.8D-01,  1.1D+00,  2.0D-02, r^2= 1.1D+01
   Bfn.  Coefficient  Atom+Function         Bfn.  Coefficient  Atom+Function  
  ----- ------------  ---------------      ----- ------------  ---------------
    27     27.032195   2 C  s                50    -16.721664   3 C  s         
     4    -10.727900   1 O  s                57      6.351661   3 C  px        
    58     -4.786012   3 C  py               72     -4.528276   4 H  s         
    34      4.432731   2 C  px               35     -2.771031   2 C  py        
    12      2.393767   1 O  py               80      2.349840   5 H  s         
 
 Vector   64  Occ=0.000000D+00  E= 4.496086D-01
              MO Center=  9.1D-02,  1.3D+00, -8.5D-02, r^2= 9.2D+00
   Bfn.  Coefficient  Atom+Function         Bfn.  Coefficient  Atom+Function  
  ----- ------------  ---------------      ----- ------------  ---------------
    27     17.975491   2 C  s                50    -10.585603   3 C  s         
     4     -9.071500   1 O  s                32      4.549512   2 C  py        
    57      4.420974   3 C  px               99      4.170729   7 C  s         
    55      3.768682   3 C  py               49      3.606864   3 C  s         
    26     -3.089656   2 C  s                80      2.692156   5 H  s         
 
 Vector   65  Occ=0.000000D+00  E= 4.572310D-01
              MO Center=  2.6D-01,  5.1D-01,  1.4D-01, r^2= 1.0D+01
   Bfn.  Coefficient  Atom+Function         Bfn.  Coefficient  Atom+Function  
  ----- ------------  ---------------      ----- ------------  ---------------
   100     13.789074   7 C  s                50    -11.458961   3 C  s         
    58      5.103428   3 C  py               55      3.520230   3 C  py        
    89     -3.402803   6 H  s                49      3.003955   3 C  s         
   123     -3.005180   8 F  s                27      2.766300   2 C  s         
    32      2.697847   2 C  py               99      2.604592   7 C  s         
 
 Vector   66  Occ=0.000000D+00  E= 4.655415D-01
              MO Center= -5.3D-02, -3.1D-01, -5.5D-02, r^2= 8.6D+00
   Bfn.  Coefficient  Atom+Function         Bfn.  Coefficient  Atom+Function  
  ----- ------------  ---------------      ----- ------------  ---------------
   100     18.603334   7 C  s                27     -9.845665   2 C  s         
    58      4.131711   3 C  py              146     -4.121601   9 F  s         
   123     -3.876779   8 F  s                35      3.620987   2 C  py        
   169     -3.585527  10 F  s                49      3.106018   3 C  s         
   105     -3.112105   7 C  py              108      3.045697   7 C  py        
 
 Vector   67  Occ=0.000000D+00  E= 4.904550D-01
              MO Center=  2.2D-03, -8.3D-02, -6.4D-01, r^2= 9.6D+00
   Bfn.  Coefficient  Atom+Function         Bfn.  Coefficient  Atom+Function  
  ----- ------------  ---------------      ----- ------------  ---------------
    50      9.363729   3 C  s               123     -7.627536   8 F  s         
   132     -3.311912   8 F  pz              146      3.299610   9 F  s         
    27     -3.171984   2 C  s               100     -3.099563   7 C  s         
    89     -2.912054   6 H  s               106     -2.851231   7 C  pz        
    34     -2.493603   2 C  px                4      2.465772   1 O  s         
 
 Vector   68  Occ=0.000000D+00  E= 5.075237D-01
              MO Center= -2.0D-01,  1.1D+00,  5.8D-02, r^2= 7.8D+00
   Bfn.  Coefficient  Atom+Function         Bfn.  Coefficient  Atom+Function  
  ----- ------------  ---------------      ----- ------------  ---------------
   100      6.626414   7 C  s                 4      5.380517   1 O  s         
   146     -5.041499   9 F  s                27     -4.279850   2 C  s         
    34     -3.736783   2 C  px               55     -3.144168   3 C  py        
    80     -2.732871   5 H  s                90     -2.590649   6 H  s         
    26      2.175189   2 C  s                58      2.027016   3 C  py        
 

 center of mass
 --------------
 x =  -0.02903371 y =  -0.14787350 z =  -0.00000000

 moments of inertia (a.u.)
 ------------------
        1154.132366217469          -0.000000000000          -0.000000000000
          -0.000000000000         325.176601560611          -0.000000000000
          -0.000000000000          -0.000000000000        1175.574351331494
 
  Mulliken analysis of the total density
  --------------------------------------

    Atom       Charge   Shell Charges
 -----------   ------   -------------------------------------------------------
    1 O    8     8.68   2.00  0.83  1.01  0.14  2.83  1.78  0.06  0.02  0.02
    2 C    6     5.32   2.01  0.67  0.50 -0.08  1.91  0.28  0.06  0.15 -0.17
    3 C    6     5.80   2.01  0.65  0.19 -0.24  2.09  0.81  0.13  0.06  0.09
    4 H    1     1.56   0.80  0.73  0.03  0.03 -0.02
    5 H    1     0.79   0.70  0.03 -0.02  0.07  0.01
    6 H    1     1.24   0.77  0.44  0.02  0.03 -0.03
    7 C    6     3.85   2.01  0.68 -0.44 -0.11  1.80 -0.27 -0.01  0.35 -0.15
    8 F    9     9.57   2.00  0.89  1.08  0.14  3.34  2.03  0.07  0.01  0.01
    9 F    9     9.60   2.00  0.88  1.09  0.14  3.34  2.04  0.08  0.01  0.01
   10 F    9     9.60   2.00  0.89  1.08  0.14  3.34  2.04  0.08  0.01  0.01
 
       Multipole analysis of the density wrt the origin
       ------------------------------------------------
 
     L   x y z        total         open         nuclear
     -   - - -        -----         ----         -------
     0   0 0 0     -0.000000      0.000000     56.000000
 
     1   1 0 0      0.512968      0.000000      0.000000
     1   0 1 0      0.739377      0.000000      0.000000
     1   0 0 1     -0.006247      0.000000      0.000000
 
     2   2 0 0    -25.507652      0.000000     93.021470
     2   1 1 0      2.716861      0.000000      4.404290
     2   1 0 1     -0.033227      0.000000      0.000000
     2   0 2 0    -30.642535      0.000000    511.545122
     2   0 1 1     -0.037882      0.000000      0.000000
     2   0 0 2    -30.653693      0.000000     71.943204
 
                   NWChem MP2 Semi-direct Energy/Gradient Module
                   ---------------------------------------------
 
 
                                   H,MeF,H Ref 1
 
 

int_init: setting std/high accuracies to  1.0D-16  1.0D-32
  Basis functions       =    188
  Molecular orbitals    =    188
  Frozen core           =      7
  Frozen virtuals       =      0
  Active alpha occupied =     21
  Active beta occupied  =     21
  Active alpha virtual  =    160
  Active beta virtual   =    160
  Use MO symmetry       = F
  Use skeleton AO sym   = F

  AO/Fock/Back tols     =   1.0D-15  1.0D-15  1.0D-15

 GA uses MA = F    GA memory limited = T

 Available: 
  local mem=  3.77D+08
 global mem=  1.23D+08
 local disk=  0.00D+00

int_init: setting std/high accuracies to  1.0D-16  1.0D-32
  mp2_memr nvloc                     15
  nvloc new                     15
   1 passes of  21:        5242880                     282341                  24512703.
   1 passes of  21: M    376603118           G      122956137           F     371360238.
 
 Semi-direct pass number   1 of   1  for RHF alpha+beta  at       67.5s

int_init: setting std/high accuracies to  1.0D-16  1.0D-32
  vrange nnbf                  17484
  mp2_eaftype                     71  avail_ma_in_mb                   3283
 EAF : mp2_eaftype filesize          71    9392888.
  mp2_eaf for mointskh                      71
Node 0 wrote     44.1 Mb in      0.1 s     Agg I/O rate:  4178.6 Mb/s
 Done moints_semi at       75.0s
  mp2_eaftype                     71  avail_ma_in_mb                   3212
 EAF : mp2_eaftype filesize          71    9392888.
  mp2_eaf for kh                     71
  mp2_eaftype                     16  avail_ma_in_mb                   3212
 EAF : mp2_eaftype filesize          16    2116800.
  mp2_eaf for ta tb                     16
  mp2_eaf for ta                      16
  mp2_eaf for tb                      16
 Done maket at       75.6s
 Done pijab at       75.7s
 Done wijab at       75.8s
 Done lai at       77.8s

int_init: setting std/high accuracies to  1.0D-16  1.0D-32
  mp2_eaftype                     82  avail_ma_in_mb                   3179
 EAF : mp2_eaftype filesize          82   10859369.
  mp2_eaf for 2pdm                      82
 Done nonsep at      106.4s
 Done multipass loop at      106.4s


          -------------------------------------------
          SCF energy                -488.571410275937
          Correlation energy          -1.203246895375
          Singlet pairs               -0.712960318090
          Triplet pairs               -0.490286577285
          Total MP2 energy          -489.774657171312
          -------------------------------------------



          ---------------------------------------------------
                    Spin Component Scaled (SCS) MP2
          Same spin pairs                     -0.326857718190
          Same spin scaling factor             0.333333333333
          Opposite spin pairs                 -0.876389177185
          Opposite spin scaling fact.          1.200000000000
          SCS-MP2 correlation energy          -1.160619585352
          Total SCS-MP2 energy              -489.732029861289
          ---------------------------------------------------


int_init: setting std/high accuracies to  1.0D-16  1.0D-32
                                NWChem CPHF Module
                                ------------------
 
 

int_init: setting std/high accuracies to  1.0D-16  1.0D-32
    scftype = RHF 
    nclosed =   28
      nopen =    0
  variables =     4480
  tolerance =   1.0D-06
  max. iter =  999

 SCF residual:   9.099912270066869E-011

            ----- linear solve (tol: 1.0E-06 prod-acc: 3.2E-14) -----

               iter nbas    rnorm     rnorm-scal   ratio     time
               ---- ---- ----------- ----------- --------- -------
                  1    1  8.4208E-02  3.9907E-01    0.0000   113.8
                  2    2  1.5497E-02  7.3444E-02    0.1840   116.3
                  3    3  5.0093E-03  2.3739E-02    0.3232   118.9
                  4    4  1.7252E-03  8.1758E-03    0.3444   121.4
                  5    5  4.3830E-04  2.0772E-03    0.2541   123.9
                  6    6  1.3316E-04  6.3105E-04    0.3038   126.4
                  7    7  5.2999E-05  2.5117E-04    0.3980   128.8
                  8    8  1.6965E-05  8.0397E-05    0.3201   131.3
                  9    9  6.1593E-06  2.9190E-05    0.3631   133.7
                 10   10  1.7722E-06  8.3984E-06    0.2877   136.1
                 11   11  4.9122E-07  2.3280E-06    0.2772   138.5
                 12   12  1.1193E-07  5.3042E-07    0.2278   140.7

 CPHF converged to   5.3D-07 in   12 iters


int_init: setting std/high accuracies to  1.0D-16  1.0D-32
                Dipole Moments (a.u.)
                --------------
         Nuclear       SCF       SCF+MP2
       ----------- ----------- -----------
 X       0.000000    0.512968    0.524060
 Y       0.000000    0.739377    0.674828
 Z       0.000000   -0.006247   -0.004189
 

 MP2 RHF      natural orbital occupation numbers


              1      
    1    2.0000
    2    2.0000
    3    2.0000
    4    2.0000
    5    2.0000
    6    2.0000
    7    2.0000
    8    1.9904
    9    1.9892
   10    1.9892
   11    1.9863
   12    1.9818
   13    1.9762
   14    1.9755
   15    1.9755
   16    1.9743
   17    1.9733
   18    1.9729
   19    1.9716
   20    1.9701
   21    1.9665
   22    1.9649
   23    1.9634
   24    1.9624
   25    1.9623
   26    1.9601
   27    1.9558
   28    1.9329
   29    0.0518
   30    0.0335
   31    0.0326
   32    0.0297
   33    0.0289
   34    0.0267
   35    0.0227
   36    0.0208
   37    0.0178
   38    0.0172
   39    0.0158
   40    0.0153
   41    0.0145
   42    0.0143
   43    0.0139
   44    0.0137
   45    0.0121
   46    0.0115
   47    0.0101
   48    0.0095
   49    0.0089
   50    0.0087
   51    0.0084
   52    0.0077
   53    0.0072
   54    0.0070
   55    0.0064
   56    0.0062
   57    0.0059
   58    0.0057
   59    0.0056
   60    0.0056
   61    0.0055
   62    0.0052
   63    0.0050
   64    0.0049
   65    0.0048
   66    0.0047
   67    0.0046
   68    0.0045
   69    0.0044
   70    0.0043
   71    0.0041
   72    0.0040
   73    0.0040
   74    0.0038
   75    0.0034
   76    0.0028
   77    0.0026
   78    0.0025
   79    0.0020
   80    0.0017
   81    0.0016
   82    0.0016
   83    0.0015
   84    0.0014
   85    0.0013
   86    0.0013
   87    0.0012
   88    0.0011
   89    0.0010
   90    0.0010
   91    0.0009
   92    0.0009
   93    0.0009
   94    0.0008
   95    0.0007
   96    0.0006
   97    0.0006
   98    0.0006
   99    0.0006
  100    0.0006
  101    0.0005
  102    0.0005
  103    0.0005
  104    0.0005
  105    0.0005
  106    0.0004
  107    0.0004
  108    0.0004
  109    0.0004
  110    0.0004
  111    0.0004
  112    0.0003
  113    0.0003
  114    0.0003
  115    0.0003
  116    0.0003
  117    0.0003
  118    0.0003
  119    0.0003
  120    0.0003
  121    0.0003
  122    0.0002
  123    0.0002
  124    0.0002
  125    0.0002
  126    0.0002
  127    0.0002
  128    0.0002
  129    0.0002
  130    0.0002
  131    0.0001
  132    0.0001
  133    0.0001
  134    0.0001
  135    0.0001
  136    0.0001
  137    0.0001
  138    0.0001
  139    0.0001
  140    0.0001
  141    0.0001
  142    0.0001
  143    0.0001
  144    0.0001
  145    0.0001
  146    0.0001
  147    0.0001
  148    0.0001
  149    0.0000
  150    0.0000
  151    0.0000
  152    0.0000
  153    0.0000
  154    0.0000
  155    0.0000
  156    0.0000
  157    0.0000
  158    0.0000
  159    0.0000
  160    0.0000
  161    0.0000
  162    0.0000
  163    0.0000
  164    0.0000
  165    0.0000
  166    0.0000
  167    0.0000
  168    0.0000
  169    0.0000
  170    0.0000
  171    0.0000
  172    0.0000
  173    0.0000
  174    0.0000
  175    0.0000
  176    0.0000
  177   -0.0000
  178   -0.0000
  179   -0.0000
  180   -0.0000
  181   -0.0000
  182   -0.0000
  183   -0.0000
  184   -0.0001
  185   -0.0001
  186   -0.0001
  187   -0.0002
  188   -0.0002
 
  MP2 natural orbitals output to ./14R1_again_.mp2nos
 

int_init: setting std/high accuracies to  1.0D-16  1.0D-32

int_init: setting std/high accuracies to  1.0D-16  1.0D-32


                         mp2 ENERGY GRADIENTS

    atom               coordinates                        gradient
                 x          y          z           x          y          z
   1 O       0.181201   5.363436   0.000000   -0.031596  -0.025196   0.000750
   2 C      -0.548736   2.960406   0.000000   -0.002941   0.036408  -0.000596
   3 C       1.058310   0.947544   0.000000    0.044901  -0.024528  -0.003591
   4 H       2.998870   1.258491   0.000000   -0.043317  -0.001533   0.001493
   5 H       2.058948   5.314379   0.000000    0.020387  -0.008463   0.000109
   6 H      -2.587466   2.742404   0.000000    0.005097   0.000081  -0.000682
   7 C       0.039361  -1.652971  -0.000000   -0.026686  -0.065752  -0.002469
   8 F      -0.267169  -2.435283  -2.308490    0.011459   0.031929   0.058081
   9 F      -2.128590  -1.705929   1.154245    0.058448   0.012163  -0.026022
  10 F       1.594252  -3.164636   1.154245   -0.035752   0.044889  -0.027072
 
                 ----------------------------------------
                 |  Time  |  1-e(secs)   |  2-e(secs)   |
                 ----------------------------------------
                 |  CPU   |       0.01   |      11.40   |
                 ----------------------------------------
                 |  WALL  |       0.01   |      11.41   |
                 ----------------------------------------
 -----------------------
 Performance information
 -----------------------

 Timer overhead =  1.00D-07 seconds/call

               Nr. of calls         CPU time (s)                 Wall time (s)                GFlops
             ---------------    -------------------     ------------------------------   -------------------
Name         Min   Avg   Max    Min     Avg     Max     Min     Avg     Max   Mx/calls   Min     Max     Sum
mp2: moin     1     1     1    7.0     7.0     7.0      7.5     7.5     7.5     7.5      0.0     0.0     0.0   
mp2: make     1     1     1   0.53    0.53    0.54     0.54    0.54    0.54    0.54      0.0     0.0     0.0   
mp2: pija     1     1     1   0.10    0.11    0.11     0.11    0.11    0.11    0.11      0.0     0.0     0.0   
mp2: wija     1     1     1   0.11    0.11    0.11     0.11    0.11    0.11    0.11      0.0     0.0     0.0   
mp2: lai      1     1     1    2.0     2.0     2.0      2.0     2.0     2.0     2.0      0.0     0.0     0.0   
mp2: back     1     1     1    1.1     1.1     1.1      1.1     1.1     1.1     1.1      0.0     0.0     0.0   
mp2: nons     1     1     1    23.     25.     27.      23.     25.     27.     27.      0.0     0.0     0.0   
mp2: laif     1     1     1    2.9     2.9     2.9      2.9     2.9     2.9     2.9      0.0     0.0     0.0   
mp2: cphf     1     1     1    32.     32.     32.      32.     32.     32.     32.      0.0     0.0     0.0   
mp2: wijf     1     1     1    2.9     2.9     2.9      2.9     2.9     2.9     2.9      0.0     0.0     0.0   
mp2: sep      1     1     1    11.     11.     11.      11.     11.     11.     11.      0.0     0.0     0.0   
mp2: tota     1     1     1    88.     88.     88.      89.     89.     89.     89.      0.0     0.0     0.0   

 The average no. of pstat calls per process was 1.20D+01
 with a timing overhead of 1.20D-06s


@ Step       Energy      Delta E   Gmax     Grms     Xrms     Xmax   Walltime
@ ---- ---------------- -------- -------- -------- -------- -------- --------
@    0    -489.77465717  0.0D+00  0.06618  0.02694  0.00000  0.00000    156.1
                                                                    

  Internal coordinate gradient before constraints


                                Z-matrix (user)
                                -------- 

 Units are Angstrom for bonds and degrees for angles

  Constants are marked with an asterisk (*).

  Constrained variables are marked with a plus sign (+).

 
      Type          Name      I     J     K     L     M      Value     Gradient
      ----------- --------  ----- ----- ----- ----- ----- ---------- ----------
    1 Stretch      R1          2     1                       1.32900   -0.03546
    2 Stretch      R2          3     2                       1.36300    0.00786
    3 Bend         A1          3     2     1               124.50000   -0.00663
    4 Stretch      R3          4     3                       1.04000   -0.04301
    5 Bend         A2          4     3     2               119.50000   -0.00555
    6*Torsion      D0          4     3     2     1           0.00000    0.00198
    7 Stretch      R5          5     1                       0.99400    0.02060
    8 Bend         A4          5     1     2               105.40000   -0.00788
    9*Torsion      D0          5     1     2     3           0.00000   -0.00010
   10 Stretch      R6          6     2                       1.08500   -0.00508
   11 Bend         A5          6     2     3               122.50000   -0.00050
   12*Torsion      D180        6     2     3     4         180.00000   -0.00062
   13 Stretch      R7          7     3                       1.47800   -0.02435
   14 Bend         A6          7     3     2               120.00000   -0.00666
   15*Torsion      D180        7     3     2     1         180.00000   -0.00300
   16 Stretch      R9          8     7                       1.30000   -0.06618
   17 Bend         A8          8     7     3               110.00000   -0.01560
   18 Torsion      D1          8     7     3     2          90.00000   -0.00120
   19 Stretch      R10         9     7                       1.30000   -0.06407
   20 Bend         A9          9     7     3               110.00000   -0.01485
   21 Torsion      D2          9     7     3     2         -30.00000   -0.00300
   22 Stretch      R11        10     7                       1.30000   -0.06297
   23 Bend         A10        10     7     3               110.00000   -0.00998
   24 Torsion      D3         10     7     3     2        -150.00000    0.00169
 
  Internal coordinate gradient after constraints


                                Z-matrix (user)
                                -------- 

 Units are Angstrom for bonds and degrees for angles

  Constants are marked with an asterisk (*).

  Constrained variables are marked with a plus sign (+).

 
      Type          Name      I     J     K     L     M      Value     Gradient
      ----------- --------  ----- ----- ----- ----- ----- ---------- ----------
    1 Stretch      R1          2     1                       1.32900   -0.03546
    2 Stretch      R2          3     2                       1.36300    0.00786
    3 Bend         A1          3     2     1               124.50000   -0.00663
    4 Stretch      R3          4     3                       1.04000   -0.04301
    5 Bend         A2          4     3     2               119.50000   -0.00555
    6*Torsion      D0          4     3     2     1           0.00000   -0.00000
    7 Stretch      R5          5     1                       0.99400    0.02060
    8 Bend         A4          5     1     2               105.40000   -0.00788
    9*Torsion      D0          5     1     2     3           0.00000    0.00000
   10 Stretch      R6          6     2                       1.08500   -0.00508
   11 Bend         A5          6     2     3               122.50000   -0.00050
   12*Torsion      D180        6     2     3     4         180.00000   -0.00000
   13 Stretch      R7          7     3                       1.47800   -0.02435
   14 Bend         A6          7     3     2               120.00000   -0.00666
   15*Torsion      D180        7     3     2     1         180.00000   -0.00000
   16 Stretch      R9          8     7                       1.30000   -0.06618
   17 Bend         A8          8     7     3               110.00000   -0.01560
   18 Torsion      D1          8     7     3     2          90.00000   -0.00120
   19 Stretch      R10         9     7                       1.30000   -0.06407
   20 Bend         A9          9     7     3               110.00000   -0.01485
   21 Torsion      D2          9     7     3     2         -30.00000   -0.00300
   22 Stretch      R11        10     7                       1.30000   -0.06297
   23 Bend         A10        10     7     3               110.00000   -0.00998
   24 Torsion      D3         10     7     3     2        -150.00000    0.00169
 
                                 NWChem SCF Module
                                 -----------------
 
 
                                   H,MeF,H Ref 1
 
 

  ao basis        = "ao basis"
  functions       =   188
  atoms           =    10
  closed shells   =    28
  open shells     =     0
  charge          =   0.00
  wavefunction    = RHF 
  input vectors   = ./14R1_again_.movecs
  output vectors  = ./14R1_again_.movecs
  use symmetry    = F
  symmetry adapt  = F


[...]
          13     0.02347     0.09664     0.11969    -0.00287    -0.05529    -0.06509
          14    -0.00434    -0.01786    -0.09405     0.11577     0.01023     0.27732
          15     0.10042     0.41343    -0.03205     0.00567    -0.23651     0.02720
          16    -0.06477    -0.09039    -0.04315    -0.02148     0.00910     0.13026
          17     0.01197     0.01670     0.16871     0.13865    -0.00168    -0.05543
          18    -0.27707    -0.38668     0.01738     0.01101     0.03890    -0.03285
          19     0.00868    -0.00538    -0.04328     0.00992    -0.00098    -0.01125
          20    -0.00160     0.00099    -0.00850    -0.01998     0.00018    -0.00659
          21     0.03714    -0.02303     0.00975    -0.00318    -0.00418     0.00235
          22    -0.01894    -0.03823     0.02645     0.02785    -0.08209    -0.04786
          23     0.08869    -0.06321     0.03598    -0.10978    -0.05600     0.00596
          24    -0.01901     0.01034    -0.00703     0.04425     0.01903    -0.01201
          25     0.01007     0.00213    -0.03613     0.00886    -0.02464    -0.00610
          26    -0.00186    -0.00040    -0.14160     0.02348     0.00455    -0.11318
          27     0.04310     0.00912     0.00233    -0.00106    -0.10539    -0.00346
          28     0.00688     0.04006     0.02751     0.00329     0.08309    -0.03749
          29    -0.08646     0.06287     0.03579    -0.10524     0.05582     0.00403
          30    -0.03261    -0.00251    -0.00248    -0.06081    -0.01476     0.03239

                   13          14          15          16          17          18
 
 P.Frequency      487.73      545.54      569.79      677.44      799.65      875.23
 
           1    -0.02039     0.02276    -0.00968    -0.01143    -0.00709     0.01053
           2     0.00377     0.00864     0.00179     0.05486     0.00131    -0.02524
           3    -0.08721    -0.00495    -0.04139     0.00504    -0.03033    -0.00355
           4     0.01851    -0.06700     0.01762     0.02305     0.02461    -0.03883
           5    -0.00342     0.02618    -0.00326     0.01346    -0.00455     0.01318
           6     0.07917     0.01679     0.07539    -0.00481     0.10527     0.00965
           7     0.00003    -0.02328     0.01791    -0.06126    -0.03622     0.10994
           8    -0.00001     0.04466    -0.00331    -0.07584     0.00669     0.12506
           9     0.00013     0.00737     0.07661     0.01104    -0.15495    -0.02030
          10    -0.05156    -0.03290     0.04826    -0.05514     0.15891     0.09949
          11     0.00953     0.18746    -0.00892    -0.14087    -0.02936     0.30883
          12    -0.22057     0.01579     0.20646     0.00681     0.67982    -0.00992
          13     0.18522     0.02752     0.02411    -0.01366     0.00224     0.01589
          14    -0.03422    -0.08389    -0.00445     0.12180    -0.00041    -0.14219
          15     0.79238    -0.01006     0.10313     0.00845     0.00957    -0.00986
          16     0.02413    -0.07144    -0.00059     0.01783    -0.02899    -0.03110
          17    -0.00446     0.07348     0.00011     0.06426     0.00536    -0.06477
          18     0.10321     0.01987    -0.00252    -0.00139    -0.12402     0.00447
          19     0.00307     0.08033    -0.01800    -0.02457    -0.00013     0.03717
          20    -0.00057    -0.01521     0.00333    -0.09364     0.00002     0.03125
          21     0.01313    -0.01943    -0.07700     0.00170    -0.00057    -0.00734
          22    -0.02347    -0.08499     0.04889     0.02352    -0.00118     0.00815
          23     0.00309    -0.01297    -0.07647    -0.00301     0.02279    -0.03389
          24     0.01463    -0.06371    -0.07662    -0.11771     0.01706    -0.05624
          25    -0.00884     0.12444     0.02065    -0.04466    -0.00061    -0.12142
          26     0.00163    -0.01906    -0.00382     0.06515     0.00011    -0.01911
          27    -0.03781    -0.02991     0.08834     0.01325    -0.00261     0.02756
          28     0.02746    -0.04825    -0.07628     0.07312     0.00817     0.03154
          29    -0.00383    -0.01976     0.08153    -0.01218    -0.02408    -0.03821
          30     0.00242     0.09344    -0.04053     0.09447     0.01284     0.04384

                   19          20          21          22          23          24
 
 P.Frequency      983.49     1095.91     1113.44     1136.98     1260.36     1314.28
 
           1     0.00097     0.02024     0.00065    -0.01473     0.02538     0.03983
           2    -0.00018     0.08297    -0.00013    -0.11430     0.03860     0.02985
           3     0.00416    -0.00115     0.00277    -0.00149    -0.00427    -0.00802
           4    -0.02550    -0.04181     0.00145     0.08713    -0.02358    -0.10103
           5     0.00471    -0.06303    -0.00026     0.04550    -0.09266    -0.09747
           6    -0.10908     0.00705     0.00617    -0.01840     0.00151     0.01941
           7    -0.00018     0.02346    -0.00644    -0.06548     0.05096     0.03276
           8     0.00003    -0.05490     0.00119     0.00795    -0.01541    -0.04813
           9    -0.00076    -0.00786    -0.02752     0.01565    -0.01258    -0.00974
          10     0.08326     0.00359     0.00131    -0.10041    -0.00045     0.04431
          11    -0.01538     0.27655    -0.00026     0.38773     0.58121    -0.27573
          12     0.35620     0.01110     0.00560     0.04022     0.02521    -0.02227
          13     0.03149     0.02908    -0.00160    -0.05561     0.01598     0.01135
          14    -0.00582    -0.02752     0.00030     0.52094     0.20561     0.48255
          15     0.13473    -0.00799    -0.00683     0.03550     0.00514     0.01819
          16     0.18828    -0.04652    -0.01365     0.06879    -0.04039    -0.14578
          17    -0.03479    -0.02515     0.00253     0.31312     0.06993     0.32002
          18     0.80545     0.00978    -0.05843    -0.00255     0.01246     0.04790
          19     0.00284     0.13276     0.05753     0.06238    -0.17266     0.05918
          20    -0.00052    -0.15034    -0.01062    -0.01703    -0.01674     0.11945
          21     0.01213    -0.03751     0.24616    -0.01532     0.03964    -0.00867
          22     0.00118    -0.01059     0.00147    -0.00515     0.01221    -0.00238
          23    -0.00294     0.03966    -0.03239     0.00481    -0.00061    -0.01265
          24    -0.00609     0.04452    -0.06729     0.00663    -0.00633    -0.00891
          25     0.00005    -0.04954    -0.00399    -0.02344     0.04578    -0.02218
          26    -0.00001     0.00509     0.00074    -0.00162     0.00238    -0.01054
          27     0.00020     0.01180    -0.01709     0.00541    -0.01060     0.00473
          28    -0.00369    -0.02844    -0.03048    -0.00745     0.01373     0.00157
          29     0.00340     0.04297     0.03774     0.00523    -0.00089    -0.01338
          30    -0.00468    -0.03184    -0.05679    -0.00325     0.00021     0.00798

                   25          26          27          28          29          30
 
 P.Frequency     1341.56     1414.84     1731.19     3238.84     3272.51     3783.09
 
           1    -0.03173     0.04712     0.00508    -0.00027    -0.00216    -0.05839
           2    -0.04007    -0.03898    -0.03045     0.00039    -0.00025    -0.00587
           3     0.00569    -0.01270    -0.00250     0.00008     0.00049     0.01339
           4    -0.03783    -0.06927    -0.07961     0.00550     0.08199    -0.00319
           5     0.05681     0.02592     0.17376    -0.00577     0.00359     0.00103
           6     0.01130     0.01731     0.02611    -0.00153    -0.01901     0.00079
           7     0.10447     0.01881     0.07428    -0.08163    -0.00100     0.00093
           8     0.02294     0.11051    -0.17098    -0.00471     0.00504     0.00075
           9    -0.02343     0.00038    -0.02475     0.01888     0.00045    -0.00018
          10     0.13911     0.05491     0.07096     0.92421    -0.03160    -0.00377
          11    -0.22346    -0.27932     0.16813     0.08676    -0.00192    -0.00205
          12    -0.04217    -0.02490    -0.00933    -0.21229     0.00730     0.00079
          13    -0.02833     0.00570    -0.00564     0.00521     0.02167     0.93909
          14    -0.14111     0.50627     0.08959     0.00445    -0.00634     0.07364
          15     0.00053     0.02053     0.00519    -0.00103    -0.00534    -0.21634
          16    -0.09727    -0.03623    -0.07463    -0.02510    -0.92343     0.02058
          17     0.67905    -0.42928    -0.22897    -0.00189    -0.08999     0.00077
          18     0.05207    -0.01007     0.00755     0.00579     0.21197    -0.00478
          19    -0.04825    -0.03521    -0.00373    -0.00008     0.00076    -0.00029
          20    -0.10852    -0.11614     0.03260     0.00306    -0.00042    -0.00050
          21     0.00659     0.00321     0.00228     0.00015    -0.00019     0.00005
          22     0.00246     0.00083     0.00135    -0.00001    -0.00005     0.00001
          23     0.01445     0.01026     0.00224    -0.00024    -0.00006     0.00013
          24     0.01075     0.00785     0.00082    -0.00020    -0.00003     0.00006
          25     0.01419     0.01485    -0.00029     0.00032    -0.00022     0.00007
          26     0.00544     0.00960    -0.00281     0.00012     0.00036     0.00003
          27    -0.00308    -0.00306    -0.00005    -0.00007     0.00007    -0.00001
          28    -0.00227    -0.00253     0.00089     0.00008    -0.00003    -0.00002
          29     0.01533     0.01088     0.00233    -0.00026    -0.00007     0.00014
          30    -0.00950    -0.00654    -0.00115     0.00016     0.00004    -0.00005



 ----------------------------------------------------------------------------
 Normal Eigenvalue ||    Projected Derivative Dipole Moments (debye/angs)
  Mode   [cm**-1]  ||      [d/dqX]             [d/dqY]           [d/dqZ]
 ------ ---------- || ------------------ ------------------ -----------------
    1       -0.000 ||       0.097              -0.061            -0.013
    2       -0.000 ||       0.004              -0.004            -0.017
    3       -0.000 ||      -0.040               0.021            -0.032
    4       -0.000 ||       0.074              -0.039             0.068
    5       -0.000 ||      -0.015               0.023             0.139
    6        0.000 ||      -0.016              -0.001            -0.109
    7       79.495 ||       0.058              -0.011             0.248
    8      185.996 ||       0.081              -0.015             0.346
    9      198.347 ||      -0.217              -0.144             0.045
   10      392.600 ||      -0.075               0.340             0.032
   11      403.288 ||      -0.035               0.007            -0.151
   12      407.948 ||       0.371               0.324            -0.073
   13      487.732 ||       0.300              -0.055             1.282
   14      545.535 ||      -0.043              -0.036             0.009
   15      569.793 ||       0.061              -0.011             0.261
   16      677.441 ||      -0.167              -0.477             0.019
   17      799.646 ||       0.148              -0.027             0.632
   18      875.228 ||       0.349               0.510            -0.060
   19      983.489 ||       0.288              -0.053             1.231
   20     1095.905 ||       1.269              -2.777            -0.416
   21     1113.443 ||       0.584              -0.108             2.497
   22     1136.981 ||       0.855               1.819            -0.121
   23     1260.357 ||      -1.521              -0.788             0.321
   24     1314.280 ||       0.451               1.252            -0.051
   25     1341.561 ||      -0.412              -0.546             0.073
   26     1414.836 ||      -0.058              -0.837            -0.023
   27     1731.194 ||      -0.188               2.425             0.149
   28     3238.835 ||       0.012              -0.224            -0.012
   29     3272.514 ||      -0.012               0.179             0.011
   30     3783.089 ||       0.892               0.798            -0.174
 ----------------------------------------------------------------------------



  
  
 ----------------------------------------------------------------------------
 Normal Eigenvalue ||           Projected Infra Red Intensities
  Mode   [cm**-1]  || [atomic units] [(debye/angs)**2] [(KM/mol)] [arbitrary]
 ------ ---------- || -------------- ----------------- ---------- -----------
    1       -0.000 ||    0.000577           0.013         0.562       0.103
    2       -0.000 ||    0.000015           0.000         0.014       0.003
    3       -0.000 ||    0.000135           0.003         0.131       0.024
    4       -0.000 ||    0.000506           0.012         0.493       0.090
    5       -0.000 ||    0.000877           0.020         0.855       0.156
    6        0.000 ||    0.000521           0.012         0.508       0.093
    7       79.495 ||    0.002823           0.065         2.752       0.503
    8      185.996 ||    0.005487           0.127         5.349       0.979
    9      198.347 ||    0.003024           0.070         2.948       0.539
   10      392.600 ||    0.005290           0.122         5.157       0.944
   11      403.288 ||    0.001044           0.024         1.017       0.186
   12      407.948 ||    0.010735           0.248        10.465       1.915
   13      487.732 ||    0.075268           1.736        73.375      13.426
   14      545.535 ||    0.000141           0.003         0.137       0.025
   15      569.793 ||    0.003125           0.072         3.047       0.557
   16      677.441 ||    0.011089           0.256        10.810       1.978
   17      799.646 ||    0.018277           0.422        17.818       3.260
   18      875.228 ||    0.016712           0.386        16.292       2.981
   19      983.489 ||    0.069366           1.600        67.622      12.373
   20     1095.905 ||    0.411449           9.492       401.101      73.392
   21     1113.443 ||    0.285605           6.589       278.422      50.945
   22     1136.981 ||    0.175803           4.056       171.382      31.359
   23     1260.357 ||    0.131649           3.037       128.338      23.483
   24     1314.280 ||    0.076861           1.773        74.928      13.710
   25     1341.561 ||    0.020515           0.473        19.999       3.659
   26     1414.836 ||    0.030526           0.704        29.759       5.445
   27     1731.194 ||    0.257390           5.938       250.917      45.912
   28     3238.835 ||    0.002192           0.051         2.137       0.391
   29     3272.514 ||    0.001401           0.032         1.366       0.250
   30     3783.089 ||    0.063458           1.464        61.862      11.319
 ----------------------------------------------------------------------------



 vib:animation  F

 Task  times  cpu:     7518.4s     wall:     7565.8s
 
 
                                NWChem Input Module
                                -------------------
 
 
 Summary of allocated global arrays
-----------------------------------
  No active global arrays



                         GA Statistics for process    0
                         ------------------------------

       create   destroy   get      put      acc     scatter   gather  read&inc
calls: 6.54e+04 6.54e+04 1.61e+07 1.67e+06 5.25e+06    0        0     8.93e+04 
number of processes/call -5.28e+11 3.25e+12 1.25e+12 0.00e+00 0.00e+00
bytes total:             1.24e+10 2.05e+10 3.62e+09 0.00e+00 0.00e+00 7.14e+05
bytes remote:            6.19e+09 1.40e+10 2.46e+09 0.00e+00 0.00e+00 0.00e+00
Max memory consumed for GA by this process: 175582184 bytes
 
MA_summarize_allocated_blocks: starting scan ...
MA_summarize_allocated_blocks: scan completed: 0 heap blocks, 0 stack blocks
MA usage statistics:

	allocation statistics:
					      heap	     stack
					      ----	     -----
	current number of blocks	         0	         0
	maximum number of blocks	        22	        39
	current total bytes		         0	         0
	maximum total bytes		 119583384	  26339672
	maximum total K-bytes		    119584	     26340
	maximum total M-bytes		       120	        27
 
 
                                     CITATION
                                     --------
                Please cite the following reference when publishing
                           results obtained with NWChem:
 
          E. Apr, E. J. Bylaska, W. A. de Jong, N. Govind, K. Kowalski,
       T. P. Straatsma, M. Valiev, H. J. J. van Dam, Y. Alexeev, J. Anchell,
       V. Anisimov, F. W. Aquino, R. Atta-Fynn, J. Autschbach, N. P. Bauman,
     J. C. Becca, D. E. Bernholdt, K. Bhaskaran-Nair, S. Bogatko, P. Borowski,
        J. Boschen, J. Brabec, A. Bruner, E. Caut, Y. Chen, G. N. Chuev,
      C. J. Cramer, J. Daily, M. J. O. Deegan, T. H. Dunning Jr., M. Dupuis,
   K. G. Dyall, G. I. Fann, S. A. Fischer, A. Fonari, H. Frchtl, L. Gagliardi,
      J. Garza, N. Gawande, S. Ghosh, K. Glaesemann, A. W. Gtz, J. Hammond,
       V. Helms, E. D. Hermes, K. Hirao, S. Hirata, M. Jacquelin, L. Jensen,
   B. G. Johnson, H. Jnsson, R. A. Kendall, M. Klemm, R. Kobayashi, V. Konkov,
      S. Krishnamoorthy, M. Krishnan, Z. Lin, R. D. Lins, R. J. Littlefield,
      A. J. Logsdail, K. Lopata, W. Ma, A. V. Marenich, J. Martin del Campo,
   D. Mejia-Rodriguez, J. E. Moore, J. M. Mullin, T. Nakajima, D. R. Nascimento,
    J. A. Nichols, P. J. Nichols, J. Nieplocha, A. Otero-de-la-Roza, B. Palmer,
    A. Panyala, T. Pirojsirikul, B. Peng, R. Peverati, J. Pittner, L. Pollack,
   R. M. Richard, P. Sadayappan, G. C. Schatz, W. A. Shelton, D. W. Silverstein,
   D. M. A. Smith, T. A. Soares, D. Song, M. Swart, H. L. Taylor, G. S. Thomas,
            V. Tipparaju, D. G. Truhlar, K. Tsemekhman, T. Van Voorhis,
     . Vzquez-Mayagoitia, P. Verma, O. Villa, A. Vishnu, K. D. Vogiatzis,
        D. Wang, J. H. Weare, M. J. Williamson, T. L. Windus, K. Woliski,
        A. T. Wong, Q. Wu, C. Yang, Q. Yu, M. Zacharias, Z. Zhang, Y. Zhao,
                                and R. J. Harrison
                        "NWChem: Past, present, and future
                         J. Chem. Phys. 152, 184102 (2020)
                               doi:10.1063/5.0004997
 
                                      AUTHORS
                                      -------
     E. Apra, E. J. Bylaska, N. Govind, K. Kowalski, M. Valiev, W. A. de Jong,
      T. P. Straatsma, H. J. J. van Dam, D. Wang, T. L. Windus, N. P. Bauman,
       A. Panyala, J. Hammond, J. Autschbach, K. Bhaskaran-Nair, J. Brabec,
    K. Lopata, S. A. Fischer, S. Krishnamoorthy, M. Jacquelin, W. Ma, M. Klemm,
       O. Villa, Y. Chen, V. Anisimov, F. Aquino, S. Hirata, M. T. Hackler,
           Eric Hermes, L. Jensen, J. E. Moore, J. C. Becca, V. Konjkov,
            D. Mejia-Rodriguez, T. Risthaus, M. Malagoli, A. Marenich,
   A. Otero-de-la-Roza, J. Mullin, P. Nichols, R. Peverati, J. Pittner, Y. Zhao,
        P.-D. Fan, A. Fonari, M. J. Williamson, R. J. Harrison, J. R. Rehr,
      M. Dupuis, D. Silverstein, D. M. A. Smith, J. Nieplocha, V. Tipparaju,
      M. Krishnan, B. E. Van Kuiken, A. Vazquez-Mayagoitia, M. Swart, Q. Wu,
   T. Van Voorhis, A. A. Auer, M. Nooijen, L. D. Crosby, E. Brown, G. Cisneros,
     G. I. Fann, H. Fruchtl, J. Garza, K. Hirao, R. A. Kendall, J. A. Nichols,
       K. Tsemekhman, K. Wolinski, J. Anchell, D. E. Bernholdt, P. Borowski,
       T. Clark, D. Clerc, H. Dachsel, M. J. O. Deegan, K. Dyall, D. Elwood,
      E. Glendening, M. Gutowski, A. C. Hess, J. Jaffe, B. G. Johnson, J. Ju,
        R. Kobayashi, R. Kutteh, Z. Lin, R. Littlefield, X. Long, B. Meng,
      T. Nakajima, S. Niu, L. Pollack, M. Rosing, K. Glaesemann, G. Sandrone,
      M. Stave, H. Taylor, G. Thomas, J. H. van Lenthe, A. T. Wong, Z. Zhang.

 Total times  cpu:    10089.6s     wall:    10161.2s
