 argument  1 = 14R2.nw
 


============================== echo of input deck ==============================
echo
start 14R2_again_
title "H,MeF,H Ref 2"
charge 0

geometry
 zmatrix
  O
  C  1  R1
  C  2  R2  1  A1
  H  3  R3  2  A2  1  D0
  H  1  R5  2  A4  3  D180
  H  2  R6  3  A5  4  D180
  C  3  R7  2  A6  1  D180
  F  7  R9  3  A8  2  D1
  F  7  R10 3  A9  2  D2
  F  7  R11 3  A10 2  D3
  variables
    R1  1.329
    R2  1.363
    A1  124.5
    R3  1.040
    A2  119.5
    R5  0.994
    A4  105.4
    R6  1.085
    A5  122.5
    R7  1.478
    A6  120.0
    R9  1.300
    A8  110.0
    D1  90.00
    R10 1.300
    A9  110.0
    D2  -30.0
    R11 1.300
    A10 110.0
    D3  -150.0
  constants
    D0  0.000
    D180 180.0
 end
end

basis spherical
 * library aug-cc-pVDZ
end

set lindep:n_dep 0

set cphf:maxsub 95
set cphf:maxiter 999
set int:acc_std 1d-16
set fock:densityscreen f

scf
 maxiter 99
 vectors input atomic
 thresh 1d-9
 tol2e 1d-15
end

mp2
 freeze atomic
 tight
end

driver
 clear
 maxiter 99
 tight
end

set "mp2:aotol2e fock" 1d-15
set mp2:aotol2e 1d-15
set mp2:backtol 1d-15


task mp2 optimize
task mp2 frequencies


================================================================================


                                         
                                         
 
 
             Northwest Computational Chemistry Package (NWChem) 7.0.0
             --------------------------------------------------------
 
 
                    Environmental Molecular Sciences Laboratory
                       Pacific Northwest National Laboratory
                                Richland, WA 99352
 
                              Copyright (c) 1994-2020
                       Pacific Northwest National Laboratory
                            Battelle Memorial Institute
 
             NWChem is an open-source computational chemistry package
                        distributed under the terms of the
                      Educational Community License (ECL) 2.0
             A copy of the license is included with this distribution
                              in the LICENSE.TXT file
 
                                  ACKNOWLEDGMENT
                                  --------------

            This software and its documentation were developed at the
            EMSL at Pacific Northwest National Laboratory, a multiprogram
            national laboratory, operated for the U.S. Department of Energy
            by Battelle under Contract Number DE-AC05-76RL01830. Support
            for this work was provided by the Department of Energy Office
            of Biological and Environmental Research, Office of Basic
            Energy Sciences, and the Office of Advanced Scientific Computing.


           Job information
           ---------------

    hostname        = compute-0-19.local
    program         = /scratch/nwchem.277679
    date            = Mon Apr 19 14:18:29 2021

    compiled        = Wed_Mar_31_13:42:43_2021
    source          = /home/edo/nwchem-7.0.1
    nwchem branch   = 7.0.1
    nwchem revision = de46fdf
    ga revision     = 5.7.1
    use scalapack   = T
    input           = 14R2.nw
    prefix          = 14R2_again_.
    data base       = ./14R2_again_.db
    status          = startup
    nproc           =       11
    time left       =     -1s



           Memory information
           ------------------

    heap     =  215205461 doubles =   1641.9 Mbytes
    stack    =  215205455 doubles =   1641.9 Mbytes
    global   =  122974549 doubles =    938.2 Mbytes (distinct from heap & stack)
    total    =  553385465 doubles =   4222.0 Mbytes
    verify   = yes
    hardfail = no 


           Directory information
           ---------------------
 
  0 permanent = .
  0 scratch   = /scratch
 
 
 
 
                                NWChem Input Module
                                -------------------
 
 
                                   H,MeF,H Ref 2
                                   -------------

 Scaling coordinates for geometry "geometry" by  1.889725989
 (inverse scale =  0.529177249)

 C1  symmetry detected
 
 
                             Geometry "geometry" -> ""
                             -------------------------
 
 Output coordinates in angstroms (scale by  1.889725989 to convert to a.u.)
 
  No.       Tag          Charge          X              Y              Z
 ---- ---------------- ---------- -------------- -------------- --------------
    1 O                    8.0000     0.19723378     2.82430603     0.00000000
    2 C                    6.0000    -0.21977864     1.56242583     0.00000000
    3 C                    6.0000     0.60453389     0.47694076     0.00000000
    4 H                    1.0000     1.63512508     0.61651798     0.00000000
    5 H                    1.0000    -0.62985253     3.37563555     0.00000000
    6 H                    1.0000    -1.30111020     1.47327956     0.00000000
    7 C                    6.0000     0.03209204    -0.88570165    -0.00000000
    8 F                    9.0000    -0.14011542    -1.29562485    -1.22160041
    9 F                    9.0000    -1.11548065    -0.88587695     0.61080020
   10 F                    9.0000     0.83524980    -1.70537276     0.61080020
 
      Atomic Mass 
      ----------- 
 
      O                 15.994910
      C                 12.000000
      H                  1.007825
      F                 18.998400
 

 Effective nuclear repulsion energy (a.u.)     326.5350755504

            Nuclear Dipole moment (a.u.) 
            ----------------------------
        X                 Y               Z
 ---------------- ---------------- ----------------
     0.0000000000     0.0000000000     0.0000000000
 


                                Z-matrix (user)
                                -------- 

 Units are Angstrom for bonds and degrees for angles

  Constants are marked with an asterisk (*).

  Constrained variables are marked with a plus sign (+).

 
      Type          Name      I     J     K     L     M      Value
      ----------- --------  ----- ----- ----- ----- ----- ----------
    1 Stretch      R1          2     1                       1.32900
    2 Stretch      R2          3     2                       1.36300
    3 Bend         A1          3     2     1               124.50000
    4 Stretch      R3          4     3                       1.04000
    5 Bend         A2          4     3     2               119.50000
    6*Torsion      D0          4     3     2     1           0.00000
    7 Stretch      R5          5     1                       0.99400
    8 Bend         A4          5     1     2               105.40000
    9*Torsion      D180        5     1     2     3         180.00000
   10 Stretch      R6          6     2                       1.08500
   11 Bend         A5          6     2     3               122.50000
   12*Torsion      D180        6     2     3     4         180.00000
   13 Stretch      R7          7     3                       1.47800
   14 Bend         A6          7     3     2               120.00000
   15*Torsion      D180        7     3     2     1         180.00000
   16 Stretch      R9          8     7                       1.30000
   17 Bend         A8          8     7     3               110.00000
   18 Torsion      D1          8     7     3     2          90.00000
   19 Stretch      R10         9     7                       1.30000
   20 Bend         A9          9     7     3               110.00000
   21 Torsion      D2          9     7     3     2         -30.00000
   22 Stretch      R11        10     7                       1.30000
   23 Bend         A10        10     7     3               110.00000
   24 Torsion      D3         10     7     3     2        -150.00000
 
 
            XYZ format geometry
            -------------------
    10
 geometry
 O                     0.19723378     2.82430603     0.00000000
 C                    -0.21977864     1.56242583     0.00000000
 C                     0.60453389     0.47694076     0.00000000
 H                     1.63512508     0.61651798     0.00000000
 H                    -0.62985253     3.37563555     0.00000000
 H                    -1.30111020     1.47327956     0.00000000
 C                     0.03209204    -0.88570165    -0.00000000
 F                    -0.14011542    -1.29562485    -1.22160041
 F                    -1.11548065    -0.88587695     0.61080020
 F                     0.83524980    -1.70537276     0.61080020
 
 ==============================================================================
                                internuclear distances
 ------------------------------------------------------------------------------
       center one      |      center two      | atomic units |  angstroms
 ------------------------------------------------------------------------------
    2 C                |   1 O                |     2.51145  |     1.32900
    3 C                |   2 C                |     2.57570  |     1.36300
    4 H                |   3 C                |     1.96532  |     1.04000
    5 H                |   1 O                |     1.87839  |     0.99400
    6 H                |   2 C                |     2.05035  |     1.08500
    7 C                |   3 C                |     2.79302  |     1.47800
    8 F                |   7 C                |     2.45664  |     1.30000
    9 F                |   7 C                |     2.45664  |     1.30000
   10 F                |   7 C                |     2.45664  |     1.30000
 ------------------------------------------------------------------------------
                         number of included internuclear distances:          9
 ==============================================================================



 ==============================================================================
                                 internuclear angles
 ------------------------------------------------------------------------------
        center 1       |       center 2       |       center 3       |  degrees
 ------------------------------------------------------------------------------
    2 C                |   1 O                |   5 H                |   105.40
    1 O                |   2 C                |   3 C                |   124.50
    1 O                |   2 C                |   6 H                |   113.00
    3 C                |   2 C                |   6 H                |   122.50
    2 C                |   3 C                |   4 H                |   119.50
    2 C                |   3 C                |   7 C                |   120.00
    4 H                |   3 C                |   7 C                |   120.50
    3 C                |   7 C                |   8 F                |   110.00
    3 C                |   7 C                |   9 F                |   110.00
    3 C                |   7 C                |  10 F                |   110.00
    8 F                |   7 C                |   9 F                |   108.94
    8 F                |   7 C                |  10 F                |   108.94
    9 F                |   7 C                |  10 F                |   108.94
 ------------------------------------------------------------------------------
                            number of included internuclear angles:         13
 ==============================================================================





 Summary of "ao basis" -> "" (spherical)
 ------------------------------------------------------------------------------
       Tag                 Description            Shells   Functions and Types
 ---------------- ------------------------------  ------  ---------------------
 *                        aug-cc-pVDZ                 on all atoms 


 
  Deleted DRIVER restart files 
 
 
 
                           NWChem Geometry Optimization
                           ----------------------------
 
 
 
 
                                   H,MeF,H Ref 2
 
 
 maximum gradient threshold         (gmax) =   0.000015
 rms gradient threshold             (grms) =   0.000010
 maximum cartesian step threshold   (xmax) =   0.000060
 rms cartesian step threshold       (xrms) =   0.000040
 fixed trust radius                (trust) =   0.300000
 maximum step size to saddle      (sadstp) =   0.100000
 energy precision                  (eprec) =   1.0D-07
 maximum number of steps          (nptopt) =   99
 initial hessian option           (inhess) =    0
 line search option               (linopt) =    1
 hessian update option            (modupd) =    1
 saddle point option              (modsad) =    0
 initial eigen-mode to follow     (moddir) =    0
 initial variable to follow       (vardir) =    0
 follow first negative mode     (firstneg) =    T
 apply conjugacy                    (opcg) =    F
 source of zmatrix                         =   user    


          -------------------
          Energy Minimization
          -------------------

 
 Names of Z-matrix variables 
    1 R1           2 R2           3 A1           4 R3           5 A2      
    6 D0           7 R5           8 A4           9 D180        10 R6      
   11 A5          12 D180        13 R7          14 A6          15 D180    
   16 R9          17 A8          18 D1          19 R10         20 A9      
   21 D2          22 R11         23 A10         24 D3      
 
 Variables with the same non-blank name are constrained to be equal
 
     variables named     D180 =     9   12   15 

 Number of frozen variables =    4
           Frozen variables =    6    9   12   15
 
 Using diagonal initial Hessian 
 Scaling for Hessian diagonals: bonds = 1.00  angles = 0.25  torsions = 0.10

          --------
          Step   0
          --------
 
 
                         Geometry "geometry" -> "geometry"
                         ---------------------------------
 
 Output coordinates in angstroms (scale by  1.889725989 to convert to a.u.)
 
  No.       Tag          Charge          X              Y              Z
 ---- ---------------- ---------- -------------- -------------- --------------
    1 O                    8.0000     0.19723378     2.82430603     0.00000000
    2 C                    6.0000    -0.21977864     1.56242583     0.00000000
    3 C                    6.0000     0.60453389     0.47694076     0.00000000
    4 H                    1.0000     1.63512508     0.61651798     0.00000000
    5 H                    1.0000    -0.62985253     3.37563555     0.00000000
    6 H                    1.0000    -1.30111020     1.47327956     0.00000000
    7 C                    6.0000     0.03209204    -0.88570165    -0.00000000
    8 F                    9.0000    -0.14011542    -1.29562485    -1.22160041
    9 F                    9.0000    -1.11548065    -0.88587695     0.61080020
   10 F                    9.0000     0.83524980    -1.70537276     0.61080020
 
      Atomic Mass 
      ----------- 
 
      O                 15.994910
      C                 12.000000
      H                  1.007825
      F                 18.998400
 

 Effective nuclear repulsion energy (a.u.)     326.5350755504

            Nuclear Dipole moment (a.u.) 
            ----------------------------
        X                 Y               Z
 ---------------- ---------------- ----------------
     0.0000000000     0.0000000000     0.0000000000
 
                      Basis "ao basis" -> "ao basis" (spherical)
                      -----
  O (Oxygen)
  ----------
            Exponent  Coefficients 
       -------------- ---------------------------------------------------------
  1 S  1.17200000E+04  0.000710
  1 S  1.75900000E+03  0.005470
  1 S  4.00800000E+02  0.027837
  1 S  1.13700000E+02  0.104800
  1 S  3.70300000E+01  0.283062
  1 S  1.32700000E+01  0.448719
  1 S  5.02500000E+00  0.270952
  1 S  1.01300000E+00  0.015458
 
  2 S  1.17200000E+04 -0.000160
  2 S  1.75900000E+03 -0.001263
  2 S  4.00800000E+02 -0.006267
  2 S  1.13700000E+02 -0.025716
  2 S  3.70300000E+01 -0.070924
  2 S  1.32700000E+01 -0.165411
  2 S  5.02500000E+00 -0.116955
  2 S  1.01300000E+00  0.557368
 
  3 S  3.02300000E-01  1.000000
 
  4 S  7.89600000E-02  1.000000
 
  5 P  1.77000000E+01  0.043018
  5 P  3.85400000E+00  0.228913
  5 P  1.04600000E+00  0.508728
 
  6 P  2.75300000E-01  1.000000
 
  7 P  6.85600000E-02  1.000000
 
  8 D  1.18500000E+00  1.000000
 
  9 D  3.32000000E-01  1.000000
 
  C (Carbon)
  ----------
            Exponent  Coefficients 
       -------------- ---------------------------------------------------------
  1 S  6.66500000E+03  0.000692
  1 S  1.00000000E+03  0.005329
  1 S  2.28000000E+02  0.027077
  1 S  6.47100000E+01  0.101718
  1 S  2.10600000E+01  0.274740
  1 S  7.49500000E+00  0.448564
  1 S  2.79700000E+00  0.285074
  1 S  5.21500000E-01  0.015204
 
  2 S  6.66500000E+03 -0.000146
  2 S  1.00000000E+03 -0.001154
  2 S  2.28000000E+02 -0.005725
  2 S  6.47100000E+01 -0.023312
  2 S  2.10600000E+01 -0.063955
  2 S  7.49500000E+00 -0.149981
  2 S  2.79700000E+00 -0.127262
  2 S  5.21500000E-01  0.544529
 
  3 S  1.59600000E-01  1.000000
 
  4 S  4.69000000E-02  1.000000
 
  5 P  9.43900000E+00  0.038109
  5 P  2.00200000E+00  0.209480
  5 P  5.45600000E-01  0.508557
 
  6 P  1.51700000E-01  1.000000
 
  7 P  4.04100000E-02  1.000000
 
  8 D  5.50000000E-01  1.000000
 
  9 D  1.51000000E-01  1.000000
 
  H (Hydrogen)
  ------------
            Exponent  Coefficients 
       -------------- ---------------------------------------------------------
  1 S  1.30100000E+01  0.019685
  1 S  1.96200000E+00  0.137977
  1 S  4.44600000E-01  0.478148
 
  2 S  1.22000000E-01  1.000000
 
  3 S  2.97400000E-02  1.000000
 
  4 P  7.27000000E-01  1.000000
 
  5 P  1.41000000E-01  1.000000
 
  F (Fluorine)
  ------------
            Exponent  Coefficients 
       -------------- ---------------------------------------------------------
  1 S  1.47100000E+04  0.000721
  1 S  2.20700000E+03  0.005553
  1 S  5.02800000E+02  0.028267
  1 S  1.42600000E+02  0.106444
  1 S  4.64700000E+01  0.286814
  1 S  1.67000000E+01  0.448641
  1 S  6.35600000E+00  0.264761
  1 S  1.31600000E+00  0.015333
 
  2 S  1.47100000E+04 -0.000165
  2 S  2.20700000E+03 -0.001308
  2 S  5.02800000E+02 -0.006495
  2 S  1.42600000E+02 -0.026691
  2 S  4.64700000E+01 -0.073690
  2 S  1.67000000E+01 -0.170776
  2 S  6.35600000E+00 -0.112327
  2 S  1.31600000E+00  0.562814
 
  3 S  3.89700000E-01  1.000000
 
  4 S  9.86300000E-02  1.000000
 
  5 P  2.26700000E+01  0.044878
  5 P  4.97700000E+00  0.235718
  5 P  1.34700000E+00  0.508521
 
  6 P  3.47100000E-01  1.000000
 
  7 P  8.50200000E-02  1.000000
 
  8 D  1.64000000E+00  1.000000
 
  9 D  4.64000000E-01  1.000000
 


 Summary of "ao basis" -> "ao basis" (spherical)
 ------------------------------------------------------------------------------
       Tag                 Description            Shells   Functions and Types
 ---------------- ------------------------------  ------  ---------------------
 O                        aug-cc-pVDZ                9       23   4s3p2d
 C                        aug-cc-pVDZ                9       23   4s3p2d
 H                        aug-cc-pVDZ                5        9   3s2p
 F                        aug-cc-pVDZ                9       23   4s3p2d


                                 NWChem SCF Module
                                 -----------------
 
 
                                   H,MeF,H Ref 2
 
 

  ao basis        = "ao basis"
  functions       =   188
  atoms           =    10
  closed shells   =    28
  open shells     =     0
  charge          =   0.00
  wavefunction    = RHF 
  input vectors   = atomic
  output vectors  = ./14R2_again_.movecs
  use symmetry    = F
  symmetry adapt  = F


 Summary of "ao basis" -> "ao basis" (spherical)
 ------------------------------------------------------------------------------
       Tag                 Description            Shells   Functions and Types
 ---------------- ------------------------------  ------  ---------------------
 O                        aug-cc-pVDZ                9       23   4s3p2d
 C                        aug-cc-pVDZ                9       23   4s3p2d
 H                        aug-cc-pVDZ                5        9   3s2p
 F                        aug-cc-pVDZ                9       23   4s3p2d



int_init: setting std/high accuracies to  1.0D-16  1.0D-32

 Forming initial guess at       0.9s


 Forcing the number of linearly dependent vectors to be  0
 
      Superposition of Atomic Density Guess
      -------------------------------------
 
 Sum of atomic energies:        -487.43163791
 
      Non-variational initial energy
      ------------------------------

 Total energy =    -490.651896
 1-e energy   =   -1322.673001
 2-e energy   =     505.486029
 HOMO         =      -0.278741
 LUMO         =       0.021103
 

 Starting SCF solution at       3.3s



 ----------------------------------------------
         Quadratically convergent ROHF

 Convergence threshold     :          1.000E-09
 Maximum no. of iterations :           99
 Final Fock-matrix accuracy:          1.000E-15
 ----------------------------------------------


              iter       energy          gnorm     gmax       time
             ----- ------------------- --------- --------- --------
                 1     -488.4146163515  1.68D+00  2.03D-01      5.8
                 2     -488.5540758417  4.10D-01  5.08D-02     11.1
                 3     -488.5687227273  2.88D-02  5.76D-03     18.1
                 4     -488.5688261716  5.52D-04  1.12D-04     29.8
                 5     -488.5688262224  1.61D-07  1.63D-08     48.7
                 6     -488.5688262224  7.68D-11  1.55D-11     66.7


       Final RHF  results 
       ------------------ 

         Total SCF energy =   -488.568826222355
      One-electron energy =  -1325.129956957200
      Two-electron energy =    510.026055184408
 Nuclear repulsion energy =    326.535075550437

        Time for solution =     63.6s


             Final eigenvalues
             -----------------

              1      
    1  -26.3469
    2  -26.3448
    3  -26.3416
    4  -20.6336
    5  -11.5005
    6  -11.3378
    7  -11.2387
    8   -1.7581
    9   -1.6525
   10   -1.6490
   11   -1.4465
   12   -1.0892
   13   -0.9665
   14   -0.8718
   15   -0.8411
   16   -0.8395
   17   -0.7913
   18   -0.7471
   19   -0.7163
   20   -0.7138
   21   -0.6726
   22   -0.6651
   23   -0.6443
   24   -0.6418
   25   -0.6103
   26   -0.5649
   27   -0.5484
   28   -0.3649
   29    0.0235
   30    0.0479
   31    0.0545
   32    0.0900
   33    0.0953
   34    0.1090
   35    0.1129
   36    0.1213
   37    0.1332
   38    0.1340
 
                       ROHF Final Molecular Orbital Analysis
                       -------------------------------------
 
 Vector   11  Occ=2.000000D+00  E=-1.446498D+00
              MO Center=  3.0D-02,  2.7D+00, -9.2D-05, r^2= 5.7D-01
   Bfn.  Coefficient  Atom+Function         Bfn.  Coefficient  Atom+Function  
  ----- ------------  ---------------      ----- ------------  ---------------
     3      0.473663   1 O  s                 2      0.415611   1 O  s         
    27     -0.215501   2 C  s                79      0.174612   5 H  s         
    32     -0.165798   2 C  py        
 
 Vector   12  Occ=2.000000D+00  E=-1.089245D+00
              MO Center=  2.0D-01,  3.5D-01,  2.4D-03, r^2= 2.0D+00
   Bfn.  Coefficient  Atom+Function         Bfn.  Coefficient  Atom+Function  
  ----- ------------  ---------------      ----- ------------  ---------------
    48      0.296400   3 C  s                25      0.192345   2 C  s         
    98      0.192096   7 C  s                26      0.168330   2 C  s         
    49      0.155076   3 C  s         
 
 Vector   13  Occ=2.000000D+00  E=-9.665050D-01
              MO Center= -4.6D-02, -3.5D-01,  1.4D-02, r^2= 3.6D+00
   Bfn.  Coefficient  Atom+Function         Bfn.  Coefficient  Atom+Function  
  ----- ------------  ---------------      ----- ------------  ---------------
    98      0.286004   7 C  s               100     -0.276794   7 C  s         
   126      0.213704   8 F  pz              147      0.194955   9 F  px        
    25     -0.189168   2 C  s                27      0.171516   2 C  s         
   170     -0.154015  10 F  px               26     -0.151673   2 C  s         
 
 Vector   14  Occ=2.000000D+00  E=-8.717708D-01
              MO Center= -5.2D-02,  1.2D-01,  1.6D-02, r^2= 3.9D+00
   Bfn.  Coefficient  Atom+Function         Bfn.  Coefficient  Atom+Function  
  ----- ------------  ---------------      ----- ------------  ---------------
    50     -0.217267   3 C  s               102      0.212415   7 C  py        
    49      0.204931   3 C  s                 6      0.200768   1 O  py        
    25     -0.199272   2 C  s               101      0.175882   7 C  px        
   126     -0.166820   8 F  pz              170      0.167013  10 F  px        
 
 Vector   15  Occ=2.000000D+00  E=-8.411058D-01
              MO Center= -7.9D-02, -1.0D+00,  2.1D-01, r^2= 2.4D+00
   Bfn.  Coefficient  Atom+Function         Bfn.  Coefficient  Atom+Function  
  ----- ------------  ---------------      ----- ------------  ---------------
   172     -0.266512  10 F  pz              101      0.253287   7 C  px        
   149      0.217596   9 F  pz              147     -0.214945   9 F  px        
   124      0.208690   8 F  px              102     -0.186777   7 C  py        
   175     -0.164254  10 F  pz              171      0.155351  10 F  py        
 
 Vector   16  Occ=2.000000D+00  E=-8.394763D-01
              MO Center= -1.1D-01, -1.2D+00, -2.3D-01, r^2= 1.8D+00
   Bfn.  Coefficient  Atom+Function         Bfn.  Coefficient  Atom+Function  
  ----- ------------  ---------------      ----- ------------  ---------------
   126     -0.325120   8 F  pz              103      0.321325   7 C  pz        
    26      0.267745   2 C  s               147      0.262777   9 F  px        
    55     -0.236943   3 C  py              170     -0.207989  10 F  px        
    99     -0.187146   7 C  s               129     -0.179316   8 F  pz        
   171      0.179674  10 F  py              122      0.173994   8 F  s         
 
 Vector   17  Occ=2.000000D+00  E=-7.913317D-01
              MO Center= -1.2D-01,  1.1D+00,  4.0D-02, r^2= 3.0D+00
   Bfn.  Coefficient  Atom+Function         Bfn.  Coefficient  Atom+Function  
  ----- ------------  ---------------      ----- ------------  ---------------
    50      0.355487   3 C  s                27     -0.303990   2 C  s         
    28     -0.274640   2 C  px               89      0.265173   6 H  s         
    88      0.262635   6 H  s                 5     -0.217339   1 O  px        
    70     -0.184185   4 H  s               148      0.174204   9 F  py        
    71     -0.172244   4 H  s                 3     -0.152489   1 O  s         
 
 Vector   18  Occ=2.000000D+00  E=-7.471392D-01
              MO Center=  3.7D-02,  1.4D+00, -3.6D-02, r^2= 4.3D+00
   Bfn.  Coefficient  Atom+Function         Bfn.  Coefficient  Atom+Function  
  ----- ------------  ---------------      ----- ------------  ---------------
     6      0.360311   1 O  py               50     -0.306202   3 C  s         
    79      0.277105   5 H  s                29     -0.249503   2 C  py        
   125     -0.200190   8 F  py                9      0.186098   1 O  py        
   171     -0.165685  10 F  py                5     -0.162281   1 O  px        
    27      0.153403   2 C  s         
 
 Vector   19  Occ=2.000000D+00  E=-7.163230D-01
              MO Center= -1.5D-01, -1.0D+00,  1.0D-01, r^2= 2.7D+00
   Bfn.  Coefficient  Atom+Function         Bfn.  Coefficient  Atom+Function  
  ----- ------------  ---------------      ----- ------------  ---------------
   171      0.347630  10 F  py              124     -0.313516   8 F  px        
   148     -0.268966   9 F  py              174      0.233202  10 F  py        
   147     -0.220457   9 F  px              127     -0.216757   8 F  px        
   151     -0.188038   9 F  py              149     -0.184343   9 F  pz        
 
 Vector   20  Occ=2.000000D+00  E=-7.138466D-01
              MO Center= -1.8D-01, -1.2D+00, -5.1D-02, r^2= 2.1D+00
   Bfn.  Coefficient  Atom+Function         Bfn.  Coefficient  Atom+Function  
  ----- ------------  ---------------      ----- ------------  ---------------
   125      0.376595   8 F  py              148     -0.280826   9 F  py        
   172      0.271815  10 F  pz              128      0.256980   8 F  py        
   149      0.252110   9 F  pz              151     -0.197408   9 F  py        
   170     -0.194229  10 F  px              175      0.184409  10 F  pz        
   152      0.168871   9 F  pz        
 
 Vector   21  Occ=2.000000D+00  E=-6.725729D-01
              MO Center=  2.0D-02, -5.1D-01,  1.3D-01, r^2= 3.8D+00
   Bfn.  Coefficient  Atom+Function         Bfn.  Coefficient  Atom+Function  
  ----- ------------  ---------------      ----- ------------  ---------------
   170      0.354360  10 F  px              148     -0.272091   9 F  py        
   147      0.247560   9 F  px              124      0.245795   8 F  px        
   173      0.236236  10 F  px              151     -0.194776   9 F  py        
   127      0.175560   8 F  px                5     -0.173218   1 O  px        
   150      0.154067   9 F  px        
 
 Vector   22  Occ=2.000000D+00  E=-6.650547D-01
              MO Center= -1.2D-01, -1.2D+00, -2.5D-01, r^2= 2.0D+00
   Bfn.  Coefficient  Atom+Function         Bfn.  Coefficient  Atom+Function  
  ----- ------------  ---------------      ----- ------------  ---------------
   126      0.371132   8 F  pz              149      0.318528   9 F  pz        
   172      0.303832  10 F  pz              125     -0.257909   8 F  py        
   129      0.239870   8 F  pz              152      0.221225   9 F  pz        
   175      0.209738  10 F  pz              128     -0.193855   8 F  py        
 
 Vector   23  Occ=2.000000D+00  E=-6.443249D-01
              MO Center= -8.9D-02, -1.3D+00, -1.1D-01, r^2= 2.0D+00
   Bfn.  Coefficient  Atom+Function         Bfn.  Coefficient  Atom+Function  
  ----- ------------  ---------------      ----- ------------  ---------------
   124      0.401793   8 F  px              172      0.361790  10 F  pz        
   149     -0.331110   9 F  pz              127      0.284215   8 F  px        
   175      0.254368  10 F  pz              152     -0.232823   9 F  pz        
   125     -0.170362   8 F  py              147     -0.159551   9 F  px        
 
 Vector   24  Occ=2.000000D+00  E=-6.418433D-01
              MO Center=  4.2D-01,  4.9D-01,  1.7D-01, r^2= 3.9D+00
   Bfn.  Coefficient  Atom+Function         Bfn.  Coefficient  Atom+Function  
  ----- ------------  ---------------      ----- ------------  ---------------
    51      0.259537   3 C  px              170     -0.248106  10 F  px        
    70      0.246555   4 H  s                29      0.242289   2 C  py        
   148      0.239016   9 F  py                5     -0.235314   1 O  px        
   171     -0.194038  10 F  py              151      0.177096   9 F  py        
   173     -0.177220  10 F  px                6     -0.168829   1 O  py        
 
 Vector   25  Occ=2.000000D+00  E=-6.102542D-01
              MO Center=  1.1D-01,  2.5D+00, -3.5D-03, r^2= 1.2D+00
   Bfn.  Coefficient  Atom+Function         Bfn.  Coefficient  Atom+Function  
  ----- ------------  ---------------      ----- ------------  ---------------
     7      0.556451   1 O  pz               10      0.409145   1 O  pz        
    30      0.222632   2 C  pz        
 
 Vector   26  Occ=2.000000D+00  E=-5.648860D-01
              MO Center=  1.5D-01, -1.4D-01, -4.2D-03, r^2= 3.0D+00
   Bfn.  Coefficient  Atom+Function         Bfn.  Coefficient  Atom+Function  
  ----- ------------  ---------------      ----- ------------  ---------------
    99      0.460037   7 C  s                52     -0.331110   3 C  py        
   105      0.309449   7 C  py              102      0.276760   7 C  py        
   171     -0.247203  10 F  py              125     -0.235592   8 F  py        
    26     -0.230215   2 C  s               148     -0.222852   9 F  py        
   174     -0.182817  10 F  py               50      0.176861   3 C  s         
 
 Vector   27  Occ=2.000000D+00  E=-5.483859D-01
              MO Center=  2.0D-02,  1.6D+00, -4.5D-03, r^2= 2.6D+00
   Bfn.  Coefficient  Atom+Function         Bfn.  Coefficient  Atom+Function  
  ----- ------------  ---------------      ----- ------------  ---------------
    89      0.362524   6 H  s                 5      0.334491   1 O  px        
    28     -0.303058   2 C  px               88      0.297413   6 H  s         
    71      0.282691   4 H  s                51      0.257809   3 C  px        
     8      0.216501   1 O  px               70      0.217437   4 H  s         
    27     -0.200332   2 C  s                50      0.160694   3 C  s         
 
 Vector   28  Occ=2.000000D+00  E=-3.648857D-01
              MO Center=  2.8D-01,  1.1D+00, -1.9D-03, r^2= 2.0D+00
   Bfn.  Coefficient  Atom+Function         Bfn.  Coefficient  Atom+Function  
  ----- ------------  ---------------      ----- ------------  ---------------
    53      0.420425   3 C  pz               30      0.302378   2 C  pz        
    56      0.303554   3 C  pz                7     -0.270726   1 O  pz        
    10     -0.219558   1 O  pz               33      0.215571   2 C  pz        
 
 Vector   29  Occ=0.000000D+00  E= 2.350541D-02
              MO Center= -1.8D+00,  3.8D+00, -4.0D-03, r^2= 1.1D+01
   Bfn.  Coefficient  Atom+Function         Bfn.  Coefficient  Atom+Function  
  ----- ------------  ---------------      ----- ------------  ---------------
    81      2.194127   5 H  s               100     -2.153018   7 C  s         
    35     -1.720196   2 C  py               90      1.523324   6 H  s         
    50     -1.115829   3 C  s                27     -1.095490   2 C  s         
     4      1.044330   1 O  s                34      0.885572   2 C  px        
    49     -0.803327   3 C  s                89      0.719528   6 H  s         
 
 Vector   30  Occ=0.000000D+00  E= 4.785979D-02
              MO Center=  3.0D+00,  6.3D-01, -3.9D-02, r^2= 1.6D+01
   Bfn.  Coefficient  Atom+Function         Bfn.  Coefficient  Atom+Function  
  ----- ------------  ---------------      ----- ------------  ---------------
    50      9.135508   3 C  s                27     -8.237675   2 C  s         
    72      6.424790   4 H  s               100     -6.167100   7 C  s         
    57     -5.157327   3 C  px               35      2.457764   2 C  py        
    90     -2.001391   6 H  s                34     -1.461520   2 C  px        
   108     -1.108547   7 C  py               71      1.043561   4 H  s         
 
 Vector   31  Occ=0.000000D+00  E= 5.445070D-02
              MO Center= -2.2D+00,  1.8D+00, -6.7D-02, r^2= 1.9D+01
   Bfn.  Coefficient  Atom+Function         Bfn.  Coefficient  Atom+Function  
  ----- ------------  ---------------      ----- ------------  ---------------
   100      7.650085   7 C  s                90     -5.241325   6 H  s         
    50     -4.679646   3 C  s                58      3.282580   3 C  py        
    81      3.148985   5 H  s                34     -2.168371   2 C  px        
    35     -1.911808   2 C  py              108      1.462808   7 C  py        
    57      1.331391   3 C  px               27      1.024032   2 C  s         
 
 Vector   32  Occ=0.000000D+00  E= 8.999810D-02
              MO Center= -4.2D-01, -1.2D+00,  6.4D-04, r^2= 2.1D+01
   Bfn.  Coefficient  Atom+Function         Bfn.  Coefficient  Atom+Function  
  ----- ------------  ---------------      ----- ------------  ---------------
    27     11.958222   2 C  s               100    -11.281856   7 C  s         
    58     -5.204912   3 C  py              108     -3.994061   7 C  py        
    35     -3.869673   2 C  py               81      2.324321   5 H  s         
    34      2.302927   2 C  px              107     -1.539238   7 C  px        
    57      1.500606   3 C  px               72     -1.433452   4 H  s         
 
 Vector   33  Occ=0.000000D+00  E= 9.532826D-02
              MO Center= -1.2D+00,  1.3D+00,  1.1D-01, r^2= 1.1D+01
   Bfn.  Coefficient  Atom+Function         Bfn.  Coefficient  Atom+Function  
  ----- ------------  ---------------      ----- ------------  ---------------
    36      2.322612   2 C  pz               59     -1.986130   3 C  pz        
    27     -1.655242   2 C  s               100      1.480552   7 C  s         
   109      1.333720   7 C  pz               58      1.189561   3 C  py        
   107      0.776645   7 C  px              146     -0.631864   9 F  s         
   123      0.608476   8 F  s                13     -0.520898   1 O  pz        
 
 Vector   34  Occ=0.000000D+00  E= 1.089582D-01
              MO Center=  5.5D-01, -4.7D-01,  9.8D-02, r^2= 1.3D+01
   Bfn.  Coefficient  Atom+Function         Bfn.  Coefficient  Atom+Function  
  ----- ------------  ---------------      ----- ------------  ---------------
    50      5.447800   3 C  s                27     -4.463362   2 C  s         
   109     -1.675034   7 C  pz               34     -1.541282   2 C  px        
   123     -1.315102   8 F  s                57     -1.249252   3 C  px        
    36      1.155491   2 C  pz               35      1.024508   2 C  py        
   100     -1.021666   7 C  s                59     -0.862475   3 C  pz        
 
 Vector   35  Occ=0.000000D+00  E= 1.128827D-01
              MO Center= -4.0D-01,  6.5D-01, -1.3D-01, r^2= 1.9D+01
   Bfn.  Coefficient  Atom+Function         Bfn.  Coefficient  Atom+Function  
  ----- ------------  ---------------      ----- ------------  ---------------
    50     16.594458   3 C  s                27    -12.238708   2 C  s         
    34     -5.818069   2 C  px               35      3.578633   2 C  py        
    57     -3.231453   3 C  px               90     -2.880825   6 H  s         
    58      2.729429   3 C  py              100     -2.710354   7 C  s         
    72      2.228602   4 H  s               107      2.037776   7 C  px        
 
 Vector   36  Occ=0.000000D+00  E= 1.213366D-01
              MO Center= -6.0D-01,  1.2D+00, -2.0D-02, r^2= 2.2D+01
   Bfn.  Coefficient  Atom+Function         Bfn.  Coefficient  Atom+Function  
  ----- ------------  ---------------      ----- ------------  ---------------
    50     20.120111   3 C  s                27    -12.061233   2 C  s         
    35      7.969889   2 C  py               34     -4.254948   2 C  px        
    57     -3.888718   3 C  px               90     -3.410763   6 H  s         
    81     -3.112941   5 H  s                72      2.918095   4 H  s         
     4     -2.637375   1 O  s                58      2.589796   3 C  py        
 
 Vector   37  Occ=0.000000D+00  E= 1.331922D-01
              MO Center=  5.6D-01,  3.9D-01, -2.6D-01, r^2= 1.6D+01
   Bfn.  Coefficient  Atom+Function         Bfn.  Coefficient  Atom+Function  
  ----- ------------  ---------------      ----- ------------  ---------------
   109      3.259462   7 C  pz               59     -2.590701   3 C  pz        
    27      1.573275   2 C  s                34      1.380570   2 C  px        
     4     -1.289233   1 O  s                50     -1.143918   3 C  s         
    90      1.068073   6 H  s                57     -1.001816   3 C  px        
   107      0.903834   7 C  px               81     -0.643215   5 H  s         
 
 Vector   38  Occ=0.000000D+00  E= 1.339622D-01
              MO Center=  7.9D-01,  4.3D-01,  2.6D-01, r^2= 1.7D+01
   Bfn.  Coefficient  Atom+Function         Bfn.  Coefficient  Atom+Function  
  ----- ------------  ---------------      ----- ------------  ---------------
    50      3.922181   3 C  s               100     -3.650499   7 C  s         
    57      3.306623   3 C  px              107     -3.321881   7 C  px        
    34     -3.110208   2 C  px               90     -2.669804   6 H  s         
     4      2.480329   1 O  s                81      1.478953   5 H  s         
    27     -1.406948   2 C  s                71     -1.307356   4 H  s         
 
 Vector   39  Occ=0.000000D+00  E= 1.562041D-01
              MO Center=  1.7D-01,  2.4D-01, -5.3D-02, r^2= 1.9D+01
   Bfn.  Coefficient  Atom+Function         Bfn.  Coefficient  Atom+Function  
  ----- ------------  ---------------      ----- ------------  ---------------
    27     13.273561   2 C  s                58     -9.987049   3 C  py        
   100     -5.383991   7 C  s               107     -3.365073   7 C  px        
    35      2.778838   2 C  py              108      2.668749   7 C  py        
    90     -2.467922   6 H  s                89     -2.127152   6 H  s         
     4     -2.097852   1 O  s                50     -1.546410   3 C  s         
 
 Vector   40  Occ=0.000000D+00  E= 1.624829D-01
              MO Center=  2.5D+00,  9.2D-01, -4.0D-02, r^2= 1.4D+01
   Bfn.  Coefficient  Atom+Function         Bfn.  Coefficient  Atom+Function  
  ----- ------------  ---------------      ----- ------------  ---------------
    27     27.565173   2 C  s                50    -26.762961   3 C  s         
    57     11.984567   3 C  px              100     11.413507   7 C  s         
    72     -9.529549   4 H  s                 4     -4.742474   1 O  s         
    35     -4.760422   2 C  py               34      4.408736   2 C  px        
    90      3.524840   6 H  s                12      1.825522   1 O  py        
 
 Vector   41  Occ=0.000000D+00  E= 1.753871D-01
              MO Center=  1.9D-01,  1.1D+00, -2.2D-01, r^2= 1.1D+01
   Bfn.  Coefficient  Atom+Function         Bfn.  Coefficient  Atom+Function  
  ----- ------------  ---------------      ----- ------------  ---------------
   100     11.012075   7 C  s                58      6.474008   3 C  py        
    50     -5.059808   3 C  s                35     -3.808276   2 C  py        
    90     -2.585640   6 H  s                34     -2.556992   2 C  px        
    59     -2.556037   3 C  pz               57      1.901578   3 C  px        
    81      1.714313   5 H  s               107      1.709290   7 C  px        
 
 Vector   42  Occ=0.000000D+00  E= 1.840628D-01
              MO Center= -3.6D-01,  9.1D-01,  8.6D-02, r^2= 1.6D+01
   Bfn.  Coefficient  Atom+Function         Bfn.  Coefficient  Atom+Function  
  ----- ------------  ---------------      ----- ------------  ---------------
   100     19.653944   7 C  s                58     11.806273   3 C  py        
    27     -6.856509   2 C  s                50     -6.202271   3 C  s         
    35     -5.294998   2 C  py               34     -5.066807   2 C  px        
    90     -5.038603   6 H  s                 4      3.187463   1 O  s         
    81      2.974362   5 H  s               107      2.736144   7 C  px        
 
 Vector   43  Occ=0.000000D+00  E= 2.020712D-01
              MO Center=  1.2D-01,  1.7D+00,  4.1D-03, r^2= 1.4D+01
   Bfn.  Coefficient  Atom+Function         Bfn.  Coefficient  Atom+Function  
  ----- ------------  ---------------      ----- ------------  ---------------
    50     28.438433   3 C  s                27    -21.128089   2 C  s         
   100     -9.830959   7 C  s                71     -5.956887   4 H  s         
    35      4.850494   2 C  py                4      4.723802   1 O  s         
    57     -4.008929   3 C  px               54      2.686901   3 C  px        
    55     -2.471530   3 C  py               32     -2.359686   2 C  py        
 
 Vector   44  Occ=0.000000D+00  E= 2.320643D-01
              MO Center= -2.2D-01,  4.2D-01, -1.4D-01, r^2= 1.6D+01
   Bfn.  Coefficient  Atom+Function         Bfn.  Coefficient  Atom+Function  
  ----- ------------  ---------------      ----- ------------  ---------------
    27     29.949992   2 C  s               100    -22.726363   7 C  s         
    58    -10.050172   3 C  py                4     -5.787680   1 O  s         
    50     -5.495487   3 C  s                89     -4.782438   6 H  s         
   108     -4.331010   7 C  py               35     -4.141441   2 C  py        
   169      3.444535  10 F  s               123      3.256403   8 F  s         
 
 Vector   45  Occ=0.000000D+00  E= 2.422794D-01
              MO Center= -3.4D-01,  2.0D+00,  2.4D-01, r^2= 1.6D+01
   Bfn.  Coefficient  Atom+Function         Bfn.  Coefficient  Atom+Function  
  ----- ------------  ---------------      ----- ------------  ---------------
    35     10.885537   2 C  py              100     10.293819   7 C  s         
     4     -5.913036   1 O  s                27     -4.323867   2 C  s         
   108      3.615413   7 C  py               80      3.386845   5 H  s         
    50      3.274064   3 C  s                12     -2.662150   1 O  py        
    58     -2.664575   3 C  py               11      2.607304   1 O  px        
 
 Vector   46  Occ=0.000000D+00  E= 2.464204D-01
              MO Center=  3.3D-02,  1.2D+00, -1.3D-01, r^2= 1.4D+01
   Bfn.  Coefficient  Atom+Function         Bfn.  Coefficient  Atom+Function  
  ----- ------------  ---------------      ----- ------------  ---------------
    27      7.643347   2 C  s               100     -4.856850   7 C  s         
    50     -4.749348   3 C  s                35     -4.529620   2 C  py        
   146      1.743180   9 F  s                57      1.716079   3 C  px        
    13      1.679627   1 O  pz               89     -1.593940   6 H  s         
    71      1.314462   4 H  s               108     -1.253435   7 C  py        
 
 Vector   47  Occ=0.000000D+00  E= 2.722097D-01
              MO Center=  2.0D-01,  3.1D-01, -1.8D-02, r^2= 1.6D+01
   Bfn.  Coefficient  Atom+Function         Bfn.  Coefficient  Atom+Function  
  ----- ------------  ---------------      ----- ------------  ---------------
    50     21.023545   3 C  s               100    -14.344677   7 C  s         
    27     -4.305999   2 C  s                 4     -3.630452   1 O  s         
    34     -3.574536   2 C  px               35      3.231294   2 C  py        
   108     -2.851028   7 C  py               57     -2.780961   3 C  px        
    58     -2.629820   3 C  py               11      2.200139   1 O  px        
 
 Vector   48  Occ=0.000000D+00  E= 2.741177D-01
              MO Center= -3.2D-01,  2.3D-01,  3.2D-01, r^2= 1.4D+01
   Bfn.  Coefficient  Atom+Function         Bfn.  Coefficient  Atom+Function  
  ----- ------------  ---------------      ----- ------------  ---------------
    50     15.253945   3 C  s               100     -9.972750   7 C  s         
    27     -2.990208   2 C  s                34     -2.702163   2 C  px        
   146      2.419059   9 F  s                 4     -2.131527   1 O  s         
   107     -1.802609   7 C  px              153      1.741566   9 F  px        
    35      1.722843   2 C  py              108     -1.675334   7 C  py        
 
 Vector   49  Occ=0.000000D+00  E= 2.841367D-01
              MO Center=  6.1D-02,  1.5D+00, -1.8D-01, r^2= 1.4D+01
   Bfn.  Coefficient  Atom+Function         Bfn.  Coefficient  Atom+Function  
  ----- ------------  ---------------      ----- ------------  ---------------
    27     22.324680   2 C  s                50    -16.736748   3 C  s         
    58     -9.101358   3 C  py              100     -8.188825   7 C  s         
    34      5.527478   2 C  px               57      3.954089   3 C  px        
    35     -3.900269   2 C  py               55     -3.038154   3 C  py        
    26      2.657815   2 C  s                32     -2.623091   2 C  py        
 
 Vector   50  Occ=0.000000D+00  E= 3.066689D-01
              MO Center=  1.1D-01,  1.9D-01, -2.4D-01, r^2= 9.6D+00
   Bfn.  Coefficient  Atom+Function         Bfn.  Coefficient  Atom+Function  
  ----- ------------  ---------------      ----- ------------  ---------------
    50     26.423318   3 C  s                27    -17.363437   2 C  s         
   100     -8.633135   7 C  s                35      5.411780   2 C  py        
    71     -5.292811   4 H  s                57     -4.492838   3 C  px        
    89      2.060502   6 H  s                54      2.023296   3 C  px        
    34     -1.518934   2 C  px               72      1.486717   4 H  s         
 
 Vector   51  Occ=0.000000D+00  E= 3.210898D-01
              MO Center= -4.9D-02, -3.1D-01,  2.6D-01, r^2= 1.2D+01
   Bfn.  Coefficient  Atom+Function         Bfn.  Coefficient  Atom+Function  
  ----- ------------  ---------------      ----- ------------  ---------------
    50     41.306116   3 C  s                27    -28.158324   2 C  s         
   100    -15.095803   7 C  s                57    -10.723460   3 C  px        
    35      8.974672   2 C  py               72      4.543682   4 H  s         
    34     -4.276157   2 C  px              108     -2.987442   7 C  py        
    89      2.270749   6 H  s                81     -1.941288   5 H  s         
 
 Vector   52  Occ=0.000000D+00  E= 3.344444D-01
              MO Center= -2.2D-01,  2.4D-01,  2.1D-01, r^2= 1.1D+01
   Bfn.  Coefficient  Atom+Function         Bfn.  Coefficient  Atom+Function  
  ----- ------------  ---------------      ----- ------------  ---------------
   100      5.475234   7 C  s                50     -4.944684   3 C  s         
    57      3.842957   3 C  px               58      3.637867   3 C  py        
    26      3.542476   2 C  s                55     -3.160048   3 C  py        
    35     -2.335415   2 C  py              105     -1.981420   7 C  py        
    27      1.844269   2 C  s                72     -1.847331   4 H  s         
 
 Vector   53  Occ=0.000000D+00  E= 3.409230D-01
              MO Center= -1.7D-01,  8.2D-01, -1.9D-01, r^2= 1.1D+01
   Bfn.  Coefficient  Atom+Function         Bfn.  Coefficient  Atom+Function  
  ----- ------------  ---------------      ----- ------------  ---------------
    50     19.429831   3 C  s                27    -14.112457   2 C  s         
    34     -6.001205   2 C  px              100     -5.523161   7 C  s         
    90     -3.630579   6 H  s                57     -3.049768   3 C  px        
    35      2.430212   2 C  py               72      2.387087   4 H  s         
    11      2.239774   1 O  px               71     -1.989572   4 H  s         
 
 Vector   54  Occ=0.000000D+00  E= 3.445282D-01
              MO Center= -1.8D-02, -1.9D-02, -3.3D-01, r^2= 1.2D+01
   Bfn.  Coefficient  Atom+Function         Bfn.  Coefficient  Atom+Function  
  ----- ------------  ---------------      ----- ------------  ---------------
    50      9.570025   3 C  s                27     -7.131966   2 C  s         
   100     -4.120912   7 C  s                57     -3.693389   3 C  px        
    72      2.041482   4 H  s                71     -2.025240   4 H  s         
    55      1.678360   3 C  py               35      1.591960   2 C  py        
   105      1.522695   7 C  py               11      1.362592   1 O  px        
 
 Vector   55  Occ=0.000000D+00  E= 3.575609D-01
              MO Center=  5.0D-01, -1.2D-01,  1.3D-01, r^2= 1.2D+01
   Bfn.  Coefficient  Atom+Function         Bfn.  Coefficient  Atom+Function  
  ----- ------------  ---------------      ----- ------------  ---------------
     4      3.715808   1 O  s                27     -2.701618   2 C  s         
    50      2.510958   3 C  s                99      2.125294   7 C  s         
    34     -1.842231   2 C  px              107      1.525721   7 C  px        
    69      1.458760   3 C  d  2             80     -1.448705   5 H  s         
    89     -1.312873   6 H  s               108      1.303449   7 C  py        
 
 Vector   56  Occ=0.000000D+00  E= 3.716386D-01
              MO Center= -3.2D-01, -2.5D-02,  2.3D-01, r^2= 1.2D+01
   Bfn.  Coefficient  Atom+Function         Bfn.  Coefficient  Atom+Function  
  ----- ------------  ---------------      ----- ------------  ---------------
    50     11.057914   3 C  s                35      5.525978   2 C  py        
   100     -4.984734   7 C  s                27     -4.815788   2 C  s         
    58     -4.703326   3 C  py              107     -3.864446   7 C  px        
   169     -1.939936  10 F  s               177     -1.871696  10 F  py        
   105     -1.798395   7 C  py               54     -1.745781   3 C  px        
 
 Vector   57  Occ=0.000000D+00  E= 3.740384D-01
              MO Center= -2.5D-01, -7.9D-01,  1.4D-01, r^2= 1.2D+01
   Bfn.  Coefficient  Atom+Function         Bfn.  Coefficient  Atom+Function  
  ----- ------------  ---------------      ----- ------------  ---------------
    50     20.339429   3 C  s                27    -15.617553   2 C  s         
    34     -4.232013   2 C  px              100     -4.211518   7 C  s         
   109      4.030233   7 C  pz               57     -3.751822   3 C  px        
    35      3.006596   2 C  py                4      2.645163   1 O  s         
    90     -2.510087   6 H  s                72      2.068800   4 H  s         
 
 Vector   58  Occ=0.000000D+00  E= 3.862388D-01
              MO Center=  9.3D-02,  4.9D-02,  2.6D-01, r^2= 1.2D+01
   Bfn.  Coefficient  Atom+Function         Bfn.  Coefficient  Atom+Function  
  ----- ------------  ---------------      ----- ------------  ---------------
    50     19.379478   3 C  s                27    -10.285895   2 C  s         
   100     -9.528470   7 C  s                57     -5.193326   3 C  px        
    35      3.403174   2 C  py               89      2.225990   6 H  s         
    58     -2.119679   3 C  py               72      2.099364   4 H  s         
   177     -2.041099  10 F  py              154     -1.794394   9 F  py        
 
 Vector   59  Occ=0.000000D+00  E= 3.937822D-01
              MO Center= -2.5D-01, -1.9D-01, -5.5D-01, r^2= 1.2D+01
   Bfn.  Coefficient  Atom+Function         Bfn.  Coefficient  Atom+Function  
  ----- ------------  ---------------      ----- ------------  ---------------
    50      9.181559   3 C  s                27     -8.318766   2 C  s         
    89      4.487626   6 H  s                26      3.601500   2 C  s         
    55     -3.582582   3 C  py              107      3.271372   7 C  px        
    71     -3.249976   4 H  s                31      3.190345   2 C  px        
    58      2.728039   3 C  py              130     -2.440819   8 F  px        
 
 Vector   60  Occ=0.000000D+00  E= 3.991332D-01
              MO Center= -9.0D-02, -5.8D-01, -5.1D-02, r^2= 1.2D+01
   Bfn.  Coefficient  Atom+Function         Bfn.  Coefficient  Atom+Function  
  ----- ------------  ---------------      ----- ------------  ---------------
    58     -5.749229   3 C  py               50      5.549756   3 C  s         
    35      5.289858   2 C  py              100     -4.016145   7 C  s         
    71     -2.587771   4 H  s               169      2.003334  10 F  s         
   178     -1.996551  10 F  pz               90      1.914345   6 H  s         
   176     -1.923313  10 F  px               34      1.607746   2 C  px        
 
 Vector   61  Occ=0.000000D+00  E= 4.100009D-01
              MO Center=  5.8D-01, -4.3D-01,  3.5D-02, r^2= 9.1D+00
   Bfn.  Coefficient  Atom+Function         Bfn.  Coefficient  Atom+Function  
  ----- ------------  ---------------      ----- ------------  ---------------
    57      4.338593   3 C  px              146      3.674341   9 F  s         
    71     -3.466685   4 H  s                49     -2.903124   3 C  s         
   107     -2.646898   7 C  px               27      2.612962   2 C  s         
    31      2.554461   2 C  px              153      2.562699   9 F  px        
   169     -2.506022  10 F  s               176      2.138021  10 F  px        
 
 Vector   62  Occ=0.000000D+00  E= 4.268335D-01
              MO Center=  8.4D-01, -2.1D-01,  1.2D-01, r^2= 1.0D+01
   Bfn.  Coefficient  Atom+Function         Bfn.  Coefficient  Atom+Function  
  ----- ------------  ---------------      ----- ------------  ---------------
   100    -19.484019   7 C  s                50     18.340472   3 C  s         
    58     -8.170954   3 C  py               57     -5.404052   3 C  px        
    27     -4.754695   2 C  s                35      4.317355   2 C  py        
    72      3.873021   4 H  s               107     -3.058456   7 C  px        
    55      2.333700   3 C  py              123      2.302654   8 F  s         
 
 Vector   63  Occ=0.000000D+00  E= 4.304902D-01
              MO Center= -3.1D-01,  9.9D-01,  3.6D-02, r^2= 9.5D+00
   Bfn.  Coefficient  Atom+Function         Bfn.  Coefficient  Atom+Function  
  ----- ------------  ---------------      ----- ------------  ---------------
    27     17.763545   2 C  s                50    -16.748176   3 C  s         
    57      4.921853   3 C  px               35     -4.394282   2 C  py        
     4     -3.829054   1 O  s                34      3.150517   2 C  px        
    72     -3.068939   4 H  s                58     -2.357209   3 C  py        
    49      2.268259   3 C  s                89     -2.141934   6 H  s         
 
 Vector   64  Occ=0.000000D+00  E= 4.478771D-01
              MO Center= -4.0D-01,  3.4D-01,  9.6D-02, r^2= 1.1D+01
   Bfn.  Coefficient  Atom+Function         Bfn.  Coefficient  Atom+Function  
  ----- ------------  ---------------      ----- ------------  ---------------
   100      8.354654   7 C  s               146     -5.686246   9 F  s         
   169     -3.169150  10 F  s                49      3.054727   3 C  s         
    35      3.002014   2 C  py               55     -2.817289   3 C  py        
    27     -2.377946   2 C  s               105     -2.388311   7 C  py        
     4     -2.339106   1 O  s               132      2.146552   8 F  pz        
 
 Vector   65  Occ=0.000000D+00  E= 4.511572D-01
              MO Center=  2.1D-01,  1.7D+00, -2.9D-02, r^2= 1.1D+01
   Bfn.  Coefficient  Atom+Function         Bfn.  Coefficient  Atom+Function  
  ----- ------------  ---------------      ----- ------------  ---------------
    27     32.701543   2 C  s                50    -15.206951   3 C  s         
     4    -14.764689   1 O  s                58     -7.378640   3 C  py        
    57      6.261521   3 C  px               32      5.103972   2 C  py        
    49      4.725642   3 C  s                80      4.637094   5 H  s         
    72     -3.841190   4 H  s                89     -3.857968   6 H  s         
 
 Vector   66  Occ=0.000000D+00  E= 4.655745D-01
              MO Center=  1.4D-01,  4.2D-01, -1.7D-01, r^2= 1.0D+01
   Bfn.  Coefficient  Atom+Function         Bfn.  Coefficient  Atom+Function  
  ----- ------------  ---------------      ----- ------------  ---------------
   100     18.396234   7 C  s                50    -10.247911   3 C  s         
    58      5.015573   3 C  py               89     -4.914858   6 H  s         
    49      4.497682   3 C  s               123     -4.244777   8 F  s         
    55      3.019533   3 C  py               32      2.826929   2 C  py        
    31     -2.566737   2 C  px               26     -2.035404   2 C  s         
 
 Vector   67  Occ=0.000000D+00  E= 4.911408D-01
              MO Center=  1.8D-01,  1.0D-02, -6.2D-01, r^2= 9.5D+00
   Bfn.  Coefficient  Atom+Function         Bfn.  Coefficient  Atom+Function  
  ----- ------------  ---------------      ----- ------------  ---------------
   123      7.396260   8 F  s                27      6.578502   2 C  s         
    50     -6.558214   3 C  s                 4     -4.829818   1 O  s         
   100     -3.707775   7 C  s                26     -3.618397   2 C  s         
    55      3.078668   3 C  py               34      2.944573   2 C  px        
   132      2.652525   8 F  pz               90      2.423795   6 H  s         
 
 Vector   68  Occ=0.000000D+00  E= 5.130432D-01
              MO Center=  2.2D-01, -4.0D-01,  3.1D-01, r^2= 8.2D+00
   Bfn.  Coefficient  Atom+Function         Bfn.  Coefficient  Atom+Function  
  ----- ------------  ---------------      ----- ------------  ---------------
    27     12.583895   2 C  s               169      6.820679  10 F  s         
   100     -6.014374   7 C  s                55      5.683230   3 C  py        
    89     -5.373417   6 H  s                50     -5.326769   3 C  s         
    99      5.113499   7 C  s               105      4.971907   7 C  py        
    26     -3.566646   2 C  s                65     -3.334298   3 C  d -2      
 

 center of mass
 --------------
 x =  -0.00214517 y =  -0.15719428 z =  -0.00000000

 moments of inertia (a.u.)
 ------------------
        1167.326932525393           0.000000000000          -0.000000000000
           0.000000000000         322.088632632806          -0.000000000000
          -0.000000000000          -0.000000000000        1185.680948711612
 
  Mulliken analysis of the total density
  --------------------------------------

    Atom       Charge   Shell Charges
 -----------   ------   -------------------------------------------------------
    1 O    8     8.77   2.00  0.82  1.00  0.23  2.83  1.76  0.09  0.02  0.01
    2 C    6     5.11   2.01  0.67  0.51 -0.29  1.91  0.20  0.06  0.15 -0.10
    3 C    6     5.99   2.01  0.65  0.17 -0.08  2.08  0.85  0.17  0.07  0.07
    4 H    1     1.39   0.79  0.57  0.02  0.03 -0.03
    5 H    1     0.74   0.69 -0.02 -0.00  0.08 -0.01
    6 H    1     1.41   0.78  0.61  0.02  0.03 -0.03
    7 C    6     3.82   2.01  0.68 -0.41 -0.14  1.80 -0.28 -0.01  0.35 -0.16
    8 F    9     9.57   2.00  0.89  1.08  0.14  3.34  2.03  0.07  0.01  0.01
    9 F    9     9.60   2.00  0.88  1.08  0.14  3.34  2.05  0.08  0.01  0.01
   10 F    9     9.60   2.00  0.89  1.08  0.14  3.34  2.04  0.08  0.01  0.01
 
       Multipole analysis of the density wrt the origin
       ------------------------------------------------
 
     L   x y z        total         open         nuclear
     -   - - -        -----         ----         -------
     0   0 0 0     -0.000000      0.000000     56.000000
 
     1   1 0 0     -0.595252      0.000000      0.000000
     1   0 1 0      1.126053      0.000000      0.000000
     1   0 0 1     -0.006109      0.000000      0.000000
 
     2   2 0 0    -26.901171      0.000000     90.052788
     2   1 1 0     -4.778518      0.000000     -4.898638
     2   1 0 1     -0.028101      0.000000      0.000000
     2   0 2 0    -25.741667      0.000000    524.315614
     2   0 1 1     -0.033225      0.000000      0.000000
     2   0 0 2    -30.674338      0.000000     71.943204
 
                   NWChem MP2 Semi-direct Energy/Gradient Module
                   ---------------------------------------------
 
 
                                   H,MeF,H Ref 2
 
 

int_init: setting std/high accuracies to  1.0D-16  1.0D-32
  Basis functions       =    188
  Molecular orbitals    =    188
  Frozen core           =      7
  Frozen virtuals       =      0
  Active alpha occupied =     21
  Active beta occupied  =     21
  Active alpha virtual  =    160
  Active beta virtual   =    160
  Use MO symmetry       = F
  Use skeleton AO sym   = F

  AO/Fock/Back tols     =   1.0D-15  1.0D-15  1.0D-15

 GA uses MA = F    GA memory limited = T

 Available: 
  local mem=  3.77D+08
 global mem=  1.23D+08
 local disk=  0.00D+00

int_init: setting std/high accuracies to  1.0D-16  1.0D-32
  mp2_memr nvloc                     15
  nvloc new                     15
   1 passes of  21:        5242880                     281643                  24534516.
   1 passes of  21: M    376603118           G      122956137           F     371360238.
 
 Semi-direct pass number   1 of   1  for RHF alpha+beta  at       67.3s

int_init: setting std/high accuracies to  1.0D-16  1.0D-32
  vrange nnbf                  17437
  mp2_eaftype                     71  avail_ma_in_mb                   3283
 EAF : mp2_eaftype filesize          71    9367719.
  mp2_eaf for mointskh                      71
Node 0 wrote     43.9 Mb in      0.1 s     Agg I/O rate:  4207.7 Mb/s
 Done moints_semi at       74.8s
  mp2_eaftype                     71  avail_ma_in_mb                   3212
 EAF : mp2_eaftype filesize          71    9367719.
  mp2_eaf for kh                     71
  mp2_eaftype                     16  avail_ma_in_mb                   3212
 EAF : mp2_eaftype filesize          16    2116800.
  mp2_eaf for ta tb                     16
  mp2_eaf for ta                      16
  mp2_eaf for tb                      16
 Done maket at       75.3s
 Done pijab at       75.4s
 Done wijab at       75.5s
 Done lai at       77.6s

int_init: setting std/high accuracies to  1.0D-16  1.0D-32
  mp2_eaftype                     81  avail_ma_in_mb                   3179
 EAF : mp2_eaftype filesize          81   10731848.
  mp2_eaf for 2pdm                      81
 Done nonsep at      106.2s
 Done multipass loop at      106.2s


          -------------------------------------------
          SCF energy                -488.568826222355
          Correlation energy          -1.203264119667
          Singlet pairs               -0.713369458238
          Triplet pairs               -0.489894661428
          Total MP2 energy          -489.772090342022
          -------------------------------------------



          ---------------------------------------------------
                    Spin Component Scaled (SCS) MP2
          Same spin pairs                     -0.326596440952
          Same spin scaling factor             0.333333333333
          Opposite spin pairs                 -0.876667678715
          Opposite spin scaling fact.          1.200000000000
          SCS-MP2 correlation energy          -1.160866694775
          Total SCS-MP2 energy              -489.729692917130
          ---------------------------------------------------


int_init: setting std/high accuracies to  1.0D-16  1.0D-32
                                NWChem CPHF Module
                                ------------------
 
 

int_init: setting std/high accuracies to  1.0D-16  1.0D-32
    scftype = RHF 
    nclosed =   28
      nopen =    0
  variables =     4480
  tolerance =   1.0D-06
  max. iter =  999

 SCF residual:   7.447735329798068E-011

            ----- linear solve (tol: 1.0E-06 prod-acc: 3.1E-14) -----

               iter nbas    rnorm     rnorm-scal   ratio     time
               ---- ---- ----------- ----------- --------- -------
                  1    1  8.3807E-02  3.9894E-01    0.0000   113.4
                  2    2  1.5006E-02  7.1434E-02    0.1791   115.9
                  3    3  4.7846E-03  2.2776E-02    0.3188   118.4
                  4    4  1.6167E-03  7.6958E-03    0.3379   120.9
                  5    5  4.0591E-04  1.9322E-03    0.2511   123.5
                  6    6  1.1055E-04  5.2626E-04    0.2724   125.9
                  7    7  3.9333E-05  1.8723E-04    0.3558   128.4
                  8    8  1.0781E-05  5.1319E-05    0.2741   130.7
                  9    9  3.8017E-06  1.8097E-05    0.3526   133.0
                 10   10  1.3090E-06  6.2310E-06    0.3443   135.3
                 11   11  4.1828E-07  1.9911E-06    0.3195   137.5
                 12   12  1.0612E-07  5.0516E-07    0.2537   139.7

 CPHF converged to   5.1D-07 in   12 iters


int_init: setting std/high accuracies to  1.0D-16  1.0D-32
                Dipole Moments (a.u.)
                --------------
         Nuclear       SCF       SCF+MP2
       ----------- ----------- -----------
 X       0.000000   -0.595252   -0.532307
 Y       0.000000    1.126053    1.056739
 Z       0.000000   -0.006109   -0.004088
 

 MP2 RHF      natural orbital occupation numbers


              1      
    1    2.0000
    2    2.0000
    3    2.0000
    4    2.0000
    5    2.0000
    6    2.0000
    7    2.0000
    8    1.9904
    9    1.9892
   10    1.9892
   11    1.9863
   12    1.9816
   13    1.9761
   14    1.9755
   15    1.9755
   16    1.9744
   17    1.9733
   18    1.9729
   19    1.9717
   20    1.9701
   21    1.9661
   22    1.9650
   23    1.9628
   24    1.9624
   25    1.9621
   26    1.9610
   27    1.9561
   28    1.9321
   29    0.0526
   30    0.0335
   31    0.0322
   32    0.0296
   33    0.0286
   34    0.0252
   35    0.0237
   36    0.0208
   37    0.0177
   38    0.0173
   39    0.0163
   40    0.0161
   41    0.0145
   42    0.0143
   43    0.0140
   44    0.0136
   45    0.0121
   46    0.0115
   47    0.0100
   48    0.0094
   49    0.0089
   50    0.0087
   51    0.0084
   52    0.0077
   53    0.0074
   54    0.0072
   55    0.0062
   56    0.0062
   57    0.0057
   58    0.0057
   59    0.0056
   60    0.0055
   61    0.0055
   62    0.0051
   63    0.0050
   64    0.0049
   65    0.0048
   66    0.0047
   67    0.0046
   68    0.0045
   69    0.0044
   70    0.0043
   71    0.0041
   72    0.0040
   73    0.0040
   74    0.0037
   75    0.0034
   76    0.0029
   77    0.0027
   78    0.0025
   79    0.0019
   80    0.0017
   81    0.0016
   82    0.0016
   83    0.0015
   84    0.0014
   85    0.0014
   86    0.0013
   87    0.0012
   88    0.0011
   89    0.0010
   90    0.0010
   91    0.0009
   92    0.0009
   93    0.0008
   94    0.0008
   95    0.0007
   96    0.0006
   97    0.0006
   98    0.0006
   99    0.0006
  100    0.0006
  101    0.0005
  102    0.0005
  103    0.0005
  104    0.0005
  105    0.0005
  106    0.0004
  107    0.0004
  108    0.0004
  109    0.0004
  110    0.0004
  111    0.0004
  112    0.0003
  113    0.0003
  114    0.0003
  115    0.0003
  116    0.0003
  117    0.0003
  118    0.0003
  119    0.0003
  120    0.0003
  121    0.0003
  122    0.0003
  123    0.0002
  124    0.0002
  125    0.0002
  126    0.0002
  127    0.0002
  128    0.0002
  129    0.0002
  130    0.0002
  131    0.0001
  132    0.0001
  133    0.0001
  134    0.0001
  135    0.0001
  136    0.0001
  137    0.0001
  138    0.0001
  139    0.0001
  140    0.0001
  141    0.0001
  142    0.0001
  143    0.0001
  144    0.0001
  145    0.0001
  146    0.0001
  147    0.0001
  148    0.0001
  149    0.0001
  150    0.0000
  151    0.0000
  152    0.0000
  153    0.0000
  154    0.0000
  155    0.0000
  156    0.0000
  157    0.0000
  158    0.0000
  159    0.0000
  160    0.0000
  161    0.0000
  162    0.0000
  163    0.0000
  164    0.0000
  165    0.0000
  166    0.0000
  167    0.0000
  168    0.0000
  169    0.0000
  170    0.0000
  171    0.0000
  172    0.0000
  173    0.0000
  174    0.0000
  175    0.0000
  176    0.0000
  177   -0.0000
  178   -0.0000
  179   -0.0000
  180   -0.0000
  181   -0.0000
  182   -0.0000
  183   -0.0000
  184   -0.0001
  185   -0.0001
  186   -0.0001
  187   -0.0002
  188   -0.0002
 
  MP2 natural orbitals output to ./14R2_again_.mp2nos
 

int_init: setting std/high accuracies to  1.0D-16  1.0D-32

int_init: setting std/high accuracies to  1.0D-16  1.0D-32


                         mp2 ENERGY GRADIENTS

    atom               coordinates                        gradient
                 x          y          z           x          y          z
   1 O       0.372718   5.337165   0.000000    0.009249  -0.045089   0.000965
   2 C      -0.415321   2.952557   0.000000    0.002840   0.041498  -0.000671
   3 C       1.142403   0.901287   0.000000    0.038999  -0.033242  -0.003420
   4 H       3.089938   1.165050   0.000000   -0.042053  -0.001993   0.001566
   5 H      -1.190249   6.379026   0.000000   -0.026004   0.007678  -0.000050
   6 H      -2.458742   2.784095   0.000000    0.006954   0.009473  -0.000730
   7 C       0.060645  -1.673733  -0.000000   -0.028188  -0.066860  -0.002569
   8 F      -0.264780  -2.448376  -2.308490    0.012323   0.031801   0.058256
   9 F      -2.107953  -1.674065   1.154245    0.060024   0.011536  -0.026525
  10 F       1.578393  -3.222687   1.154245   -0.034144   0.045197  -0.026822
 
                 ----------------------------------------
                 |  Time  |  1-e(secs)   |  2-e(secs)   |
                 ----------------------------------------
                 |  CPU   |       0.01   |      11.41   |
                 ----------------------------------------
                 |  WALL  |       0.01   |      11.41   |
                 ----------------------------------------
 -----------------------
 Performance information
 -----------------------

 Timer overhead =  1.00D-07 seconds/call

               Nr. of calls         CPU time (s)                 Wall time (s)                GFlops
             ---------------    -------------------     ------------------------------   -------------------
Name         Min   Avg   Max    Min     Avg     Max     Min     Avg     Max   Mx/calls   Min     Max     Sum
mp2: moin     1     1     1    7.0     7.0     7.1      7.5     7.5     7.5     7.5      0.0     0.0     0.0   
mp2: make     1     1     1   0.53    0.53    0.53     0.54    0.54    0.54    0.54      0.0     0.0     0.0   
mp2: pija     1     1     1   0.11    0.11    0.11     0.11    0.11    0.11    0.11      0.0     0.0     0.0   
mp2: wija     1     1     1   0.11    0.11    0.11     0.11    0.11    0.11    0.11      0.0     0.0     0.0   
mp2: lai      1     1     1    2.0     2.0     2.0      2.0     2.0     2.0     2.0      0.0     0.0     0.0   
mp2: back     1     1     1    1.1     1.1     1.1      1.1     1.1     1.1     1.1      0.0     0.0     0.0   
mp2: nons     1     1     1    23.     25.     27.      23.     25.     27.     27.      0.0     0.0     0.0   
mp2: laif     1     1     1    2.9     2.9     2.9      2.9     2.9     2.9     2.9      0.0     0.0     0.0   
mp2: cphf     1     1     1    32.     32.     32.      32.     32.     32.     32.      0.0     0.0     0.0   
mp2: wijf     1     1     1    2.8     2.9     2.9      2.9     2.9     2.9     2.9      0.0     0.0     0.0   
mp2: sep      1     1     1    11.     11.     11.      11.     11.     11.     11.      0.0     0.0     0.0   
mp2: tota     1     1     1    87.     87.     87.      88.     88.     88.     88.      0.0     0.0     0.0   

 The average no. of pstat calls per process was 1.20D+01
 with a timing overhead of 1.20D-06s


@ Step       Energy      Delta E   Gmax     Grms     Xrms     Xmax   Walltime
@ ---- ---------------- -------- -------- -------- -------- -------- --------
@    0    -489.77209034  0.0D+00  0.06640  0.02776  0.00000  0.00000    155.3
                                                                    

  Internal coordinate gradient before constraints


                                Z-matrix (user)
                                -------- 

 Units are Angstrom for bonds and degrees for angles

  Constants are marked with an asterisk (*).

  Constrained variables are marked with a plus sign (+).

 
      Type          Name      I     J     K     L     M      Value     Gradient
      ----------- --------  ----- ----- ----- ----- ----- ---------- ----------
    1 Stretch      R1          2     1                       1.32900   -0.04078
    2 Stretch      R2          3     2                       1.36300    0.01501
    3 Bend         A1          3     2     1               124.50000    0.01353
    4 Stretch      R3          4     3                       1.04000   -0.04194
    5 Bend         A2          4     3     2               119.50000   -0.00382
    6*Torsion      D0          4     3     2     1           0.00000    0.00209
    7 Stretch      R5          5     1                       0.99400    0.02590
    8 Bend         A4          5     1     2               105.40000   -0.00799
    9*Torsion      D180        5     1     2     3         180.00000   -0.00005
   10 Stretch      R6          6     2                       1.08500   -0.00771
   11 Bend         A5          6     2     3               122.50000    0.00962
   12*Torsion      D180        6     2     3     4         180.00000   -0.00067
   13 Stretch      R7          7     3                       1.47800   -0.02386
   14 Bend         A6          7     3     2               120.00000   -0.00410
   15*Torsion      D180        7     3     2     1         180.00000   -0.00310
   16 Stretch      R9          8     7                       1.30000   -0.06640
   17 Bend         A8          8     7     3               110.00000   -0.01574
   18 Torsion      D1          8     7     3     2          90.00000   -0.00117
   19 Stretch      R10         9     7                       1.30000   -0.06545
   20 Bend         A9          9     7     3               110.00000   -0.01591
   21 Torsion      D2          9     7     3     2         -30.00000   -0.00301
   22 Stretch      R11        10     7                       1.30000   -0.06219
   23 Bend         A10        10     7     3               110.00000   -0.00992
   24 Torsion      D3         10     7     3     2        -150.00000    0.00154
 
  Internal coordinate gradient after constraints


                                Z-matrix (user)
                                -------- 

 Units are Angstrom for bonds and degrees for angles

  Constants are marked with an asterisk (*).

  Constrained variables are marked with a plus sign (+).

 
      Type          Name      I     J     K     L     M      Value     Gradient
      ----------- --------  ----- ----- ----- ----- ----- ---------- ----------
    1 Stretch      R1          2     1                       1.32900   -0.04078
    2 Stretch      R2          3     2                       1.36300    0.01501
    3 Bend         A1          3     2     1               124.50000    0.01353
    4 Stretch      R3          4     3                       1.04000   -0.04194
    5 Bend         A2          4     3     2               119.50000   -0.00382
    6*Torsion      D0          4     3     2     1           0.00000    0.00000
    7 Stretch      R5          5     1                       0.99400    0.02590
    8 Bend         A4          5     1     2               105.40000   -0.00799
    9*Torsion      D180        5     1     2     3         180.00000    0.00000
   10 Stretch      R6          6     2                       1.08500   -0.00771
   11 Bend         A5          6     2     3               122.50000    0.00962
   12*Torsion      D180        6     2     3     4         180.00000   -0.00000
   13 Stretch      R7          7     3                       1.47800   -0.02386
   14 Bend         A6          7     3     2               120.00000   -0.00410
   15*Torsion      D180        7     3     2     1         180.00000    0.00000
   16 Stretch      R9          8     7                       1.30000   -0.06640
   17 Bend         A8          8     7     3               110.00000   -0.01574
   18 Torsion      D1          8     7     3     2          90.00000   -0.00117
   19 Stretch      R10         9     7                       1.30000   -0.06545
   20 Bend         A9          9     7     3               110.00000   -0.01591
   21 Torsion      D2          9     7     3     2         -30.00000   -0.00301
   22 Stretch      R11        10     7                       1.30000   -0.06219
   23 Bend         A10        10     7     3               110.00000   -0.00992
   24 Torsion      D3         10     7     3     2        -150.00000    0.00154
 
                                 NWChem SCF Module
                                 -----------------
 
 
                                   H,MeF,H Ref 2
 
 

  ao basis        = "ao basis"
  functions       =   188
  atoms           =    10
  closed shells   =    28
  open shells     =     0
  charge          =   0.00
  wavefunction    = RHF 
  input vectors   = ./14R2_again_.movecs
  output vectors  = ./14R2_again_.movecs
  use symmetry    = F
  symmetry adapt  = F


 Summary of "ao basis" -> "ao basis" (spherical)
 ------------------------------------------------------------------------------
[...]
          13    -0.05041    -0.03755     0.18601    -0.19858    -0.00710    -0.16719
          14     0.00172     0.00128     0.10474     0.00679     0.10854    -0.02299
          15    -0.20824    -0.15510    -0.04416    -0.82033     0.00262     0.04028
          16    -0.06576    -0.09428    -0.04860     0.03431    -0.02461     0.13354
          17     0.00225     0.00322     0.16874    -0.00117     0.13882    -0.05295
          18    -0.27165    -0.38947     0.01316     0.14171     0.00711    -0.03276
          19     0.00918    -0.00504    -0.04295     0.00261     0.00924    -0.01347
          20    -0.00031     0.00017    -0.00816    -0.00009    -0.01926    -0.00750
          21     0.03793    -0.02080     0.01033     0.01078    -0.00240     0.00320
          22    -0.01871    -0.03689     0.02600     0.02962     0.03067    -0.04543
          23     0.08958    -0.05928     0.03653     0.03234    -0.10781     0.00443
          24    -0.02220     0.01156    -0.00854    -0.00631     0.04842    -0.01048
          25     0.01015     0.00243    -0.03403     0.00703     0.00778    -0.00717
          26    -0.00035    -0.00008    -0.14065    -0.00024     0.02424    -0.11370
          27     0.04194     0.01004     0.00707     0.02906    -0.00168     0.00079
          28     0.00615     0.03832     0.02717    -0.02935     0.00472    -0.03559
          29    -0.08915     0.05923     0.03649    -0.03235    -0.10692     0.00410
          30    -0.02969    -0.00566    -0.00373     0.00743    -0.05876     0.03016

                   13          14          15          16          17          18
 
 P.Frequency      414.90      543.74      569.78      676.51      817.25      867.86
 
           1     0.00589     0.01873     0.00546    -0.00787     0.00644     0.00513
           2    -0.00020     0.00238    -0.00019     0.06014    -0.00022    -0.03164
           3     0.02433    -0.00451     0.02254     0.00240     0.02659    -0.00150
           4    -0.02213    -0.06549    -0.01647     0.02171    -0.02855    -0.03826
           5     0.00076     0.02514     0.00056     0.01696     0.00098     0.00823
           6    -0.09143     0.01606    -0.06802    -0.00512    -0.11793     0.00933
           7    -0.02601    -0.01925    -0.01940    -0.06469     0.03678     0.11044
           8     0.00089     0.04622     0.00066    -0.07508    -0.00126     0.12008
           9    -0.10744     0.00504    -0.08015     0.01504     0.15193    -0.02574
          10    -0.02616    -0.03440    -0.05081    -0.05567    -0.15491     0.09296
          11     0.00089     0.19689     0.00174    -0.14695     0.00529     0.31841
          12    -0.10806     0.00996    -0.20990     0.01226    -0.63993    -0.01987
          13     0.08696     0.07344     0.03041    -0.06096     0.01741     0.09188
          14    -0.00297     0.06951    -0.00104    -0.00295    -0.00060     0.07276
          15     0.35924    -0.01720     0.12562     0.01473     0.07191    -0.02164
          16    -0.02650    -0.07065     0.00343     0.01547     0.05173    -0.02961
          17     0.00090     0.07038    -0.00012     0.06677    -0.00177    -0.06273
          18    -0.10948     0.01768     0.01416    -0.00319     0.21370     0.00665
          19    -0.00051     0.07992     0.01881    -0.02209     0.00045     0.03783
          20     0.00002    -0.01318    -0.00064    -0.09417    -0.00002     0.02821
          21    -0.00210    -0.01946     0.07771     0.00457     0.00184    -0.00893
          22     0.07928    -0.08651    -0.04975     0.02143     0.00120     0.00837
          23     0.04715    -0.01684     0.07935    -0.00690    -0.02155    -0.03477
          24    -0.02310    -0.06064     0.07547    -0.11803    -0.01546    -0.05570
          25     0.02592     0.12473    -0.02163    -0.04136     0.00051    -0.12319
          26    -0.00089    -0.02166     0.00074     0.06553    -0.00002    -0.01928
          27     0.10706    -0.03037    -0.08934     0.01055     0.00210     0.02966
          28    -0.08125    -0.04927     0.07846     0.07301    -0.00805     0.03278
          29    -0.04709    -0.01811    -0.08033    -0.00866     0.02178    -0.03560
          30     0.01498     0.09322     0.04311     0.09504    -0.01286     0.04515

                   19          20          21          22          23          24
 
 P.Frequency      949.69     1089.71     1114.54     1160.30     1234.79     1291.57
 
           1    -0.00288     0.02811    -0.00031     0.01396    -0.05123    -0.06652
           2     0.00010     0.07402     0.00001     0.07943    -0.06747    -0.05731
           3    -0.01189    -0.00619    -0.00128    -0.00272     0.01184     0.01563
           4     0.02465    -0.02913    -0.00121    -0.11601     0.02460     0.05697
           5    -0.00084    -0.06378     0.00004    -0.06975     0.10073     0.06060
           6     0.10183     0.00652    -0.00501     0.02751    -0.00512    -0.01329
           7     0.00318     0.00829     0.00652     0.07651    -0.02821     0.04243
           8    -0.00011    -0.05475    -0.00022    -0.01959     0.00690     0.00299
           9     0.01315    -0.00246     0.02695    -0.01868     0.00689    -0.01025
          10    -0.11077    -0.03060    -0.00119     0.11796     0.03132     0.01398
          11     0.00378     0.35622     0.00003    -0.36655    -0.50934     0.33571
          12    -0.45758     0.01035    -0.00491    -0.03159    -0.01180    -0.00061
          13     0.00270    -0.05147    -0.00378     0.31164     0.20053     0.30525
          14    -0.00009    -0.01611     0.00013     0.44846     0.22683     0.37645
          15     0.01113     0.01233    -0.01562    -0.07173    -0.04667    -0.07078
          16    -0.18723    -0.03716     0.01202    -0.09962     0.03213     0.05078
          17     0.00640     0.00160    -0.00041    -0.30173     0.05508     0.15523
          18    -0.77342     0.00901     0.04965     0.02162    -0.00732    -0.01101
          19    -0.00207     0.13517    -0.05956    -0.04142     0.16006    -0.10149
          20     0.00007    -0.14441     0.00204    -0.01191    -0.02469    -0.13292
          21    -0.00855    -0.03392    -0.24603     0.00993    -0.03895     0.02347
          22    -0.00129    -0.01102    -0.00139     0.00350    -0.01187     0.00583
          23     0.00167     0.04025     0.03462     0.00278     0.00831     0.01788
          24     0.00466     0.04315     0.06632     0.00112     0.01250     0.01089
          25    -0.00017    -0.04916     0.00411     0.01574    -0.04158     0.03158
          26     0.00001     0.00451    -0.00014     0.00314    -0.00030     0.01009
          27    -0.00069     0.01194     0.01697    -0.00379     0.01006    -0.00756
          28     0.00327    -0.02938     0.03144     0.00261    -0.01624     0.00027
          29    -0.00173     0.04088    -0.03565     0.00281     0.00846     0.01807
          30     0.00353    -0.03269     0.05779    -0.00255    -0.00555    -0.01208

                   25          26          27          28          29          30
 
 P.Frequency     1348.73     1401.65     1753.94     3236.34     3262.06     3840.62
 
           1    -0.00124    -0.03972     0.01133    -0.00175    -0.00020     0.04355
           2    -0.00139     0.02420    -0.02064    -0.00025     0.00021    -0.04116
           3     0.00029     0.00982    -0.00291     0.00042     0.00005    -0.01088
           4    -0.07397     0.04127    -0.08256     0.08204     0.00341     0.00297
           5    -0.01266    -0.06327     0.17673     0.00321    -0.00543     0.00084
           6     0.01780    -0.01051     0.02145    -0.01983    -0.00087    -0.00071
           7     0.10132    -0.02232     0.07671    -0.00336    -0.08142    -0.00021
           8    -0.01190    -0.13477    -0.16472     0.00546    -0.00647     0.00087
           9    -0.02463     0.00429    -0.01993     0.00086     0.01966     0.00006
          10     0.13409    -0.07508     0.06667    -0.00459     0.92037    -0.00146
          11    -0.22963     0.26357     0.15462    -0.00031     0.10610     0.00035
          12    -0.03436     0.02036    -0.01486     0.00111    -0.22192     0.00036
          13    -0.12210     0.22725    -0.09016     0.01309     0.00032    -0.71133
          14    -0.14957     0.34330    -0.13646    -0.00272     0.00273     0.62900
          15     0.02832    -0.05217     0.02070    -0.00319    -0.00006     0.17740
          16    -0.16358     0.00753    -0.07471    -0.92084     0.00186    -0.01023
          17     0.80052     0.30372    -0.23142    -0.09609     0.00043     0.00473
          18     0.04622     0.00069     0.01617     0.22212    -0.00045     0.00252
          19    -0.01744     0.04524    -0.00383     0.00077     0.00011    -0.00015
          20    -0.02110     0.15297     0.03064    -0.00035     0.00292    -0.00056
          21     0.00405    -0.00969     0.00118    -0.00019    -0.00000     0.00003
          22     0.00141    -0.00106     0.00127    -0.00005    -0.00001     0.00000
          23     0.00467    -0.01413     0.00220    -0.00008    -0.00023     0.00011
          24     0.00317    -0.01008     0.00077    -0.00003    -0.00018     0.00005
          25     0.00161    -0.01812    -0.00027    -0.00024     0.00037     0.00005
          26    -0.00173    -0.01179    -0.00267     0.00038     0.00017     0.00006
          27    -0.00040     0.00429     0.00004     0.00006    -0.00009    -0.00001
          28    -0.00018     0.00361     0.00079    -0.00003     0.00007    -0.00002
          29     0.00472    -0.01429     0.00222    -0.00009    -0.00024     0.00011
          30    -0.00339     0.00923    -0.00123     0.00005     0.00016    -0.00004



 ----------------------------------------------------------------------------
 Normal Eigenvalue ||    Projected Derivative Dipole Moments (debye/angs)
  Mode   [cm**-1]  ||      [d/dqX]             [d/dqY]           [d/dqZ]
 ------ ---------- || ------------------ ------------------ -----------------
    1       -0.000 ||       0.136               0.051            -0.021
    2       -0.000 ||      -0.029              -0.018             0.077
    3       -0.000 ||       0.084               0.035            -0.048
    4        0.000 ||      -0.020               0.005            -0.128
    5        0.000 ||      -0.065              -0.015            -0.092
    6        0.000 ||      -0.039              -0.003            -0.114
    7       82.194 ||      -0.064               0.002            -0.265
    8      187.923 ||      -0.146               0.005            -0.604
    9      198.763 ||      -0.079               0.216             0.021
   10      352.538 ||      -0.348               0.012            -1.438
   11      394.395 ||      -0.099               0.314             0.027
   12      404.652 ||       0.121              -0.247            -0.031
   13      414.900 ||       0.095              -0.003             0.390
   14      543.743 ||       0.086               0.263            -0.019
   15      569.784 ||       0.033              -0.001             0.137
   16      676.512 ||      -0.269              -0.749             0.059
   17      817.247 ||      -0.091               0.003            -0.376
   18      867.858 ||       0.545               0.908            -0.124
   19      949.690 ||      -0.260               0.009            -1.076
   20     1089.709 ||       1.376              -2.669            -0.355
   21     1114.539 ||      -0.614               0.021            -2.537
   22     1160.296 ||      -0.085              -0.689             0.015
   23     1234.795 ||       1.607               1.303            -0.378
   24     1291.574 ||      -0.373               0.151             0.091
   25     1348.735 ||      -0.291              -0.446             0.067
   26     1401.647 ||       0.487               2.249            -0.099
   27     1753.939 ||      -0.376               2.050             0.108
   28     3236.339 ||       0.132               0.175            -0.030
   29     3262.056 ||       0.191              -0.107            -0.047
   30     3840.624 ||      -0.815               1.528             0.210
 ----------------------------------------------------------------------------



  
  
 ----------------------------------------------------------------------------
 Normal Eigenvalue ||           Projected Infra Red Intensities
  Mode   [cm**-1]  || [atomic units] [(debye/angs)**2] [(KM/mol)] [arbitrary]
 ------ ---------- || -------------- ----------------- ---------- -----------
    1       -0.000 ||    0.000926           0.021         0.903       0.158
    2       -0.000 ||    0.000310           0.007         0.302       0.053
    3       -0.000 ||    0.000456           0.011         0.444       0.078
    4        0.000 ||    0.000733           0.017         0.715       0.125
    5        0.000 ||    0.000561           0.013         0.547       0.096
    6        0.000 ||    0.000626           0.014         0.610       0.107
    7       82.194 ||    0.003225           0.074         3.143       0.551
    8      187.923 ||    0.016719           0.386        16.298       2.857
    9      198.763 ||    0.002312           0.053         2.253       0.395
   10      352.538 ||    0.094909           2.190        92.522      16.217
   11      394.395 ||    0.004732           0.109         4.613       0.808
   12      404.652 ||    0.003315           0.076         3.232       0.566
   13      414.900 ||    0.006995           0.161         6.819       1.195
   14      543.743 ||    0.003339           0.077         3.255       0.571
   15      569.784 ||    0.000861           0.020         0.839       0.147
   16      676.512 ||    0.027612           0.637        26.918       4.718
   17      817.247 ||    0.006482           0.150         6.319       1.108
   18      867.858 ||    0.049323           1.138        48.082       8.428
   19      949.690 ||    0.053092           1.225        51.757       9.072
   20     1089.709 ||    0.396388           9.145       386.419      67.729
   21     1114.539 ||    0.295303           6.813       287.876      50.457
   22     1160.296 ||    0.020918           0.483        20.392       3.574
   23     1234.795 ||    0.191770           4.424       186.947      32.767
   24     1291.574 ||    0.007374           0.170         7.189       1.260
   25     1348.735 ||    0.012486           0.288        12.172       2.133
   26     1401.647 ||    0.229932           5.305       224.149      39.287
   27     1753.939 ||    0.188873           4.357       184.123      32.272
   28     3236.339 ||    0.002122           0.049         2.068       0.363
   29     3262.056 ||    0.002173           0.050         2.118       0.371
   30     3840.624 ||    0.131909           3.043       128.591      22.539
 ----------------------------------------------------------------------------



 vib:animation  F

 Task  times  cpu:     7474.5s     wall:     7522.6s
 
 
                                NWChem Input Module
                                -------------------
 
 
 Summary of allocated global arrays
-----------------------------------
  No active global arrays



                         GA Statistics for process    0
                         ------------------------------

       create   destroy   get      put      acc     scatter   gather  read&inc
calls: 6.61e+04 6.61e+04 1.62e+07 1.68e+06 5.25e+06    0        0     9.04e+04 
number of processes/call -4.92e+11 3.38e+12 1.27e+12 0.00e+00 0.00e+00
bytes total:             1.25e+10 2.05e+10 3.65e+09 0.00e+00 0.00e+00 7.23e+05
bytes remote:            6.26e+09 1.40e+10 2.48e+09 0.00e+00 0.00e+00 0.00e+00
Max memory consumed for GA by this process: 175582184 bytes
 
MA_summarize_allocated_blocks: starting scan ...
MA_summarize_allocated_blocks: scan completed: 0 heap blocks, 0 stack blocks
MA usage statistics:

	allocation statistics:
					      heap	     stack
					      ----	     -----
	current number of blocks	         0	         0
	maximum number of blocks	        22	        39
	current total bytes		         0	         0
	maximum total bytes		 120631960	  26339608
	maximum total K-bytes		    120632	     26340
	maximum total M-bytes		       121	        27
 
 
                                     CITATION
                                     --------
                Please cite the following reference when publishing
                           results obtained with NWChem:
 
          E. Apr, E. J. Bylaska, W. A. de Jong, N. Govind, K. Kowalski,
       T. P. Straatsma, M. Valiev, H. J. J. van Dam, Y. Alexeev, J. Anchell,
       V. Anisimov, F. W. Aquino, R. Atta-Fynn, J. Autschbach, N. P. Bauman,
     J. C. Becca, D. E. Bernholdt, K. Bhaskaran-Nair, S. Bogatko, P. Borowski,
        J. Boschen, J. Brabec, A. Bruner, E. Caut, Y. Chen, G. N. Chuev,
      C. J. Cramer, J. Daily, M. J. O. Deegan, T. H. Dunning Jr., M. Dupuis,
   K. G. Dyall, G. I. Fann, S. A. Fischer, A. Fonari, H. Frchtl, L. Gagliardi,
      J. Garza, N. Gawande, S. Ghosh, K. Glaesemann, A. W. Gtz, J. Hammond,
       V. Helms, E. D. Hermes, K. Hirao, S. Hirata, M. Jacquelin, L. Jensen,
   B. G. Johnson, H. Jnsson, R. A. Kendall, M. Klemm, R. Kobayashi, V. Konkov,
      S. Krishnamoorthy, M. Krishnan, Z. Lin, R. D. Lins, R. J. Littlefield,
      A. J. Logsdail, K. Lopata, W. Ma, A. V. Marenich, J. Martin del Campo,
   D. Mejia-Rodriguez, J. E. Moore, J. M. Mullin, T. Nakajima, D. R. Nascimento,
    J. A. Nichols, P. J. Nichols, J. Nieplocha, A. Otero-de-la-Roza, B. Palmer,
    A. Panyala, T. Pirojsirikul, B. Peng, R. Peverati, J. Pittner, L. Pollack,
   R. M. Richard, P. Sadayappan, G. C. Schatz, W. A. Shelton, D. W. Silverstein,
   D. M. A. Smith, T. A. Soares, D. Song, M. Swart, H. L. Taylor, G. S. Thomas,
            V. Tipparaju, D. G. Truhlar, K. Tsemekhman, T. Van Voorhis,
     . Vzquez-Mayagoitia, P. Verma, O. Villa, A. Vishnu, K. D. Vogiatzis,
        D. Wang, J. H. Weare, M. J. Williamson, T. L. Windus, K. Woliski,
        A. T. Wong, Q. Wu, C. Yang, Q. Yu, M. Zacharias, Z. Zhang, Y. Zhao,
                                and R. J. Harrison
                        "NWChem: Past, present, and future
                         J. Chem. Phys. 152, 184102 (2020)
                               doi:10.1063/5.0004997
 
                                      AUTHORS
                                      -------
     E. Apra, E. J. Bylaska, N. Govind, K. Kowalski, M. Valiev, W. A. de Jong,
      T. P. Straatsma, H. J. J. van Dam, D. Wang, T. L. Windus, N. P. Bauman,
       A. Panyala, J. Hammond, J. Autschbach, K. Bhaskaran-Nair, J. Brabec,
    K. Lopata, S. A. Fischer, S. Krishnamoorthy, M. Jacquelin, W. Ma, M. Klemm,
       O. Villa, Y. Chen, V. Anisimov, F. Aquino, S. Hirata, M. T. Hackler,
           Eric Hermes, L. Jensen, J. E. Moore, J. C. Becca, V. Konjkov,
            D. Mejia-Rodriguez, T. Risthaus, M. Malagoli, A. Marenich,
   A. Otero-de-la-Roza, J. Mullin, P. Nichols, R. Peverati, J. Pittner, Y. Zhao,
        P.-D. Fan, A. Fonari, M. J. Williamson, R. J. Harrison, J. R. Rehr,
      M. Dupuis, D. Silverstein, D. M. A. Smith, J. Nieplocha, V. Tipparaju,
      M. Krishnan, B. E. Van Kuiken, A. Vazquez-Mayagoitia, M. Swart, Q. Wu,
   T. Van Voorhis, A. A. Auer, M. Nooijen, L. D. Crosby, E. Brown, G. Cisneros,
     G. I. Fann, H. Fruchtl, J. Garza, K. Hirao, R. A. Kendall, J. A. Nichols,
       K. Tsemekhman, K. Wolinski, J. Anchell, D. E. Bernholdt, P. Borowski,
       T. Clark, D. Clerc, H. Dachsel, M. J. O. Deegan, K. Dyall, D. Elwood,
      E. Glendening, M. Gutowski, A. C. Hess, J. Jaffe, B. G. Johnson, J. Ju,
        R. Kobayashi, R. Kutteh, Z. Lin, R. Littlefield, X. Long, B. Meng,
      T. Nakajima, S. Niu, L. Pollack, M. Rosing, K. Glaesemann, G. Sandrone,
      M. Stave, H. Taylor, G. Thomas, J. H. van Lenthe, A. T. Wong, Z. Zhang.

 Total times  cpu:    10132.6s     wall:    10206.8s
