 argument  1 = 1C.nw
 


============================== echo of input deck ==============================
echo
start 1C
title "H,H,H Chelate"
charge 0

geometry
 zmatrix
  O
  C  1  R1
  C  2  R2  1  A1
  C  3  R3  2  A2  1  D0
  O  4  R4  3  A3  2  D0
  H  1  R5  2  A4  3  D0
  H  2  R6  3  A5  4  D180
  H  3  R7  2  A6  1  D180
  H  4  R8  3  A7  2  D180
  variables
    R1  1.329
    R2  1.363
    A1  124.5
    R3  1.440
    A2  119.5
    R4  1.249
    A3  123.5
    R5  0.994
    A4  105.4
    R6  1.085
    A5  122.5
    R7  1.078
    A6  120.0
    R8  1.099
    A7  117.6
  constants
    D0  0.000
    D180 180.0
 end
end

basis spherical
 * library aug-cc-pVDZ
end

set lindep:n_dep 0

set cphf:maxsub 95
set cphf:maxiter 999
set int:acc_std 1d-16
set fock:densityscreen f

scf
 maxiter 99
 vectors input atomic
 thresh 1d-9
 tol2e 1d-15
end

mp2
 freeze atomic
 tight
end

driver
 clear
 maxiter 99
 tight
end

set "mp2:aotol2e fock" 1d-15
set mp2:aotol2e 1d-15
set mp2:backtol 1d-15


task mp2 optimize
task mp2 frequencies


================================================================================


                                         
                                         
 
 
             Northwest Computational Chemistry Package (NWChem) 7.0.0
             --------------------------------------------------------
 
 
                    Environmental Molecular Sciences Laboratory
                       Pacific Northwest National Laboratory
                                Richland, WA 99352
 
                              Copyright (c) 1994-2020
                       Pacific Northwest National Laboratory
                            Battelle Memorial Institute
 
             NWChem is an open-source computational chemistry package
                        distributed under the terms of the
                      Educational Community License (ECL) 2.0
             A copy of the license is included with this distribution
                              in the LICENSE.TXT file
 
                                  ACKNOWLEDGMENT
                                  --------------

            This software and its documentation were developed at the
            EMSL at Pacific Northwest National Laboratory, a multiprogram
            national laboratory, operated for the U.S. Department of Energy
            by Battelle under Contract Number DE-AC05-76RL01830. Support
            for this work was provided by the Department of Energy Office
            of Biological and Environmental Research, Office of Basic
            Energy Sciences, and the Office of Advanced Scientific Computing.


           Job information
           ---------------

    hostname        = compute-0-8.local
    program         = /scratch/nwchem.277679
    date            = Wed Mar 24 12:29:18 2021

    compiled        = Thu_Jun_25_16:07:03_2020
    source          = /home/edo/nwchem-7.0.1
    nwchem branch   = 7.0.1
    nwchem revision = de46fdf
    ga revision     = 5.7.1
    use scalapack   = T
    input           = 1C.nw
    prefix          = 1C.
    data base       = ./1C.db
    status          = startup
    nproc           =       11
    time left       =     -1s



           Memory information
           ------------------

    heap     =   13107198 doubles =    100.0 Mbytes
    stack    =   13107195 doubles =    100.0 Mbytes
    global   =   26214400 doubles =    200.0 Mbytes (distinct from heap & stack)
    total    =   52428793 doubles =    400.0 Mbytes
    verify   = yes
    hardfail = no 


           Directory information
           ---------------------
 
  0 permanent = .
  0 scratch   = /scratch
 
 
 
 
                                NWChem Input Module
                                -------------------
 
 
                                   H,H,H Chelate
                                   -------------

 Scaling coordinates for geometry "geometry" by  1.889725989
 (inverse scale =  0.529177249)

 CS  symmetry detected
 
 
                             Geometry "geometry" -> ""
                             -------------------------
 
 Output coordinates in angstroms (scale by  1.889725989 to convert to a.u.)
 
  No.       Tag          Charge          X              Y              Z
 ---- ---------------- ---------- -------------- -------------- --------------
    1 O                    8.0000    -0.89103911    -1.29826318     0.00000000
    2 C                    6.0000     0.43288767    -1.18225073     0.00000000
    3 C                    6.0000     1.10389748     0.00413658     0.00000000
    4 C                    6.0000     0.36207254     1.23835526     0.00000000
    5 O                    8.0000    -0.88574619     1.29266390     0.00000000
    6 H                    1.0000    -1.23764812    -0.36665264     0.00000000
    7 H                    1.0000     0.94239635    -2.14017865     0.00000000
    8 H                    1.0000     2.18185513     0.01369235     0.00000000
    9 H                    1.0000     0.93453284     2.17648650     0.00000000
 
      Atomic Mass 
      ----------- 
 
      O                 15.994910
      C                 12.000000
      H                  1.007825
 

 Effective nuclear repulsion energy (a.u.)     164.6569998414

            Nuclear Dipole moment (a.u.) 
            ----------------------------
        X                 Y               Z
 ---------------- ---------------- ----------------
     0.0000000000    -0.0000000000     0.0000000000
 
      Symmetry information
      --------------------
 
 Group name             Cs        
 Group number              2
 Group order               2
 No. of unique centers     9
 
      Symmetry unique atoms
 
     1    2    3    4    5    6    7    8    9
 


                                Z-matrix (user)
                                -------- 

 Units are Angstrom for bonds and degrees for angles

  Constants are marked with an asterisk (*).

  Constrained variables are marked with a plus sign (+).

 
      Type          Name      I     J     K     L     M      Value
      ----------- --------  ----- ----- ----- ----- ----- ----------
    1 Stretch      R1          2     1                       1.32900
    2 Stretch      R2          3     2                       1.36300
    3 Bend         A1          3     2     1               124.50000
    4 Stretch      R3          4     3                       1.44000
    5 Bend         A2          4     3     2               119.50000
    6*Torsion      D0          4     3     2     1           0.00000
    7 Stretch      R4          5     4                       1.24900
    8 Bend         A3          5     4     3               123.50000
    9*Torsion      D0          5     4     3     2           0.00000
   10 Stretch      R5          6     1                       0.99400
   11 Bend         A4          6     1     2               105.40000
   12*Torsion      D0          6     1     2     3           0.00000
   13 Stretch      R6          7     2                       1.08500
   14 Bend         A5          7     2     3               122.50000
   15*Torsion      D180        7     2     3     4         180.00000
   16 Stretch      R7          8     3                       1.07800
   17 Bend         A6          8     3     2               120.00000
   18*Torsion      D180        8     3     2     1         180.00000
   19 Stretch      R8          9     4                       1.09900
   20 Bend         A7          9     4     3               117.60000
   21*Torsion      D180        9     4     3     2         180.00000
 
 
            XYZ format geometry
            -------------------
     9
 geometry
 O                    -0.89103911    -1.29826318     0.00000000
 C                     0.43288767    -1.18225073     0.00000000
 C                     1.10389748     0.00413658     0.00000000
 C                     0.36207254     1.23835526     0.00000000
 O                    -0.88574619     1.29266390     0.00000000
 H                    -1.23764812    -0.36665264     0.00000000
 H                     0.94239635    -2.14017865     0.00000000
 H                     2.18185513     0.01369235     0.00000000
 H                     0.93453284     2.17648650     0.00000000
 
 ==============================================================================
                                internuclear distances
 ------------------------------------------------------------------------------
       center one      |      center two      | atomic units |  angstroms
 ------------------------------------------------------------------------------
    2 C                |   1 O                |     2.51145  |     1.32900
    3 C                |   2 C                |     2.57570  |     1.36300
    4 C                |   3 C                |     2.72121  |     1.44000
    5 O                |   4 C                |     2.36027  |     1.24900
    6 H                |   1 O                |     1.87839  |     0.99400
    7 H                |   2 C                |     2.05035  |     1.08500
    8 H                |   3 C                |     2.03712  |     1.07800
    9 H                |   4 C                |     2.07681  |     1.09900
 ------------------------------------------------------------------------------
                         number of included internuclear distances:          8
 ==============================================================================



 ==============================================================================
                                 internuclear angles
 ------------------------------------------------------------------------------
        center 1       |       center 2       |       center 3       |  degrees
 ------------------------------------------------------------------------------
    2 C                |   1 O                |   6 H                |   105.40
    1 O                |   2 C                |   3 C                |   124.50
    1 O                |   2 C                |   7 H                |   113.00
    3 C                |   2 C                |   7 H                |   122.50
    2 C                |   3 C                |   4 C                |   119.50
    2 C                |   3 C                |   8 H                |   120.00
    4 C                |   3 C                |   8 H                |   120.50
    3 C                |   4 C                |   5 O                |   123.50
    3 C                |   4 C                |   9 H                |   117.60
    5 O                |   4 C                |   9 H                |   118.90
 ------------------------------------------------------------------------------
                            number of included internuclear angles:         10
 ==============================================================================





 Summary of "ao basis" -> "" (spherical)
 ------------------------------------------------------------------------------
       Tag                 Description            Shells   Functions and Types
 ---------------- ------------------------------  ------  ---------------------
 *                        aug-cc-pVDZ                 on all atoms 


 
  Deleted DRIVER restart files 
 
 
 
                           NWChem Geometry Optimization
                           ----------------------------
 
 
 
 
                                   H,H,H Chelate
 
 
 maximum gradient threshold         (gmax) =   0.000015
 rms gradient threshold             (grms) =   0.000010
 maximum cartesian step threshold   (xmax) =   0.000060
 rms cartesian step threshold       (xrms) =   0.000040
 fixed trust radius                (trust) =   0.300000
 maximum step size to saddle      (sadstp) =   0.100000
 energy precision                  (eprec) =   1.0D-07
 maximum number of steps          (nptopt) =   99
 initial hessian option           (inhess) =    0
 line search option               (linopt) =    1
 hessian update option            (modupd) =    1
 saddle point option              (modsad) =    0
 initial eigen-mode to follow     (moddir) =    0
 initial variable to follow       (vardir) =    0
 follow first negative mode     (firstneg) =    T
 apply conjugacy                    (opcg) =    F
 source of zmatrix                         =   user    


          -------------------
          Energy Minimization
          -------------------

 
 Names of Z-matrix variables 
    1 R1           2 R2           3 A1           4 R3           5 A2      
    6 D0           7 R4           8 A3           9 D0          10 R5      
   11 A4          12 D0          13 R6          14 A5          15 D180    
   16 R7          17 A6          18 D180        19 R8          20 A7      
   21 D180    
 
 Variables with the same non-blank name are constrained to be equal
 
     variables named       D0 =     6    9   12 
     variables named     D180 =    15   18   21 

 Number of frozen variables =    6
           Frozen variables =    6    9   12   15   18   21
 
 Using diagonal initial Hessian 
 Scaling for Hessian diagonals: bonds = 1.00  angles = 0.25  torsions = 0.10

          --------
          Step   0
          --------
 
 
                         Geometry "geometry" -> "geometry"
                         ---------------------------------
 
 Output coordinates in angstroms (scale by  1.889725989 to convert to a.u.)
 
  No.       Tag          Charge          X              Y              Z
 ---- ---------------- ---------- -------------- -------------- --------------
    1 O                    8.0000    -0.89103911    -1.29826318     0.00000000
    2 C                    6.0000     0.43288767    -1.18225073     0.00000000
    3 C                    6.0000     1.10389748     0.00413658     0.00000000
    4 C                    6.0000     0.36207254     1.23835526     0.00000000
    5 O                    8.0000    -0.88574619     1.29266390     0.00000000
    6 H                    1.0000    -1.23764812    -0.36665264     0.00000000
    7 H                    1.0000     0.94239635    -2.14017865     0.00000000
    8 H                    1.0000     2.18185513     0.01369235     0.00000000
    9 H                    1.0000     0.93453284     2.17648650     0.00000000
 
      Atomic Mass 
      ----------- 
 
      O                 15.994910
      C                 12.000000
      H                  1.007825
 

 Effective nuclear repulsion energy (a.u.)     164.6569998414

            Nuclear Dipole moment (a.u.) 
            ----------------------------
        X                 Y               Z
 ---------------- ---------------- ----------------
     0.0000000000    -0.0000000000     0.0000000000
 
      Symmetry information
      --------------------
 
 Group name             Cs        
 Group number              2
 Group order               2
 No. of unique centers     9
 
      Symmetry unique atoms
 
     1    2    3    4    5    6    7    8    9
 
                      Basis "ao basis" -> "ao basis" (spherical)
                      -----
  O (Oxygen)
  ----------
            Exponent  Coefficients 
       -------------- ---------------------------------------------------------
  1 S  1.17200000E+04  0.000710
  1 S  1.75900000E+03  0.005470
  1 S  4.00800000E+02  0.027837
  1 S  1.13700000E+02  0.104800
  1 S  3.70300000E+01  0.283062
  1 S  1.32700000E+01  0.448719
  1 S  5.02500000E+00  0.270952
  1 S  1.01300000E+00  0.015458
 
  2 S  1.17200000E+04 -0.000160
  2 S  1.75900000E+03 -0.001263
  2 S  4.00800000E+02 -0.006267
  2 S  1.13700000E+02 -0.025716
  2 S  3.70300000E+01 -0.070924
  2 S  1.32700000E+01 -0.165411
  2 S  5.02500000E+00 -0.116955
  2 S  1.01300000E+00  0.557368
 
  3 S  3.02300000E-01  1.000000
 
  4 S  7.89600000E-02  1.000000
 
  5 P  1.77000000E+01  0.043018
  5 P  3.85400000E+00  0.228913
  5 P  1.04600000E+00  0.508728
 
  6 P  2.75300000E-01  1.000000
 
  7 P  6.85600000E-02  1.000000
 
  8 D  1.18500000E+00  1.000000
 
  9 D  3.32000000E-01  1.000000
 
  C (Carbon)
  ----------
            Exponent  Coefficients 
       -------------- ---------------------------------------------------------
  1 S  6.66500000E+03  0.000692
  1 S  1.00000000E+03  0.005329
  1 S  2.28000000E+02  0.027077
  1 S  6.47100000E+01  0.101718
  1 S  2.10600000E+01  0.274740
  1 S  7.49500000E+00  0.448564
  1 S  2.79700000E+00  0.285074
  1 S  5.21500000E-01  0.015204
 
  2 S  6.66500000E+03 -0.000146
  2 S  1.00000000E+03 -0.001154
  2 S  2.28000000E+02 -0.005725
  2 S  6.47100000E+01 -0.023312
  2 S  2.10600000E+01 -0.063955
  2 S  7.49500000E+00 -0.149981
  2 S  2.79700000E+00 -0.127262
  2 S  5.21500000E-01  0.544529
 
  3 S  1.59600000E-01  1.000000
 
  4 S  4.69000000E-02  1.000000
 
  5 P  9.43900000E+00  0.038109
  5 P  2.00200000E+00  0.209480
  5 P  5.45600000E-01  0.508557
 
  6 P  1.51700000E-01  1.000000
 
  7 P  4.04100000E-02  1.000000
 
  8 D  5.50000000E-01  1.000000
 
  9 D  1.51000000E-01  1.000000
 
  H (Hydrogen)
  ------------
            Exponent  Coefficients 
       -------------- ---------------------------------------------------------
  1 S  1.30100000E+01  0.019685
  1 S  1.96200000E+00  0.137977
  1 S  4.44600000E-01  0.478148
 
  2 S  1.22000000E-01  1.000000
 
  3 S  2.97400000E-02  1.000000
 
  4 P  7.27000000E-01  1.000000
 
  5 P  1.41000000E-01  1.000000
 


 Summary of "ao basis" -> "ao basis" (spherical)
 ------------------------------------------------------------------------------
       Tag                 Description            Shells   Functions and Types
 ---------------- ------------------------------  ------  ---------------------
 O                        aug-cc-pVDZ                9       23   4s3p2d
 C                        aug-cc-pVDZ                9       23   4s3p2d
 H                        aug-cc-pVDZ                5        9   3s2p


                                 NWChem SCF Module
                                 -----------------
 
 
                                   H,H,H Chelate
 
 

  ao basis        = "ao basis"
  functions       =   151
  atoms           =     9
  closed shells   =    19
  open shells     =     0
  charge          =   0.00
  wavefunction    = RHF 
  input vectors   = atomic
  output vectors  = ./1C.movecs
  use symmetry    = T
  symmetry adapt  = T


 Summary of "ao basis" -> "ao basis" (spherical)
 ------------------------------------------------------------------------------
       Tag                 Description            Shells   Functions and Types
 ---------------- ------------------------------  ------  ---------------------
 O                        aug-cc-pVDZ                9       23   4s3p2d
 C                        aug-cc-pVDZ                9       23   4s3p2d
 H                        aug-cc-pVDZ                5        9   3s2p


      Symmetry analysis of basis
      --------------------------
 
        a'        108
        a"         43
 

int_init: setting std/high accuracies to  1.0D-16  1.0D-32

 Forming initial guess at       0.2s


 Forcing the number of linearly dependent vectors to be  0
 
      Superposition of Atomic Density Guess
      -------------------------------------
 
 Sum of atomic energies:        -264.53203373
 
      Non-variational initial energy
      ------------------------------

 Total energy =    -267.105008
 1-e energy   =    -685.743597
 2-e energy   =     253.981589
 HOMO         =      -0.308549
 LUMO         =      -0.067954
 
 
      Symmetry analysis of molecular orbitals - initial
      -------------------------------------------------
 
  Numbering of irreducible representations: 
 
     1 a'          2 a"      
 
  Orbital symmetries:
 
     1 a'          2 a'          3 a'          4 a'          5 a'      
     6 a'          7 a'          8 a'          9 a'         10 a'      
    11 a'         12 a'         13 a'         14 a"         15 a'      
    16 a"         17 a'         18 a'         19 a"         20 a"      
    21 a'         22 a'         23 a'         24 a'         25 a"      
    26 a'         27 a"         28 a'         29 a'      
 

 Starting SCF solution at       1.2s



 ----------------------------------------------
         Quadratically convergent ROHF

 Convergence threshold     :          1.000E-09
 Maximum no. of iterations :           99
 Final Fock-matrix accuracy:          1.000E-15
 ----------------------------------------------

 Warning: symmetry breaking in RHF:   3.592269379697352E-014

              iter       energy          gnorm     gmax       time
             ----- ------------------- --------- --------- --------
                 1     -265.5590807567  1.33D+00  2.54D-01      1.9
 Warning: symmetry breaking in RHF:   7.689043827162130E-014
 Warning: symmetry breaking in RHF:   5.319407874690990E-014
                 2     -265.6549714891  4.35D-01  6.57D-02      3.9
 Warning: symmetry breaking in RHF:   5.625694387922042E-014
                 3     -265.6724135767  3.80D-02  1.02D-02      6.4
 Warning: symmetry breaking in RHF:   4.865376865036122E-014
                 4     -265.6727304338  1.18D-03  3.03D-04     10.7
 Warning: symmetry breaking in RHF:   4.866643461836108E-014
                 5     -265.6727306991  6.35D-07  1.02D-07     18.3
 Warning: symmetry breaking in RHF:   4.866643731528209E-014
                 6     -265.6727306991  7.21D-11  1.69D-11     26.5


       Final RHF  results 
       ------------------ 

         Total SCF energy =   -265.672730699089
      One-electron energy =   -688.770806208604
      Two-electron energy =    258.441075668162
 Nuclear repulsion energy =    164.656999841353

        Time for solution =     25.6s


 
       Symmetry analysis of molecular orbitals - final
       -----------------------------------------------
 
  Numbering of irreducible representations: 
 
     1 a'          2 a"      
 
  Orbital symmetries:
 
     1 a'          2 a'          3 a'          4 a'          5 a'      
     6 a'          7 a'          8 a'          9 a'         10 a'      
    11 a'         12 a'         13 a'         14 a'         15 a"      
    16 a'         17 a"         18 a'         19 a"         20 a'      
    21 a'         22 a'         23 a"         24 a'         25 a"      
    26 a'         27 a'         28 a"         29 a'      
 
             Final eigenvalues
             -----------------

              1      
    1  -20.6157
    2  -20.5707
    3  -11.3570
    4  -11.3561
    5  -11.2419
    6   -1.4397
    7   -1.3847
    8   -1.0727
    9   -0.9071
   10   -0.8267
   11   -0.7211
   12   -0.6769
   13   -0.6463
   14   -0.6186
   15   -0.6029
   16   -0.5641
   17   -0.5359
   18   -0.4385
   19   -0.3678
   20    0.0296
   21    0.0406
   22    0.0556
   23    0.0620
   24    0.0676
   25    0.0988
   26    0.1087
   27    0.1272
   28    0.1375
   29    0.1385
 
                       ROHF Final Molecular Orbital Analysis
                       -------------------------------------
 
 Vector    6  Occ=2.000000D+00  E=-1.439719D+00  Symmetry=a'
              MO Center= -6.5D-01, -9.5D-01,  5.7D-34, r^2= 1.0D+00
   Bfn.  Coefficient  Atom+Function         Bfn.  Coefficient  Atom+Function  
  ----- ------------  ---------------      ----- ------------  ---------------
     3      0.443476  1 O  s                  2      0.390375  1 O  s          
   116      0.162589  6 H  s                 49     -0.157712  3 C  s          
    25      0.152275  2 C  s          
 
 Vector    7  Occ=2.000000D+00  E=-1.384665D+00  Symmetry=a'
              MO Center= -5.6D-01,  1.0D+00,  2.1D-34, r^2= 1.1D+00
   Bfn.  Coefficient  Atom+Function         Bfn.  Coefficient  Atom+Function  
  ----- ------------  ---------------      ----- ------------  ---------------
    95      0.439947  5 O  s                 94      0.381705  5 O  s          
    72      0.217717  4 C  s                 71      0.201567  4 C  s          
    27      0.175024  2 C  s                 26     -0.164983  2 C  s          
    55     -0.164106  3 C  py                 3     -0.161705  1 O  s          
    74     -0.162235  4 C  px         
 
 Vector    8  Occ=2.000000D+00  E=-1.072696D+00  Symmetry=a'
              MO Center=  7.0D-01, -1.8D-01, -5.6D-19, r^2= 1.6D+00
   Bfn.  Coefficient  Atom+Function         Bfn.  Coefficient  Atom+Function  
  ----- ------------  ---------------      ----- ------------  ---------------
    50      0.361072  3 C  s                 48     -0.310319  3 C  s          
    49     -0.232416  3 C  s                 25     -0.220960  2 C  s          
    27     -0.210671  2 C  s                 73     -0.191946  4 C  s          
    26     -0.154541  2 C  s          
 
 Vector    9  Occ=2.000000D+00  E=-9.071156D-01  Symmetry=a'
              MO Center=  3.6D-01, -1.7D-01,  1.6D-30, r^2= 2.9D+00
   Bfn.  Coefficient  Atom+Function         Bfn.  Coefficient  Atom+Function  
  ----- ------------  ---------------      ----- ------------  ---------------
    26      0.335158  2 C  s                 72     -0.279622  4 C  s          
    25      0.262459  2 C  s                 71     -0.221353  4 C  s          
    52     -0.207473  3 C  py               125      0.191566  7 H  s          
     5      0.172279  1 O  px                95      0.160818  5 O  s          
    55      0.151786  3 C  py         
 
 Vector   10  Occ=2.000000D+00  E=-8.267312D-01  Symmetry=a'
              MO Center= -9.0D-02,  7.9D-03, -9.4D-17, r^2= 3.1D+00
   Bfn.  Coefficient  Atom+Function         Bfn.  Coefficient  Atom+Function  
  ----- ------------  ---------------      ----- ------------  ---------------
     6      0.224471  1 O  py               116      0.218376  6 H  s          
    29      0.211131  2 C  py               143     -0.203284  9 H  s          
    71     -0.200045  4 C  s                  5     -0.197202  1 O  px         
 
 Vector   11  Occ=2.000000D+00  E=-7.211163D-01  Symmetry=a'
              MO Center=  3.8D-01, -2.8D-01, -1.7D-30, r^2= 3.1D+00
   Bfn.  Coefficient  Atom+Function         Bfn.  Coefficient  Atom+Function  
  ----- ------------  ---------------      ----- ------------  ---------------
    51     -0.261353  3 C  px                 5      0.246975  1 O  px         
   134     -0.246261  8 H  s                135     -0.233175  8 H  s          
    28     -0.199309  2 C  px                75     -0.156808  4 C  py         
     8      0.150181  1 O  px         
 
 Vector   12  Occ=2.000000D+00  E=-6.768731D-01  Symmetry=a'
              MO Center=  8.8D-02,  1.9D-01,  5.5D-31, r^2= 3.0D+00
   Bfn.  Coefficient  Atom+Function         Bfn.  Coefficient  Atom+Function  
  ----- ------------  ---------------      ----- ------------  ---------------
    75      0.252887  4 C  py                 6      0.233305  1 O  py         
    52     -0.228304  3 C  py                50      0.220816  3 C  s          
    97      0.212570  5 O  px                28      0.208126  2 C  px         
   135     -0.199478  8 H  s                  5     -0.180357  1 O  px         
   144      0.178348  9 H  s                116      0.176618  6 H  s          
 
 Vector   13  Occ=2.000000D+00  E=-6.462585D-01  Symmetry=a'
              MO Center= -3.4D-01,  3.6D-01,  3.3D-16, r^2= 3.3D+00
   Bfn.  Coefficient  Atom+Function         Bfn.  Coefficient  Atom+Function  
  ----- ------------  ---------------      ----- ------------  ---------------
    97      0.293781  5 O  px                74     -0.229967  4 C  px         
     5     -0.222146  1 O  px                75     -0.215530  4 C  py         
   143     -0.203705  9 H  s                  6     -0.197801  1 O  py         
   144     -0.191473  9 H  s                 98     -0.174291  5 O  py         
    95     -0.166245  5 O  s                 28      0.162765  2 C  px         
 
 Vector   14  Occ=2.000000D+00  E=-6.186040D-01  Symmetry=a'
              MO Center=  2.8D-01, -2.8D-01, -1.6D-32, r^2= 3.3D+00
   Bfn.  Coefficient  Atom+Function         Bfn.  Coefficient  Atom+Function  
  ----- ------------  ---------------      ----- ------------  ---------------
    50      0.293588  3 C  s                126      0.285590  7 H  s          
   125      0.274890  7 H  s                 29     -0.252217  2 C  py         
   135     -0.252216  8 H  s                 74      0.239268  4 C  px         
    97     -0.235764  5 O  px                98     -0.191751  5 O  py         
    27     -0.170162  2 C  s                 52      0.168258  3 C  py         
 
 Vector   15  Occ=2.000000D+00  E=-6.028927D-01  Symmetry=a"
              MO Center= -4.4D-01, -8.5D-01,  2.9D-18, r^2= 1.8D+00
   Bfn.  Coefficient  Atom+Function         Bfn.  Coefficient  Atom+Function  
  ----- ------------  ---------------      ----- ------------  ---------------
     7      0.481615  1 O  pz                10      0.358272  1 O  pz         
    30      0.235078  2 C  pz                99      0.152644  5 O  pz         
 
 Vector   16  Occ=2.000000D+00  E=-5.640567D-01  Symmetry=a'
              MO Center=  1.5D-01, -4.4D-01,  5.5D-20, r^2= 3.2D+00
   Bfn.  Coefficient  Atom+Function         Bfn.  Coefficient  Atom+Function  
  ----- ------------  ---------------      ----- ------------  ---------------
     6      0.321668  1 O  py                51      0.295106  3 C  px         
   134      0.259497  8 H  s                135      0.257348  8 H  s          
     9      0.207175  1 O  py                29     -0.201780  2 C  py         
     5      0.190871  1 O  px                97      0.182552  5 O  px         
     3     -0.161022  1 O  s                 50      0.154598  3 C  s          
 
 Vector   17  Occ=2.000000D+00  E=-5.359141D-01  Symmetry=a"
              MO Center= -5.0D-01,  7.9D-01,  4.3D-16, r^2= 2.0D+00
   Bfn.  Coefficient  Atom+Function         Bfn.  Coefficient  Atom+Function  
  ----- ------------  ---------------      ----- ------------  ---------------
    99      0.441935  5 O  pz               102      0.333313  5 O  pz         
    76      0.286625  4 C  pz                 7     -0.260628  1 O  pz         
    10     -0.197072  1 O  pz                79      0.153271  4 C  pz         
 
 Vector   18  Occ=2.000000D+00  E=-4.384597D-01  Symmetry=a'
              MO Center= -3.0D-01,  9.6D-01, -6.8D-17, r^2= 2.4D+00
   Bfn.  Coefficient  Atom+Function         Bfn.  Coefficient  Atom+Function  
  ----- ------------  ---------------      ----- ------------  ---------------
    98      0.516725  5 O  py               101      0.419174  5 O  py         
    78     -0.265089  4 C  py               143     -0.220522  9 H  s          
    52      0.198639  3 C  py                75     -0.190347  4 C  py         
     6      0.183752  1 O  py                72      0.161839  4 C  s          
    26     -0.156614  2 C  s          
 
 Vector   19  Occ=2.000000D+00  E=-3.678189D-01  Symmetry=a"
              MO Center=  4.6D-01, -1.9D-01, -4.8D-17, r^2= 2.4D+00
   Bfn.  Coefficient  Atom+Function         Bfn.  Coefficient  Atom+Function  
  ----- ------------  ---------------      ----- ------------  ---------------
    53      0.406875  3 C  pz                56      0.313129  3 C  pz         
     7     -0.251255  1 O  pz                30      0.239953  2 C  pz         
    99     -0.235686  5 O  pz                10     -0.201749  1 O  pz         
   102     -0.187264  5 O  pz                33      0.164744  2 C  pz         
 
 Vector   20  Occ=0.000000D+00  E= 2.961017D-02  Symmetry=a'
              MO Center=  2.8D+00, -4.4D-01,  8.8D-17, r^2= 1.7D+01
   Bfn.  Coefficient  Atom+Function         Bfn.  Coefficient  Atom+Function  
  ----- ------------  ---------------      ----- ------------  ---------------
    73      5.316313  4 C  s                 27      5.123470  2 C  s          
    50     -4.180176  3 C  s                136     -3.371987  8 H  s          
    57      3.019613  3 C  px               127     -0.969661  7 H  s          
    81     -0.866586  4 C  py               126     -0.741673  7 H  s          
    96     -0.733895  5 O  s                135     -0.711241  8 H  s          
 
 Vector   21  Occ=0.000000D+00  E= 4.061590D-02  Symmetry=a'
              MO Center=  1.9D+00, -3.3D-02,  1.9D-17, r^2= 2.6D+01
   Bfn.  Coefficient  Atom+Function         Bfn.  Coefficient  Atom+Function  
  ----- ------------  ---------------      ----- ------------  ---------------
    27      5.234989  2 C  s                127      4.980569  7 H  s          
    35      4.092526  2 C  py               145     -4.003807  9 H  s          
    81      2.884674  4 C  py                50     -2.671548  3 C  s          
    58      2.584772  3 C  py                73     -2.107803  4 C  s          
   136     -1.251806  8 H  s                 57      1.104028  3 C  px         
 
 Vector   22  Occ=0.000000D+00  E= 5.556490D-02  Symmetry=a'
              MO Center=  1.6D+00,  3.7D-01,  2.6D-17, r^2= 2.6D+01
   Bfn.  Coefficient  Atom+Function         Bfn.  Coefficient  Atom+Function  
  ----- ------------  ---------------      ----- ------------  ---------------
   136      6.603399  8 H  s                145     -4.077781  9 H  s          
    57     -4.055953  3 C  px               127     -3.316652  7 H  s          
    50      3.199326  3 C  s                 81      2.279447  4 C  py         
    35     -2.031225  2 C  py                27     -1.110591  2 C  s          
   135      1.065430  8 H  s                118     -0.933754  6 H  s          
 
 Vector   23  Occ=0.000000D+00  E= 6.199460D-02  Symmetry=a"
              MO Center=  5.2D-01,  1.6D-01,  7.7D-16, r^2= 5.9D+00
   Bfn.  Coefficient  Atom+Function         Bfn.  Coefficient  Atom+Function  
  ----- ------------  ---------------      ----- ------------  ---------------
    36      0.883234  2 C  pz                82     -0.628071  4 C  pz         
   105      0.368341  5 O  pz                59     -0.344228  3 C  pz         
    33      0.322310  2 C  pz                13     -0.320393  1 O  pz         
    30      0.303217  2 C  pz                79     -0.287297  4 C  pz         
    76     -0.269738  4 C  pz                99      0.231948  5 O  pz         
 
 Vector   24  Occ=0.000000D+00  E= 6.762071D-02  Symmetry=a'
              MO Center= -2.0D+00, -3.6D-01,  3.8D-18, r^2= 2.1D+01
   Bfn.  Coefficient  Atom+Function         Bfn.  Coefficient  Atom+Function  
  ----- ------------  ---------------      ----- ------------  ---------------
    50     11.421798  3 C  s                 73     -7.467490  4 C  s          
    27     -7.172637  2 C  s                 57     -5.144512  3 C  px         
   118      4.899300  6 H  s                136      4.826820  8 H  s          
   127     -4.075811  7 H  s                145     -3.709120  9 H  s          
    81      3.381118  4 C  py                35     -3.322554  2 C  py         
 
 Vector   25  Occ=0.000000D+00  E= 9.875677D-02  Symmetry=a"
              MO Center=  4.1D-01, -2.1D-01,  2.3D-16, r^2= 1.4D+01
   Bfn.  Coefficient  Atom+Function         Bfn.  Coefficient  Atom+Function  
  ----- ------------  ---------------      ----- ------------  ---------------
    36      1.797024  2 C  pz                82      1.557332  4 C  pz         
    59     -1.369087  3 C  pz                13     -0.567214  1 O  pz         
   105     -0.514014  5 O  pz         
 
 Vector   26  Occ=0.000000D+00  E= 1.086658D-01  Symmetry=a'
              MO Center= -4.8D-01,  1.3D-01, -3.6D-16, r^2= 1.9D+01
   Bfn.  Coefficient  Atom+Function         Bfn.  Coefficient  Atom+Function  
  ----- ------------  ---------------      ----- ------------  ---------------
    27      6.131973  2 C  s                 73     -5.903681  4 C  s          
    58      4.317629  3 C  py                34      3.464614  2 C  px         
    80     -3.107125  4 C  px                35      2.829511  2 C  py         
    81      2.512337  4 C  py                 4      1.695590  1 O  s          
   127      1.622901  7 H  s                 96     -1.496887  5 O  s          
 
 Vector   27  Occ=0.000000D+00  E= 1.272111D-01  Symmetry=a'
              MO Center=  6.0D-01,  7.4D-02,  1.5D-17, r^2= 1.8D+01
   Bfn.  Coefficient  Atom+Function         Bfn.  Coefficient  Atom+Function  
  ----- ------------  ---------------      ----- ------------  ---------------
    50     30.480127  3 C  s                 27    -18.016957  2 C  s          
    73    -12.359976  4 C  s                 35     -8.219085  2 C  py         
    81      5.971900  4 C  py               136      5.659223  8 H  s          
    57     -5.442851  3 C  px               127     -4.452345  7 H  s          
   145     -2.736761  9 H  s                  4      2.633077  1 O  s          
 
 Vector   28  Occ=0.000000D+00  E= 1.374666D-01  Symmetry=a"
              MO Center=  1.2D+00,  6.8D-01, -6.9D-15, r^2= 1.4D+01
   Bfn.  Coefficient  Atom+Function         Bfn.  Coefficient  Atom+Function  
  ----- ------------  ---------------      ----- ------------  ---------------
    59      3.042192  3 C  pz                82     -2.755278  4 C  pz         
    36     -0.548650  2 C  pz               105      0.493614  5 O  pz         
    33     -0.257974  2 C  pz                30     -0.182095  2 C  pz         
 
 Vector   29  Occ=0.000000D+00  E= 1.384741D-01  Symmetry=a'
              MO Center=  1.8D+00,  7.9D-02,  1.7D-15, r^2= 2.0D+01
   Bfn.  Coefficient  Atom+Function         Bfn.  Coefficient  Atom+Function  
  ----- ------------  ---------------      ----- ------------  ---------------
    27     19.114426  2 C  s                 73    -19.006622  4 C  s          
    58     13.224813  3 C  py                81      6.180242  4 C  py         
   145     -5.469360  9 H  s                 35      5.168607  2 C  py         
   127      4.825657  7 H  s                  4     -4.277267  1 O  s          
    80     -4.154771  4 C  px                50      2.932521  3 C  s          
 
 Vector   30  Occ=0.000000D+00  E= 1.405777D-01  Symmetry=a'
              MO Center=  8.1D-01, -1.2D-01,  1.6D-16, r^2= 1.9D+01
   Bfn.  Coefficient  Atom+Function         Bfn.  Coefficient  Atom+Function  
  ----- ------------  ---------------      ----- ------------  ---------------
    27     15.966899  2 C  s                 50    -11.401778  3 C  s          
    58      8.979123  3 C  py                73     -8.162560  4 C  s          
    35      4.836371  2 C  py               136     -4.721136  8 H  s          
    34      4.427102  2 C  px                57      4.270437  3 C  px         
   127      3.795351  7 H  s                118      3.450561  6 H  s          
 
 Vector   31  Occ=0.000000D+00  E= 1.447006D-01  Symmetry=a"
              MO Center=  1.1D+00, -4.0D-01, -8.5D-16, r^2= 1.3D+01
   Bfn.  Coefficient  Atom+Function         Bfn.  Coefficient  Atom+Function  
  ----- ------------  ---------------      ----- ------------  ---------------
    59     -2.907188  3 C  pz                36      2.685243  2 C  pz         
    13     -0.403458  1 O  pz                82      0.380365  4 C  pz         
    79      0.300378  4 C  pz                76      0.225611  4 C  pz         
   133     -0.180949  7 H  pz               102     -0.154886  5 O  pz         
 
 Vector   32  Occ=0.000000D+00  E= 1.509165D-01  Symmetry=a'
              MO Center=  2.1D+00, -5.0D-01, -3.0D-16, r^2= 1.6D+01
   Bfn.  Coefficient  Atom+Function         Bfn.  Coefficient  Atom+Function  
  ----- ------------  ---------------      ----- ------------  ---------------
    73     13.948590  4 C  s                 27     13.537020  2 C  s          
    50    -11.657386  3 C  s                 57      8.672849  3 C  px         
   136     -5.877904  8 H  s                 96     -3.000928  5 O  s          
    81     -2.915023  4 C  py                 4     -2.609412  1 O  s          
   135     -2.470841  8 H  s                126     -1.941574  7 H  s          
 
 Vector   33  Occ=0.000000D+00  E= 1.583702D-01  Symmetry=a'
              MO Center=  8.6D-01,  3.3D-01,  5.9D-15, r^2= 2.1D+01
   Bfn.  Coefficient  Atom+Function         Bfn.  Coefficient  Atom+Function  
  ----- ------------  ---------------      ----- ------------  ---------------
    35      6.562451  2 C  py                58     -5.730753  3 C  py         
    81      5.614040  4 C  py                73      4.787116  4 C  s          
   127      4.593849  7 H  s                 34     -4.223963  2 C  px         
   145     -4.190914  9 H  s                 80      3.104487  4 C  px         
    55      2.937786  3 C  py                 4     -2.359202  1 O  s          
 
 Vector   34  Occ=0.000000D+00  E= 1.777287D-01  Symmetry=a'
              MO Center=  1.6D+00,  2.1D-01, -1.1D-16, r^2= 2.0D+01
   Bfn.  Coefficient  Atom+Function         Bfn.  Coefficient  Atom+Function  
  ----- ------------  ---------------      ----- ------------  ---------------
    50     15.253503  3 C  s                 57    -12.073024  3 C  px         
   136      9.075538  8 H  s                 73     -8.650201  4 C  s          
   145     -6.841602  9 H  s                 81      6.768109  4 C  py         
    27     -6.631790  2 C  s                127     -6.449277  7 H  s          
    35     -6.270349  2 C  py                34      4.686994  2 C  px         
 
 Vector   35  Occ=0.000000D+00  E= 2.175425D-01  Symmetry=a"
              MO Center= -2.0D-01,  6.1D-02, -1.8D-17, r^2= 6.6D+00
   Bfn.  Coefficient  Atom+Function         Bfn.  Coefficient  Atom+Function  
  ----- ------------  ---------------      ----- ------------  ---------------
   105      0.838460  5 O  pz                13      0.816718  1 O  pz         
    79     -0.496383  4 C  pz                33     -0.433684  2 C  pz         
    36     -0.366004  2 C  pz                82     -0.362329  4 C  pz         
   142      0.321222  8 H  pz               151     -0.321341  9 H  pz         
   133     -0.316860  7 H  pz                56      0.280235  3 C  pz         
 
 Vector   36  Occ=0.000000D+00  E= 2.233951D-01  Symmetry=a'
              MO Center= -9.3D-01, -2.0D-01,  1.9D-17, r^2= 1.3D+01
   Bfn.  Coefficient  Atom+Function         Bfn.  Coefficient  Atom+Function  
  ----- ------------  ---------------      ----- ------------  ---------------
    50     36.208003  3 C  s                 73    -21.267673  4 C  s          
    27    -19.493299  2 C  s                 57     -7.304529  3 C  px         
    81      5.198085  4 C  py                35     -4.808837  2 C  py         
   135     -4.386039  8 H  s                 96      3.499859  5 O  s          
   118      3.333859  6 H  s                136      2.504396  8 H  s          
 
 Vector   37  Occ=0.000000D+00  E= 2.326543D-01  Symmetry=a'
              MO Center=  3.9D-01,  5.1D-02,  2.2D-17, r^2= 1.3D+01
   Bfn.  Coefficient  Atom+Function         Bfn.  Coefficient  Atom+Function  
  ----- ------------  ---------------      ----- ------------  ---------------
    27     28.283012  2 C  s                 73    -27.980911  4 C  s          
    58     12.030556  3 C  py                81      6.977365  4 C  py         
    35      6.549933  2 C  py                96      3.706779  5 O  s          
   126     -3.651981  7 H  s                144      3.644361  9 H  s          
   145     -3.086123  9 H  s                  4     -3.008358  1 O  s          
 
 Vector   38  Occ=0.000000D+00  E= 2.606751D-01  Symmetry=a'
              MO Center= -1.2D+00, -8.3D-01,  1.6D-16, r^2= 1.2D+01
   Bfn.  Coefficient  Atom+Function         Bfn.  Coefficient  Atom+Function  
  ----- ------------  ---------------      ----- ------------  ---------------
    73    -25.365157  4 C  s                 50     24.801965  3 C  s          
    58      7.826566  3 C  py                57     -6.799773  3 C  px         
    81      5.928018  4 C  py                11     -3.742085  1 O  px         
   135     -3.455957  8 H  s                 96      3.255632  5 O  s          
    34      3.143836  2 C  px               136      2.938372  8 H  s          
 
 Vector   39  Occ=0.000000D+00  E= 2.734705D-01  Symmetry=a'
              MO Center= -9.7D-01,  7.5D-01, -2.1D-16, r^2= 1.3D+01
   Bfn.  Coefficient  Atom+Function         Bfn.  Coefficient  Atom+Function  
  ----- ------------  ---------------      ----- ------------  ---------------
    27     32.096171  2 C  s                 50    -23.875715  3 C  s          
    58     11.315024  3 C  py                73    -10.130548  4 C  s          
    35      8.312763  2 C  py                57      5.486592  3 C  px         
     4     -4.392101  1 O  s                 96      4.181708  5 O  s          
   103      3.948699  5 O  px               127      3.665837  7 H  s          
 
 Vector   40  Occ=0.000000D+00  E= 2.747569D-01  Symmetry=a"
              MO Center= -4.7D-01, -1.1D+00, -2.6D-17, r^2= 9.5D+00
   Bfn.  Coefficient  Atom+Function         Bfn.  Coefficient  Atom+Function  
  ----- ------------  ---------------      ----- ------------  ---------------
    36      2.784976  2 C  pz                59     -2.615592  3 C  pz         
    13     -2.478073  1 O  pz                82      1.379629  4 C  pz         
   124      0.489774  6 H  pz                56      0.404959  3 C  pz         
    45      0.324746  2 C  d  1             105     -0.303845  5 O  pz         
     7      0.200848  1 O  pz                10      0.194336  1 O  pz         
 
 Vector   41  Occ=0.000000D+00  E= 2.993453D-01  Symmetry=a"
              MO Center= -8.2D-01,  1.1D+00,  8.4D-18, r^2= 9.2D+00
   Bfn.  Coefficient  Atom+Function         Bfn.  Coefficient  Atom+Function  
  ----- ------------  ---------------      ----- ------------  ---------------
   105     -2.416509  5 O  pz                82      2.224077  4 C  pz         
    59     -1.495807  3 C  pz                13      0.763653  1 O  pz         
    91      0.520343  4 C  d  1              66      0.333055  3 C  d -1       
    45     -0.253004  2 C  d  1             102      0.248718  5 O  pz         
    99      0.225290  5 O  pz                36      0.222498  2 C  pz         
 
 Vector   42  Occ=0.000000D+00  E= 3.035124D-01  Symmetry=a'
              MO Center= -9.2D-01, -5.1D-01, -1.6D-17, r^2= 1.3D+01
   Bfn.  Coefficient  Atom+Function         Bfn.  Coefficient  Atom+Function  
  ----- ------------  ---------------      ----- ------------  ---------------
    50     31.776834  3 C  s                 27    -22.160044  2 C  s          
    73    -11.254908  4 C  s                 35     -9.070061  2 C  py         
     4      7.142456  1 O  s                 81      5.088129  4 C  py         
    57     -4.792248  3 C  px               117     -4.649249  6 H  s          
   127     -3.964705  7 H  s                 12      3.910593  1 O  py         
 
 Vector   43  Occ=0.000000D+00  E= 3.128721D-01  Symmetry=a'
              MO Center=  6.0D-01, -3.3D-01, -5.8D-17, r^2= 1.1D+01
   Bfn.  Coefficient  Atom+Function         Bfn.  Coefficient  Atom+Function  
  ----- ------------  ---------------      ----- ------------  ---------------
    27      9.325485  2 C  s                 50     -6.423405  3 C  s          
     4     -3.480296  1 O  s                 34     -2.362916  2 C  px         
    57      2.122041  3 C  px               144     -2.056865  9 H  s          
    58      1.970412  3 C  py                12      1.855851  1 O  py         
    72      1.813420  4 C  s                 73      1.784611  4 C  s          
 
 Vector   44  Occ=0.000000D+00  E= 3.325940D-01  Symmetry=a'
              MO Center=  7.3D-01,  3.0D-01, -2.2D-16, r^2= 1.0D+01
   Bfn.  Coefficient  Atom+Function         Bfn.  Coefficient  Atom+Function  
  ----- ------------  ---------------      ----- ------------  ---------------
    27     18.536252  2 C  s                 50    -18.363770  3 C  s          
    73      8.934232  4 C  s                 57      6.539603  3 C  px         
   126     -3.449106  7 H  s                 35      2.876966  2 C  py         
     4     -2.683846  1 O  s                 58      2.440674  3 C  py         
   136     -2.378636  8 H  s                104     -2.326833  5 O  py         
 
 Vector   45  Occ=0.000000D+00  E= 3.480501D-01  Symmetry=a'
              MO Center=  6.0D-01, -1.8D-02, -1.5D-17, r^2= 1.2D+01
   Bfn.  Coefficient  Atom+Function         Bfn.  Coefficient  Atom+Function  
  ----- ------------  ---------------      ----- ------------  ---------------
    50     24.758859  3 C  s                 27    -19.308450  2 C  s          
    35     -5.976584  2 C  py                57     -5.898000  3 C  px         
   136      4.779183  8 H  s                 58     -4.248795  3 C  py         
    34     -3.980206  2 C  px                73     -3.894607  4 C  s          
    96     -3.268306  5 O  s                126      2.895315  7 H  s          
 
 Vector   46  Occ=0.000000D+00  E= 3.511357D-01  Symmetry=a"
              MO Center=  1.2D+00, -9.7D-02,  1.8D-17, r^2= 7.1D+00
   Bfn.  Coefficient  Atom+Function         Bfn.  Coefficient  Atom+Function  
  ----- ------------  ---------------      ----- ------------  ---------------
   142      1.119114  8 H  pz               133      0.744263  7 H  pz         
   151      0.580742  9 H  pz                33     -0.564973  2 C  pz         
    59     -0.540448  3 C  pz                79     -0.538245  4 C  pz         
   105      0.516746  5 O  pz                13      0.480109  1 O  pz         
   124     -0.312476  6 H  pz                68      0.276645  3 C  d  1       
 
 Vector   47  Occ=0.000000D+00  E= 3.595060D-01  Symmetry=a'
              MO Center=  3.1D-01,  4.3D-01,  7.6D-17, r^2= 1.5D+01
   Bfn.  Coefficient  Atom+Function         Bfn.  Coefficient  Atom+Function  
  ----- ------------  ---------------      ----- ------------  ---------------
    27     22.341568  2 C  s                 73    -21.186540  4 C  s          
    58     10.891149  3 C  py                35      9.536328  2 C  py         
    81      8.540419  4 C  py                 4     -8.017389  1 O  s          
   127      5.984999  7 H  s                145     -4.612319  9 H  s          
   104     -4.388857  5 O  py                12     -3.890118  1 O  py         
 
 Vector   48  Occ=0.000000D+00  E= 3.777744D-01  Symmetry=a'
              MO Center=  2.0D+00,  1.6D-01,  3.1D-16, r^2= 1.0D+01
   Bfn.  Coefficient  Atom+Function         Bfn.  Coefficient  Atom+Function  
  ----- ------------  ---------------      ----- ------------  ---------------
    50     16.322442  3 C  s                 73    -15.638054  4 C  s          
    57    -12.938368  3 C  px               136      8.234699  8 H  s          
    81      7.692572  4 C  py                27     -5.527540  2 C  s          
   135      5.545044  8 H  s                145     -5.246688  9 H  s          
    34      4.037018  2 C  px                35     -3.557071  2 C  py         
 
 Vector   49  Occ=0.000000D+00  E= 3.820059D-01  Symmetry=a'
              MO Center=  8.7D-01,  3.3D-01, -2.1D-17, r^2= 1.2D+01
   Bfn.  Coefficient  Atom+Function         Bfn.  Coefficient  Atom+Function  
  ----- ------------  ---------------      ----- ------------  ---------------
    73      9.740939  4 C  s                 55      7.945268  3 C  py         
    58     -7.413374  3 C  py                26      6.905852  2 C  s          
    27     -5.580525  2 C  s                 72     -5.527062  4 C  s          
    32      5.219095  2 C  py                78      4.620017  4 C  py         
    80      4.271524  4 C  px                34     -4.232147  2 C  px         
 
 Vector   50  Occ=0.000000D+00  E= 4.150607D-01  Symmetry=a'
              MO Center= -6.5D-02, -4.4D-01, -5.0D-17, r^2= 1.0D+01
   Bfn.  Coefficient  Atom+Function         Bfn.  Coefficient  Atom+Function  
  ----- ------------  ---------------      ----- ------------  ---------------
    27     17.670675  2 C  s                 50    -17.639961  3 C  s          
    73     14.034246  4 C  s                  4    -10.159884  1 O  s          
    96     -6.222627  5 O  s                 49      5.975178  3 C  s          
    57      5.002651  3 C  px                54     -3.226040  3 C  px         
    32     -2.828273  2 C  py                81     -2.767952  4 C  py         
 
 Vector   51  Occ=0.000000D+00  E= 4.324802D-01  Symmetry=a"
              MO Center=  9.7D-01,  1.9D-01, -8.0D-18, r^2= 1.0D+01
   Bfn.  Coefficient  Atom+Function         Bfn.  Coefficient  Atom+Function  
  ----- ------------  ---------------      ----- ------------  ---------------
   151     -1.653923  9 H  pz               133      1.608868  7 H  pz         
    36     -1.210376  2 C  pz                79      1.188379  4 C  pz         
    33     -1.163772  2 C  pz                82      1.028337  4 C  pz         
    66     -0.550775  3 C  d -1              91     -0.454341  4 C  d  1       
    45      0.438614  2 C  d  1              13      0.406399  1 O  pz         
 
 Vector   52  Occ=0.000000D+00  E= 4.454365D-01  Symmetry=a'
              MO Center= -2.4D-01,  1.0D-01, -1.2D-17, r^2= 1.1D+01
   Bfn.  Coefficient  Atom+Function         Bfn.  Coefficient  Atom+Function  
  ----- ------------  ---------------      ----- ------------  ---------------
    73    -18.078553  4 C  s                 27     17.224922  2 C  s          
     4    -11.407200  1 O  s                 96     11.066247  5 O  s          
    55     -5.292195  3 C  py                58      4.905919  3 C  py         
    35      4.633803  2 C  py                81      4.306216  4 C  py         
    12     -3.382833  1 O  py                78     -3.318818  4 C  py         
 
 Vector   53  Occ=0.000000D+00  E= 4.610712D-01  Symmetry=a'
              MO Center= -5.7D-01,  1.7D-01,  7.5D-17, r^2= 7.0D+00
   Bfn.  Coefficient  Atom+Function         Bfn.  Coefficient  Atom+Function  
  ----- ------------  ---------------      ----- ------------  ---------------
    27     10.067249  2 C  s                 50     -7.028431  3 C  s          
     4     -3.381529  1 O  s                 49      3.391602  3 C  s          
    57      2.411448  3 C  px                32     -2.340040  2 C  py         
    35      2.230246  2 C  py                55     -1.965519  3 C  py         
    96      1.964668  5 O  s                104     -1.954543  5 O  py         
 
 Vector   54  Occ=0.000000D+00  E= 4.698132D-01  Symmetry=a"
              MO Center=  4.5D-01, -1.5D-01, -2.3D-17, r^2= 8.2D+00
   Bfn.  Coefficient  Atom+Function         Bfn.  Coefficient  Atom+Function  
  ----- ------------  ---------------      ----- ------------  ---------------
   133      1.438284  7 H  pz               142     -1.369165  8 H  pz         
   151      1.293317  9 H  pz                68     -1.066342  3 C  d  1       
    43      0.896055  2 C  d -1             124      0.897749  6 H  pz         
    89     -0.832374  4 C  d -1              59      0.764800  3 C  pz         
    36     -0.518446  2 C  pz                82     -0.422329  4 C  pz         
 
 Vector   55  Occ=0.000000D+00  E= 4.861249D-01  Symmetry=a'
              MO Center=  5.8D-01, -4.0D-01,  1.2D-16, r^2= 9.7D+00
   Bfn.  Coefficient  Atom+Function         Bfn.  Coefficient  Atom+Function  
  ----- ------------  ---------------      ----- ------------  ---------------
    73      6.588516  4 C  s                 27     -4.838713  2 C  s          
    96     -3.281764  5 O  s                131      2.478264  7 H  px         
    72     -2.306207  4 C  s                 26      2.282698  2 C  s          
    46     -2.237195  2 C  d  2             117      1.985289  6 H  s          
   144      1.828592  9 H  s                 81     -1.818195  4 C  py         
 
 Vector   56  Occ=0.000000D+00  E= 5.081750D-01  Symmetry=a"
              MO Center=  7.0D-01, -2.4D-02,  5.6D-17, r^2= 7.6D+00
   Bfn.  Coefficient  Atom+Function         Bfn.  Coefficient  Atom+Function  
  ----- ------------  ---------------      ----- ------------  ---------------
    59      2.637346  3 C  pz               142     -2.027545  8 H  pz         
    36     -1.697062  2 C  pz                82     -1.703620  4 C  pz         
    56      1.651940  3 C  pz               124     -1.247077  6 H  pz         
    13      0.965313  1 O  pz               105      0.887734  5 O  pz         
    68     -0.812535  3 C  d  1              45      0.470009  2 C  d  1       
 

 center of mass
 --------------
 x =  -0.07320585 y =   0.00824422 z =   0.00000000

 moments of inertia (a.u.)
 ------------------
         351.343285818802           0.000000000000           0.000000000000
           0.000000000000         184.629444527114           0.000000000000
           0.000000000000           0.000000000000         535.972730345917
 
  Mulliken analysis of the total density
  --------------------------------------

    Atom       Charge   Shell Charges
 -----------   ------   -------------------------------------------------------
    1 O    8     8.69   2.00  0.82  1.01  0.15  2.83  1.78  0.05  0.02  0.02
    2 C    6     5.26   2.01  0.68  0.57 -0.08  1.88  0.16  0.07  0.15 -0.18
    3 C    6     5.39   2.01  0.64  0.40 -0.32  2.08  0.52  0.15  0.07 -0.15
    4 C    6     5.35   2.01  0.69  0.54 -0.05  1.86  0.19  0.04  0.17 -0.10
    5 O    8     8.82   2.00  0.83  1.05  0.15  2.77  1.87  0.09  0.02  0.03
    6 H    1     0.73   0.64  0.01 -0.01  0.09 -0.01
    7 H    1     1.21   0.77  0.44  0.02  0.03 -0.04
    8 H    1     1.41   0.77  0.61 -0.00  0.03  0.00
    9 H    1     1.14   0.77  0.38  0.00  0.03 -0.04
 
       Multipole analysis of the density wrt the origin
       ------------------------------------------------
 
     L   x y z        total         open         nuclear
     -   - - -        -----         ----         -------
     0   0 0 0     -0.000000      0.000000     38.000000
 
     1   1 0 0      1.267071      0.000000      0.000000
     1   0 1 0     -0.228703      0.000000     -0.000000
     1   0 0 1     -0.000000      0.000000      0.000000
 
     2   2 0 0    -21.798783      0.000000    106.789716
     2   1 1 0      0.750341      0.000000      0.865507
     2   1 0 1      0.000000      0.000000      0.000000
     2   0 2 0    -21.250246      0.000000    192.449525
     2   0 1 1      0.000000      0.000000      0.000000
     2   0 0 2    -22.951307      0.000000      0.000000
 
                   NWChem MP2 Semi-direct Energy/Gradient Module
                   ---------------------------------------------
 
 
                                   H,H,H Chelate
 
 

int_init: setting std/high accuracies to  1.0D-16  1.0D-32
  Basis functions       =    151
  Molecular orbitals    =    151
  Frozen core           =      5
  Frozen virtuals       =      0
  Active alpha occupied =     14
  Active beta occupied  =     14
  Active alpha virtual  =    132
  Active beta virtual   =    132
  Use MO symmetry       = T
  Use skeleton AO sym   = T

  AO/Fock/Back tols     =   1.0D-15  1.0D-15  1.0D-15

 GA uses MA = F    GA memory limited = T

 Available: 
  local mem=  2.29D+07
 global mem=  2.62D+07
 local disk=  0.00D+00

int_init: setting std/high accuracies to  1.0D-16  1.0D-32
  mp2_memr nvloc                     12
  nvloc new                     12
   1 passes of  14:        5242880                     155219                   8431000.
   1 passes of  14: M     22885495           G       26202752           F      17642615.
 
 Semi-direct pass number   1 of   1  for RHF alpha+beta  at       27.2s

int_init: setting std/high accuracies to  1.0D-16  1.0D-32
  vrange nnbf                  11476
  mp2_eaftype                     25  avail_ma_in_mb                    199
 EAF : mp2_eaftype filesize          25    3297058.
  mp2_eaf for mointskh                      25
Node 0 wrote     15.4 Mb in      0.0 s     Agg I/O rate:  4246.2 Mb/s
 Done moints_semi at       30.5s
  mp2_eaftype                     25  avail_ma_in_mb                    174
 EAF : mp2_eaftype filesize          25    3297058.
  mp2_eaf for kh                     25
  mp2_eaftype                     10  avail_ma_in_mb                    174
 EAF : mp2_eaftype filesize          10     620928.
  mp2_eaf for ta tb                     10
  mp2_eaf for ta                      10
  mp2_eaf for tb                      10
 Done maket at       30.6s
 Done pijab at       30.6s
 Done wijab at       30.6s
 Done lai at       31.1s

int_init: setting std/high accuracies to  1.0D-16  1.0D-32
  mp2_eaftype                     28  avail_ma_in_mb                    153
 EAF : mp2_eaftype filesize          28    3798647.
  mp2_eaf for 2pdm                      28
 Done nonsep at       39.9s
 Done multipass loop at       39.9s


          -------------------------------------------
          SCF energy                -265.672730699089
          Correlation energy          -0.802966983436
          Singlet pairs               -0.484405700796
          Triplet pairs               -0.318561282640
          Total MP2 energy          -266.475697682524
          -------------------------------------------



          ---------------------------------------------------
                    Spin Component Scaled (SCS) MP2
          Same spin pairs                     -0.212374188427
          Same spin scaling factor             0.333333333333
          Opposite spin pairs                 -0.590592795009
          Opposite spin scaling fact.          1.200000000000
          SCS-MP2 correlation energy          -0.779502750153
          Total SCS-MP2 energy              -266.452233449242
          ---------------------------------------------------


int_init: setting std/high accuracies to  1.0D-16  1.0D-32
                                NWChem CPHF Module
                                ------------------
 
 

int_init: setting std/high accuracies to  1.0D-16  1.0D-32
    scftype = RHF 
    nclosed =   19
      nopen =    0
  variables =     2508
  tolerance =   1.0D-06
  max. iter =  999

 Warning: symmetry breaking in RHF:   4.812224217190195E-014
 SCF residual:   7.239111817926663E-011

            ----- linear solve (tol: 1.0E-06 prod-acc: 3.6E-14) -----

               iter nbas    rnorm     rnorm-scal   ratio     time
               ---- ---- ----------- ----------- --------- -------
                  1    1  7.7502E-02  4.2715E-01    0.0000    42.0
                  2    2  2.2394E-02  1.2342E-01    0.2889    42.9
                  3    3  7.9597E-03  4.3869E-02    0.3554    43.8
                  4    4  2.9080E-03  1.6027E-02    0.3653    44.7
                  5    5  1.0362E-03  5.7112E-03    0.3563    45.7
                  6    6  3.7056E-04  2.0423E-03    0.3576    46.5
                  7    7  1.6243E-04  8.9522E-04    0.4383    47.4
                  8    8  5.8886E-05  3.2455E-04    0.3625    48.3
                  9    9  2.3560E-05  1.2985E-04    0.4001    49.1
                 10   10  7.3918E-06  4.0739E-05    0.3137    50.0
                 11   11  2.3289E-06  1.2836E-05    0.3151    50.9
                 12   12  6.9806E-07  3.8473E-06    0.2997    51.7
                 13   13  2.2425E-07  1.2359E-06    0.3212    52.5
                 14   14  5.0061E-08  2.7591E-07    0.2232    53.3

 CPHF converged to   2.8D-07 in   14 iters


int_init: setting std/high accuracies to  1.0D-16  1.0D-32
                Dipole Moments (a.u.)
                --------------
         Nuclear       SCF       SCF+MP2
       ----------- ----------- -----------
 X       0.000000    1.267071    1.029239
 Y      -0.000000   -0.228703   -0.171398
 Z       0.000000   -0.000000   -0.000000
 

 MP2 RHF      natural orbital occupation numbers


              1      
    1    2.0000
    2    2.0000
    3    2.0000
    4    2.0000
    5    2.0000
    6    1.9867
    7    1.9854
    8    1.9814
    9    1.9749
   10    1.9728
   11    1.9685
   12    1.9650
   13    1.9647
   14    1.9638
   15    1.9571
   16    1.9563
   17    1.9554
   18    1.9474
   19    1.9289
   20    0.0596
   21    0.0400
   22    0.0328
   23    0.0313
   24    0.0299
   25    0.0226
   26    0.0211
   27    0.0167
   28    0.0159
   29    0.0155
   30    0.0141
   31    0.0123
   32    0.0122
   33    0.0103
   34    0.0103
   35    0.0094
   36    0.0088
   37    0.0085
   38    0.0079
   39    0.0076
   40    0.0070
   41    0.0066
   42    0.0066
   43    0.0059
   44    0.0059
   45    0.0059
   46    0.0054
   47    0.0054
   48    0.0046
   49    0.0040
   50    0.0034
   51    0.0029
   52    0.0028
   53    0.0026
   54    0.0025
   55    0.0024
   56    0.0023
   57    0.0021
   58    0.0018
   59    0.0016
   60    0.0014
   61    0.0014
   62    0.0012
   63    0.0012
   64    0.0011
   65    0.0010
   66    0.0009
   67    0.0009
   68    0.0008
   69    0.0007
   70    0.0007
   71    0.0007
   72    0.0007
   73    0.0006
   74    0.0006
   75    0.0006
   76    0.0005
   77    0.0005
   78    0.0005
   79    0.0005
   80    0.0005
   81    0.0004
   82    0.0004
   83    0.0004
   84    0.0003
   85    0.0003
   86    0.0003
   87    0.0003
   88    0.0003
   89    0.0003
   90    0.0003
   91    0.0003
   92    0.0003
   93    0.0002
   94    0.0002
   95    0.0002
   96    0.0002
   97    0.0002
   98    0.0002
   99    0.0002
  100    0.0001
  101    0.0001
  102    0.0001
  103    0.0001
  104    0.0001
  105    0.0001
  106    0.0001
  107    0.0001
  108    0.0001
  109    0.0001
  110    0.0001
  111    0.0001
  112    0.0001
  113    0.0001
  114    0.0001
  115    0.0001
  116    0.0000
  117    0.0000
  118    0.0000
  119    0.0000
  120    0.0000
  121    0.0000
  122    0.0000
  123    0.0000
  124    0.0000
  125    0.0000
  126    0.0000
  127    0.0000
  128    0.0000
  129    0.0000
  130    0.0000
  131    0.0000
  132    0.0000
  133    0.0000
  134    0.0000
  135    0.0000
  136    0.0000
  137    0.0000
  138    0.0000
  139    0.0000
  140    0.0000
  141    0.0000
  142   -0.0000
  143   -0.0000
  144   -0.0000
  145   -0.0000
  146   -0.0000
  147   -0.0000
  148   -0.0000
  149   -0.0001
  150   -0.0002
  151   -0.0003
 
  MP2 natural orbitals output to ./1C.mp2nos
 

int_init: setting std/high accuracies to  1.0D-16  1.0D-32
  Using symmetry

int_init: setting std/high accuracies to  1.0D-16  1.0D-32


                         mp2 ENERGY GRADIENTS

    atom               coordinates                        gradient
                 x          y          z           x          y          z
   1 O      -1.683820  -2.453362   0.000000    0.003519   0.002894   0.000000
   2 C       0.818039  -2.234130   0.000000    0.003701   0.007429   0.000000
   3 C       2.086064   0.007817   0.000000    0.000509  -0.005582   0.000000
   4 C       0.684218   2.340152   0.000000   -0.000500  -0.001011   0.000000
   5 O      -1.673818   2.442781   0.000000    0.006859   0.000370   0.000000
   6 H      -2.338816  -0.692873   0.000000    0.001917  -0.003986   0.000000
   7 H       1.780871  -4.044351   0.000000   -0.003701   0.005970   0.000000
   8 H       4.123108   0.025875   0.000000   -0.008812   0.000118   0.000000
   9 H       1.766011   4.112963   0.000000   -0.003492  -0.006202   0.000000
 
                 ----------------------------------------
                 |  Time  |  1-e(secs)   |  2-e(secs)   |
                 ----------------------------------------
                 |  CPU   |       0.00   |       6.16   |
                 ----------------------------------------
                 |  WALL  |       0.00   |       6.17   |
                 ----------------------------------------
 -----------------------
 Performance information
 -----------------------

 Timer overhead =  0.00D+00 seconds/call

               Nr. of calls         CPU time (s)                 Wall time (s)                GFlops
             ---------------    -------------------     ------------------------------   -------------------
Name         Min   Avg   Max    Min     Avg     Max     Min     Avg     Max   Mx/calls   Min     Max     Sum
mp2: moin     1     1     1    3.0     3.1     3.1      3.3     3.3     3.3     3.3      0.0     0.0     0.0   
mp2: make     1     1     1   0.10    0.12    0.12     0.12    0.12    0.12    0.12      0.0     0.0     0.0   
mp2: pija     1     1     1   1.30E-2 1.41E-2 1.50E-2  1.47E-2 1.47E-2 1.48E-2 1.48E-2   0.0     0.0     0.0   
mp2: wija     1     1     1   1.50E-2 1.58E-2 1.70E-2  1.59E-2 1.60E-2 1.60E-2 1.60E-2   0.0     0.0     0.0   
mp2: lai      1     1     1   0.42    0.44    0.45     0.45    0.45    0.45    0.45      0.0     0.0     0.0   
mp2: back     1     1     1   0.27    0.27    0.27     0.28    0.28    0.28    0.28      0.0     0.0     0.0   
mp2: nons     1     1     1    7.8     8.1     8.5      7.8     8.1     8.5     8.5      0.0     0.0     0.0   
mp2: laif     1     1     1   0.98    0.99    0.99     0.99    0.99    0.99    0.99      0.0     0.0     0.0   
mp2: cphf     1     1     1    13.     13.     13.      13.     13.     13.     13.      0.0     0.0     0.0   
mp2: wijf     1     1     1   0.96    0.99    0.99     0.99    0.99    0.99    0.99      0.0     0.0     0.0   
mp2: sep      1     1     1    6.2     6.2     6.2      6.2     6.2     6.2     6.2      0.0     0.0     0.0   
mp2: tota     1     1     1    34.     34.     34.      34.     34.     34.     34.      0.0     0.0     0.0   

 The average no. of pstat calls per process was 1.20D+01
 with a timing overhead of 0.00D+00s


@ Step       Energy      Delta E   Gmax     Grms     Xrms     Xmax   Walltime
@ ---- ---------------- -------- -------- -------- -------- -------- --------
@    0    -266.47569768  0.0D+00  0.01339  0.00492  0.00000  0.00000     61.5
                                                                    



                                Z-matrix (user)
                                -------- 

 Units are Angstrom for bonds and degrees for angles

  Constants are marked with an asterisk (*).

  Constrained variables are marked with a plus sign (+).

 
      Type          Name      I     J     K     L     M      Value     Gradient
      ----------- --------  ----- ----- ----- ----- ----- ---------- ----------
    1 Stretch      R1          2     1                       1.32900   -0.00532
    2 Stretch      R2          3     2                       1.36300   -0.01339
    3 Bend         A1          3     2     1               124.50000    0.00167
    4 Stretch      R3          4     3                       1.44000   -0.00734
    5 Bend         A2          4     3     2               119.50000   -0.00043
    6*Torsion      D0          4     3     2     1           0.00000    0.00000
    7 Stretch      R4          5     4                       1.24900   -0.00684
    8 Bend         A3          5     4     3               123.50000    0.00083
    9*Torsion      D0          5     4     3     2           0.00000    0.00000
   10 Stretch      R5          6     1                       0.99400   -0.00440
   11 Bend         A4          6     1     2               105.40000   -0.00040
   12*Torsion      D0          6     1     2     3           0.00000    0.00000
   13 Stretch      R6          7     2                       1.08500   -0.00701
   14 Bend         A5          7     2     3               122.50000    0.00050
   15*Torsion      D180        7     2     3     4         180.00000    0.00000
   16 Stretch      R7          8     3                       1.07800   -0.00881
   17 Bend         A6          8     3     2               120.00000    0.00021
   18*Torsion      D180        8     3     2     1         180.00000    0.00000
   19 Stretch      R8          9     4                       1.09900   -0.00711
   20 Bend         A7          9     4     3               117.60000   -0.00027
   21*Torsion      D180        9     4     3     2         180.00000    0.00000
 
                                 NWChem SCF Module
                                 -----------------
 
 
                                   H,H,H Chelate
 
 

  ao basis        = "ao basis"
  functions       =   151
  atoms           =     9
  closed shells   =    19
  open shells     =     0
  charge          =   0.00
  wavefunction    = RHF 
  input vectors   = ./1C.movecs
  output vectors  = ./1C.movecs
  use symmetry    = T
  symmetry adapt  = T


 Summary of "ao basis" -> "ao basis" (spherical)
 ------------------------------------------------------------------------------
       Tag                 Description            Shells   Functions and Types
 ---------------- ------------------------------  ------  ---------------------
 O                        aug-cc-pVDZ                9       23   4s3p2d
 C                        aug-cc-pVDZ                9       23   4s3p2d
 H                        aug-cc-pVDZ                5        9   3s2p


      Symmetry analysis of basis
      --------------------------
 
        a'        108
        a"         43
 

int_init: setting std/high accuracies to  1.0D-16  1.0D-32

 Forming initial guess at      61.6s


 Forcing the number of linearly dependent vectors to be  0

 Loading old vectors from job with title :

H,H,H Chelate

 
      Symmetry analysis of molecular orbitals - initial
      -------------------------------------------------
 
  Numbering of irreducible representations: 
 
     1 a'          2 a"      
 
  Orbital symmetries:
 
     1 a'          2 a'          3 a'          4 a'          5 a'      
     6 a'          7 a'          8 a'          9 a'         10 a'      
    11 a'         12 a'         13 a'         14 a'         15 a"      
    16 a'         17 a"         18 a'         19 a"         20 a'      
    21 a'         22 a'         23 a"         24 a'         25 a"      
    26 a'         27 a'         28 a"         29 a'      
 

 Starting SCF solution at      61.6s



 ----------------------------------------------
         Quadratically convergent ROHF

 Convergence threshold     :          1.000E-09
 Maximum no. of iterations :           99
 Final Fock-matrix accuracy:          1.000E-15
 ----------------------------------------------

 Warning: symmetry breaking in RHF:   3.364606277916147E-014

              iter       energy          gnorm     gmax       time
             ----- ------------------- --------- --------- --------
                 1     -265.6699392186  6.64D-02  7.14D-03     61.5
 Warning: symmetry breaking in RHF:   3.346472669414776E-014
                 2     -265.6702358830  4.16D-03  6.40D-04     64.1
 Warning: symmetry breaking in RHF:   3.343390839584675E-014
                 3     -265.6702380721  1.03D-05  2.06D-06     70.0
 Warning: symmetry breaking in RHF:   3.343401252778028E-014
                 4     -265.6702380721  5.83D-11  1.15D-11     80.9


       Final RHF  results 
       ------------------ 

         Total SCF energy =   -265.670238072081
      One-electron energy =   -686.899576176770
      Two-electron energy =    257.530353554066
 Nuclear repulsion energy =    163.698984550624

        Time for solution =     20.3s


 
       Symmetry analysis of molecular orbitals - final
       -----------------------------------------------
 
  Numbering of irreducible representations: 
 
     1 a'          2 a"      
 
  Orbital symmetries:
 
     1 a'          2 a'          3 a'          4 a'          5 a'      
     6 a'          7 a'          8 a'          9 a'         10 a'      
    11 a'         12 a'         13 a'         14 a'         15 a"      
    16 a'         17 a"         18 a'         19 a"         20 a'      
    21 a'         22 a'         23 a"         24 a'         25 a"      
    26 a'         27 a'         28 a"         29 a'      
 
             Final eigenvalues
             -----------------

              1      
    1  -20.6161
    2  -20.5718
    3  -11.3617
    4  -11.3600
    5  -11.2466
    6   -1.4352
    7   -1.3809
    8   -1.0673
    9   -0.9043
   10   -0.8231
   11   -0.7167
   12   -0.6741
   13   -0.6443
   14   -0.6181
   15   -0.6000
   16   -0.5606
   17   -0.5339
   18   -0.4388
   19   -0.3659
   20    0.0296
   21    0.0405
   22    0.0555
   23    0.0597
   24    0.0676
   25    0.0990
   26    0.1084
   27    0.1272
   28    0.1375
   29    0.1383
 
                       ROHF Final Molecular Orbital Analysis
                       -------------------------------------
 
 Vector    6  Occ=2.000000D+00  E=-1.435168D+00  Symmetry=a'
              MO Center= -6.6D-01, -9.5D-01, -5.1D-32, r^2= 1.0D+00
   Bfn.  Coefficient  Atom+Function         Bfn.  Coefficient  Atom+Function  
  ----- ------------  ---------------      ----- ------------  ---------------
     3      0.446620  1 O  s                  2      0.390674  1 O  s          
   116      0.160101  6 H  s                 25      0.151130  2 C  s          
 
 Vector    7  Occ=2.000000D+00  E=-1.380950D+00  Symmetry=a'
              MO Center= -5.7D-01,  1.0D+00,  2.1D-34, r^2= 1.1D+00
   Bfn.  Coefficient  Atom+Function         Bfn.  Coefficient  Atom+Function  
  ----- ------------  ---------------      ----- ------------  ---------------
    95      0.442576  5 O  s                 94      0.382199  5 O  s          
    72      0.209209  4 C  s                 71      0.199805  4 C  s          
    27      0.167492  2 C  s                  3     -0.163555  1 O  s          
    74     -0.160289  4 C  px                26     -0.156171  2 C  s          
    55     -0.155988  3 C  py         
 
 Vector    8  Occ=2.000000D+00  E=-1.067350D+00  Symmetry=a'
              MO Center=  7.0D-01, -1.8D-01, -1.6D-18, r^2= 1.6D+00
   Bfn.  Coefficient  Atom+Function         Bfn.  Coefficient  Atom+Function  
  ----- ------------  ---------------      ----- ------------  ---------------
    50      0.347340  3 C  s                 48     -0.309750  3 C  s          
    49     -0.239589  3 C  s                 25     -0.221239  2 C  s          
    27     -0.204026  2 C  s                 73     -0.187121  4 C  s          
    26     -0.155274  2 C  s          
 
 Vector    9  Occ=2.000000D+00  E=-9.043047D-01  Symmetry=a'
              MO Center=  3.6D-01, -1.6D-01, -4.2D-34, r^2= 2.9D+00
   Bfn.  Coefficient  Atom+Function         Bfn.  Coefficient  Atom+Function  
  ----- ------------  ---------------      ----- ------------  ---------------
    26      0.339214  2 C  s                 72     -0.287609  4 C  s          
    25      0.263490  2 C  s                 71     -0.223592  4 C  s          
    52     -0.206426  3 C  py               125      0.188989  7 H  s          
     5      0.169878  1 O  px                95      0.162441  5 O  s          
 
 Vector   10  Occ=2.000000D+00  E=-8.231034D-01  Symmetry=a'
              MO Center= -9.9D-02,  7.6D-03, -7.8D-17, r^2= 3.2D+00
   Bfn.  Coefficient  Atom+Function         Bfn.  Coefficient  Atom+Function  
  ----- ------------  ---------------      ----- ------------  ---------------
     6      0.225378  1 O  py               116      0.217153  6 H  s          
    29      0.207742  2 C  py                71     -0.199399  4 C  s          
   143     -0.199838  9 H  s                  5     -0.195204  1 O  px         
 
 Vector   11  Occ=2.000000D+00  E=-7.167130D-01  Symmetry=a'
              MO Center=  3.6D-01, -2.9D-01,  1.5D-31, r^2= 3.2D+00
   Bfn.  Coefficient  Atom+Function         Bfn.  Coefficient  Atom+Function  
  ----- ------------  ---------------      ----- ------------  ---------------
    51     -0.256612  3 C  px                 5      0.248781  1 O  px         
   134     -0.241050  8 H  s                135     -0.218609  8 H  s          
    28     -0.199427  2 C  px                75     -0.156035  4 C  py         
     8      0.153146  1 O  px         
 
 Vector   12  Occ=2.000000D+00  E=-6.741300D-01  Symmetry=a'
              MO Center=  7.6D-02,  1.5D-01, -6.4D-18, r^2= 3.1D+00
[...]
          12     0.00000    -0.02966     0.11451     0.00000     0.13632     0.00000
          13     0.15675     0.00000     0.00000    -0.00804     0.00000     0.01328
          14     0.03314     0.00000     0.00000    -0.06237     0.00000     0.11708
          15     0.00000     0.02164     0.20976     0.00000     0.00071     0.00000
          16     0.07308     0.00000     0.00000     0.09594     0.00000     0.01328
          17     0.05050     0.00000     0.00000    -0.08394     0.00000     0.11708
          18     0.00000     0.15224     0.12133     0.00000    -0.06707     0.00000
          19    -0.01916     0.00000     0.00000     0.21056     0.00000     0.01329
          20    -0.06068     0.00000     0.00000     0.05423     0.00000     0.11708
          21     0.00000     0.18543    -0.16407     0.00000     0.13618     0.00000
          22     0.09174     0.00000     0.00000     0.07275     0.00000     0.01328
          23    -0.12465     0.00000     0.00000     0.13372     0.00000     0.11709
          24     0.00000    -0.02249    -0.10594     0.00000     0.31338     0.00000
          25     0.20308     0.00000     0.00000    -0.06561     0.00000     0.01328
          26    -0.05991     0.00000     0.00000     0.05326     0.00000     0.11708
          27     0.00000    -0.12161     0.13839     0.00000     0.21622     0.00000

                    7           8           9          10          11          12
 
 P.Frequency      276.30      281.41      391.29      507.50      777.22      881.15
 
           1     0.00000     0.00345     0.00000    -0.07201     0.00000    -0.04644
           2     0.00000    -0.16251     0.00000    -0.08628     0.00000    -0.03189
           3     0.08987     0.00000    -0.06466     0.00000     0.03362     0.00000
           4     0.00000     0.01083     0.00000    -0.07005     0.00000    -0.00956
           5     0.00000    -0.02701     0.00000     0.10459     0.00000     0.11042
           6    -0.05940     0.00000     0.13425     0.00000    -0.07257     0.00000
           7     0.00000    -0.05255     0.00000     0.00890     0.00000     0.18604
           8     0.00000    -0.00229     0.00000     0.07536     0.00000    -0.01008
           9    -0.07047     0.00000    -0.15938     0.00000    -0.05958     0.00000
          10     0.00000     0.00493     0.00000     0.07084     0.00000    -0.03843
          11     0.00000     0.05345     0.00000     0.08382     0.00000    -0.11457
          12     0.13881     0.00000     0.01656     0.00000    -0.03538     0.00000
          13     0.00000     0.02262     0.00000     0.07486     0.00000    -0.04564
          14     0.00000     0.15912     0.00000    -0.11734     0.00000     0.05233
          15    -0.11925     0.00000     0.03801     0.00000     0.01731     0.00000
          16     0.00000    -0.10534     0.00000    -0.14700     0.00000    -0.23191
          17     0.00000    -0.23506     0.00000    -0.12282     0.00000    -0.12338
          18    -0.00145     0.00000    -0.22818     0.00000     0.10140     0.00000
          19     0.00000     0.07907     0.00000     0.00188     0.00000    -0.09481
          20     0.00000     0.01082     0.00000     0.14392     0.00000     0.06703
          21    -0.09433     0.00000     0.50909     0.00000     0.12268     0.00000
          22     0.00000    -0.05059     0.00000     0.01099     0.00000     0.18799
          23     0.00000    -0.01021     0.00000    -0.07230     0.00000     0.01110
          24    -0.08447     0.00000    -0.02234     0.00000     0.90620     0.00000
          25     0.00000     0.10123     0.00000    -0.02658     0.00000    -0.04362
          26     0.00000     0.00065     0.00000     0.14223     0.00000    -0.10975
          27     0.54014     0.00000     0.26627     0.00000     0.05598     0.00000

                   13          14          15          16          17          18
 
 P.Frequency      911.11     1007.83     1010.11     1035.93     1100.49     1273.48
 
           1     0.00000    -0.05755     0.00000     0.00000    -0.09550    -0.11024
           2     0.00000    -0.00537     0.00000     0.00000    -0.01071     0.00154
           3    -0.05851     0.00000    -0.02444    -0.00895     0.00000     0.00000
           4     0.00000     0.03363     0.00000     0.00000     0.05739     0.07739
           5     0.00000    -0.10706     0.00000     0.00000    -0.06718    -0.00919
           6     0.12308     0.00000    -0.04214    -0.08328     0.00000     0.00000
           7     0.00000     0.12909     0.00000     0.00000     0.01483     0.00319
           8     0.00000    -0.03994     0.00000     0.00000     0.06030    -0.00035
           9    -0.07717     0.00000     0.06448    -0.01016     0.00000     0.00000
          10     0.00000    -0.01323     0.00000     0.00000    -0.00241    -0.00140
          11     0.00000     0.15799     0.00000     0.00000    -0.01962    -0.02708
          12     0.04968     0.00000    -0.11468     0.11975     0.00000     0.00000
          13     0.00000    -0.04565     0.00000     0.00000     0.04047    -0.00700
          14     0.00000     0.00010     0.00000     0.00000    -0.01012     0.00906
          15    -0.02930     0.00000     0.01445    -0.03195     0.00000     0.00000
          16     0.00000     0.05875     0.00000     0.00000     0.01446     0.23422
          17     0.00000     0.03035     0.00000     0.00000     0.03322     0.15923
          18     0.66925     0.00000     0.57346     0.33278     0.00000     0.00000
          19     0.00000    -0.12673     0.00000     0.00000    -0.05462     0.70329
          20     0.00000    -0.20169     0.00000     0.00000    -0.13221     0.32071
          21    -0.41327     0.00000     0.31720     0.59821     0.00000     0.00000
          22     0.00000     0.14639     0.00000     0.00000     0.01208     0.00635
          23     0.00000    -0.16226     0.00000     0.00000     0.80273    -0.19310
          24     0.11135     0.00000    -0.17353    -0.10464     0.00000     0.00000
          25     0.00000    -0.22044     0.00000     0.00000     0.07024    -0.02587
          26     0.00000     0.28639     0.00000     0.00000    -0.05754    -0.01909
          27    -0.11185     0.00000     0.54092    -0.49057     0.00000     0.00000

                   19          20          21          22          23          24
 
 P.Frequency     1393.30     1403.15     1472.83     1634.41     1684.00     3048.11
 
           1    -0.02609    -0.04015     0.03732     0.00207     0.03750    -0.00222
           2    -0.00433     0.05492     0.03262     0.02828     0.02738     0.00508
           3     0.00000     0.00000     0.00000     0.00000     0.00000     0.00000
           4     0.04332     0.15626    -0.06134     0.00453    -0.11390     0.00023
           5    -0.00156     0.01676     0.01567    -0.07294    -0.12769    -0.00082
           6     0.00000     0.00000     0.00000     0.00000     0.00000     0.00000
           7     0.01709    -0.05308     0.02156    -0.01723     0.06413     0.00134
           8     0.04253    -0.02919    -0.16251     0.07764     0.12026     0.00352
           9     0.00000     0.00000     0.00000     0.00000     0.00000     0.00000
          10     0.02207    -0.07881     0.00608     0.18088    -0.10752    -0.03643
          11     0.05778     0.01130     0.08867    -0.05074    -0.00280    -0.07316
          12     0.00000     0.00000     0.00000     0.00000     0.00000     0.00000
          13    -0.08044     0.06541    -0.02849    -0.09894     0.06582    -0.00154
          14    -0.03101    -0.01895    -0.01998     0.00922    -0.00187     0.00032
          15     0.00000     0.00000     0.00000     0.00000     0.00000     0.00000
          16     0.01811    -0.55944    -0.29639    -0.43973    -0.22790     0.04417
          17     0.00751    -0.25801    -0.13848    -0.13120    -0.09099    -0.07261
          18     0.00000     0.00000     0.00000     0.00000     0.00000     0.00000
          19    -0.10087    -0.05202     0.34646     0.13021     0.26848    -0.00463
          20    -0.08194    -0.08998     0.24070    -0.02028     0.04667     0.00780
          21     0.00000     0.00000     0.00000     0.00000     0.00000     0.00000
          22     0.02581    -0.05586     0.02091    -0.01503     0.08532    -0.03634
          23    -0.16961    -0.19415     0.38807    -0.01932    -0.11847    -0.00723
          24     0.00000     0.00000     0.00000     0.00000     0.00000     0.00000
          25     0.76553    -0.02366     0.19033    -0.14064     0.10707     0.47151
          26    -0.37080    -0.01516     0.00163     0.12379    -0.12025     0.82523
          27     0.00000     0.00000     0.00000     0.00000     0.00000     0.00000

                   25          26          27
 
 P.Frequency     3146.39     3231.24     3271.15
 
           1     0.01963    -0.00540     0.00026
           2    -0.05374     0.01425     0.00124
           3     0.00000     0.00000     0.00000
           4     0.00005    -0.03672    -0.00636
           5     0.02284     0.07019     0.02109
           6     0.00000     0.00000     0.00000
           7     0.00232     0.01654    -0.08270
           8    -0.00916    -0.00211    -0.00321
           9     0.00000     0.00000     0.00000
          10    -0.01382     0.00381     0.00044
          11     0.00084     0.00035    -0.00557
          12     0.00000     0.00000     0.00000
          13     0.00708    -0.00202     0.00021
          14     0.00153    -0.00038    -0.00006
          15     0.00000     0.00000     0.00000
          16    -0.41160     0.12037     0.01430
          17     0.82760    -0.23273    -0.01845
          18     0.00000     0.00000     0.00000
          19     0.11288     0.41811     0.09441
          20    -0.23220    -0.78825    -0.18690
          21     0.00000     0.00000     0.00000
          22    -0.04122    -0.21214     0.92680
          23    -0.00612     0.00330     0.00976
          24     0.00000     0.00000     0.00000
          25     0.05240    -0.01370     0.01213
          26     0.06646    -0.01718     0.03016
          27     0.00000     0.00000     0.00000



 ----------------------------------------------------------------------------
 Normal Eigenvalue ||    Projected Derivative Dipole Moments (debye/angs)
  Mode   [cm**-1]  ||      [d/dqX]             [d/dqY]           [d/dqZ]
 ------ ---------- || ------------------ ------------------ -----------------
    1       -0.000 ||      -0.021              -0.135             0.000
    2       -0.000 ||       0.000               0.000            -0.085
    3       -0.000 ||       0.000               0.000            -0.222
    4        0.000 ||       0.026               0.167             0.000
    5        0.000 ||       0.000               0.000             0.279
    6        0.000 ||       0.000               0.000             0.000
    7      276.297 ||       0.000               0.000             0.297
    8      281.414 ||      -0.207              -0.301             0.000
    9      391.291 ||       0.000               0.000             0.326
   10      507.502 ||      -0.263               0.610             0.000
   11      777.216 ||       0.000               0.000             0.978
   12      881.149 ||      -0.089              -0.342             0.000
   13      911.106 ||       0.000               0.000             0.903
   14     1007.828 ||       0.163               1.131             0.000
   15     1010.114 ||       0.000               0.000             0.807
   16     1035.933 ||       0.000               0.000             0.614
   17     1100.486 ||       0.537               0.206             0.000
   18     1273.476 ||       1.577               0.991             0.000
   19     1393.302 ||       0.772              -0.106             0.000
   20     1403.147 ||      -0.424               0.950             0.000
   21     1472.829 ||      -0.746               0.896             0.000
   22     1634.412 ||       0.520              -2.099             0.000
   23     1684.000 ||      -1.853              -1.611             0.000
   24     3048.107 ||      -0.633              -1.398             0.000
   25     3146.391 ||      -0.913               1.931             0.000
   26     3231.237 ||      -0.025              -0.222             0.000
   27     3271.145 ||      -0.145               0.060             0.000
 ----------------------------------------------------------------------------



  
  
 ----------------------------------------------------------------------------
 Normal Eigenvalue ||           Projected Infra Red Intensities
  Mode   [cm**-1]  || [atomic units] [(debye/angs)**2] [(KM/mol)] [arbitrary]
 ------ ---------- || -------------- ----------------- ---------- -----------
    1       -0.000 ||    0.000804           0.019         0.784       0.168
    2       -0.000 ||    0.000317           0.007         0.309       0.066
    3       -0.000 ||    0.002143           0.049         2.089       0.449
    4        0.000 ||    0.001241           0.029         1.210       0.260
    5        0.000 ||    0.003383           0.078         3.298       0.709
    6        0.000 ||    0.000000           0.000         0.000       0.000
    7      276.297 ||    0.003827           0.088         3.731       0.802
    8      281.414 ||    0.005786           0.133         5.640       1.212
    9      391.291 ||    0.004618           0.107         4.502       0.967
   10      507.502 ||    0.019118           0.441        18.637       4.005
   11      777.216 ||    0.041494           0.957        40.451       8.693
   12      881.149 ||    0.005411           0.125         5.274       1.134
   13      911.106 ||    0.035344           0.815        34.455       7.405
   14     1007.828 ||    0.056629           1.306        55.204      11.864
   15     1010.114 ||    0.028203           0.651        27.494       5.909
   16     1035.933 ||    0.016331           0.377        15.921       3.422
   17     1100.486 ||    0.014359           0.331        13.998       3.008
   18     1273.476 ||    0.150320           3.468       146.540      31.493
   19     1393.302 ||    0.026317           0.607        25.655       5.514
   20     1403.147 ||    0.046896           1.082        45.716       9.825
   21     1472.829 ||    0.058948           1.360        57.466      12.350
   22     1634.412 ||    0.202778           4.678       197.678      42.483
   23     1684.000 ||    0.261334           6.029       254.762      54.752
   24     3048.107 ||    0.102076           2.355        99.508      21.386
   25     3146.391 ||    0.197826           4.564       192.851      41.446
   26     3231.237 ||    0.002166           0.050         2.111       0.454
   27     3271.145 ||    0.001066           0.025         1.039       0.223
 ----------------------------------------------------------------------------



 vib:animation  F

 Task  times  cpu:     2755.2s     wall:     2792.0s
 
 
                                NWChem Input Module
                                -------------------
 
 
 Summary of allocated global arrays
-----------------------------------
  No active global arrays



                         GA Statistics for process    0
                         ------------------------------

       create   destroy   get      put      acc     scatter   gather  read&inc
calls: 6.73e+04 6.73e+04 5.57e+06 9.24e+05 2.21e+06    0        0     8.59e+04 
number of processes/call 1.83e+01 5.25e+01 2.20e+01 0.00e+00 0.00e+00
bytes total:             5.72e+09 7.02e+09 1.64e+09 0.00e+00 0.00e+00 6.88e+05
bytes remote:            3.23e+09 4.70e+09 1.16e+09 0.00e+00 0.00e+00 0.00e+00
Max memory consumed for GA by this process: 61382856 bytes
 
MA_summarize_allocated_blocks: starting scan ...
MA_summarize_allocated_blocks: scan completed: 0 heap blocks, 0 stack blocks
MA usage statistics:

	allocation statistics:
					      heap	     stack
					      ----	     -----
	current number of blocks	         0	         0
	maximum number of blocks	        25	        39
	current total bytes		         0	         0
	maximum total bytes		  51845232	  27107512
	maximum total K-bytes		     51846	     27108
	maximum total M-bytes		        52	        28
 
 
                                     CITATION
                                     --------
                Please cite the following reference when publishing
                           results obtained with NWChem:
 
          E. Apr, E. J. Bylaska, W. A. de Jong, N. Govind, K. Kowalski,
       T. P. Straatsma, M. Valiev, H. J. J. van Dam, Y. Alexeev, J. Anchell,
       V. Anisimov, F. W. Aquino, R. Atta-Fynn, J. Autschbach, N. P. Bauman,
     J. C. Becca, D. E. Bernholdt, K. Bhaskaran-Nair, S. Bogatko, P. Borowski,
        J. Boschen, J. Brabec, A. Bruner, E. Caut, Y. Chen, G. N. Chuev,
      C. J. Cramer, J. Daily, M. J. O. Deegan, T. H. Dunning Jr., M. Dupuis,
   K. G. Dyall, G. I. Fann, S. A. Fischer, A. Fonari, H. Frchtl, L. Gagliardi,
      J. Garza, N. Gawande, S. Ghosh, K. Glaesemann, A. W. Gtz, J. Hammond,
       V. Helms, E. D. Hermes, K. Hirao, S. Hirata, M. Jacquelin, L. Jensen,
   B. G. Johnson, H. Jnsson, R. A. Kendall, M. Klemm, R. Kobayashi, V. Konkov,
      S. Krishnamoorthy, M. Krishnan, Z. Lin, R. D. Lins, R. J. Littlefield,
      A. J. Logsdail, K. Lopata, W. Ma, A. V. Marenich, J. Martin del Campo,
   D. Mejia-Rodriguez, J. E. Moore, J. M. Mullin, T. Nakajima, D. R. Nascimento,
    J. A. Nichols, P. J. Nichols, J. Nieplocha, A. Otero-de-la-Roza, B. Palmer,
    A. Panyala, T. Pirojsirikul, B. Peng, R. Peverati, J. Pittner, L. Pollack,
   R. M. Richard, P. Sadayappan, G. C. Schatz, W. A. Shelton, D. W. Silverstein,
   D. M. A. Smith, T. A. Soares, D. Song, M. Swart, H. L. Taylor, G. S. Thomas,
            V. Tipparaju, D. G. Truhlar, K. Tsemekhman, T. Van Voorhis,
     . Vzquez-Mayagoitia, P. Verma, O. Villa, A. Vishnu, K. D. Vogiatzis,
        D. Wang, J. H. Weare, M. J. Williamson, T. L. Windus, K. Woliski,
        A. T. Wong, Q. Wu, C. Yang, Q. Yu, M. Zacharias, Z. Zhang, Y. Zhao,
                                and R. J. Harrison
                        "NWChem: Past, present, and future
                         J. Chem. Phys. 152, 184102 (2020)
                               doi:10.1063/5.0004997
 
                                      AUTHORS
                                      -------
     E. Apra, E. J. Bylaska, N. Govind, K. Kowalski, M. Valiev, W. A. de Jong,
      T. P. Straatsma, H. J. J. van Dam, D. Wang, T. L. Windus, N. P. Bauman,
       A. Panyala, J. Hammond, J. Autschbach, K. Bhaskaran-Nair, J. Brabec,
    K. Lopata, S. A. Fischer, S. Krishnamoorthy, M. Jacquelin, W. Ma, M. Klemm,
       O. Villa, Y. Chen, V. Anisimov, F. Aquino, S. Hirata, M. T. Hackler,
           Eric Hermes, L. Jensen, J. E. Moore, J. C. Becca, V. Konjkov,
            D. Mejia-Rodriguez, T. Risthaus, M. Malagoli, A. Marenich,
   A. Otero-de-la-Roza, J. Mullin, P. Nichols, R. Peverati, J. Pittner, Y. Zhao,
        P.-D. Fan, A. Fonari, M. J. Williamson, R. J. Harrison, J. R. Rehr,
      M. Dupuis, D. Silverstein, D. M. A. Smith, J. Nieplocha, V. Tipparaju,
      M. Krishnan, B. E. Van Kuiken, A. Vazquez-Mayagoitia, M. Swart, Q. Wu,
   T. Van Voorhis, A. A. Auer, M. Nooijen, L. D. Crosby, E. Brown, G. Cisneros,
     G. I. Fann, H. Fruchtl, J. Garza, K. Hirao, R. A. Kendall, J. A. Nichols,
       K. Tsemekhman, K. Wolinski, J. Anchell, D. E. Bernholdt, P. Borowski,
       T. Clark, D. Clerc, H. Dachsel, M. J. O. Deegan, K. Dyall, D. Elwood,
      E. Glendening, M. Gutowski, A. C. Hess, J. Jaffe, B. G. Johnson, J. Ju,
        R. Kobayashi, R. Kutteh, Z. Lin, R. Littlefield, X. Long, B. Meng,
      T. Nakajima, S. Niu, L. Pollack, M. Rosing, K. Glaesemann, G. Sandrone,
      M. Stave, H. Taylor, G. Thomas, J. H. van Lenthe, A. T. Wong, Z. Zhang.

 Total times  cpu:     3516.2s     wall:     3565.5s
