 argument  1 = 1O.nw
 


============================== echo of input deck ==============================
echo
start 1O
title "H,H,H Open"
charge 0

geometry
 zmatrix
  O
  C  1  R1
  C  2  R2  1  A1
  C  3  R3  2  A2  1  D0
  O  4  R4  3  A3  2  D0
  H  1  R5  2  A4  3  D180
  H  2  R6  3  A5  4  D180
  H  3  R7  2  A6  1  D180
  H  4  R8  3  A7  2  D180
  variables
    R1  1.329
    R2  1.363
    A1  124.5
    R3  1.440
    A2  119.5
    R4  1.249
    A3  123.5
    R5  0.994
    A4  105.4
    R6  1.085
    A5  122.5
    R7  1.078
    A6  120.0
    R8  1.099
    A7  117.6
  constants
    D0  0.000
    D180 180.0
 end
end

basis spherical
 * library aug-cc-pVDZ
end

set lindep:n_dep 0

set cphf:maxsub 95
set cphf:maxiter 999
set int:acc_std 1d-16
set fock:densityscreen f

scf
 maxiter 99
 vectors input atomic
 thresh 1d-9
 tol2e 1d-15
end

mp2
 freeze atomic
 tight
end

driver
 clear
 maxiter 99
 tight
end

set "mp2:aotol2e fock" 1d-15
set mp2:aotol2e 1d-15
set mp2:backtol 1d-15


task mp2 optimize
task mp2 frequencies

================================================================================


                                         
                                         
 
 
             Northwest Computational Chemistry Package (NWChem) 7.0.0
             --------------------------------------------------------
 
 
                    Environmental Molecular Sciences Laboratory
                       Pacific Northwest National Laboratory
                                Richland, WA 99352
 
                              Copyright (c) 1994-2020
                       Pacific Northwest National Laboratory
                            Battelle Memorial Institute
 
             NWChem is an open-source computational chemistry package
                        distributed under the terms of the
                      Educational Community License (ECL) 2.0
             A copy of the license is included with this distribution
                              in the LICENSE.TXT file
 
                                  ACKNOWLEDGMENT
                                  --------------

            This software and its documentation were developed at the
            EMSL at Pacific Northwest National Laboratory, a multiprogram
            national laboratory, operated for the U.S. Department of Energy
            by Battelle under Contract Number DE-AC05-76RL01830. Support
            for this work was provided by the Department of Energy Office
            of Biological and Environmental Research, Office of Basic
            Energy Sciences, and the Office of Advanced Scientific Computing.


           Job information
           ---------------

    hostname        = compute-0-27.local
    program         = /scratch/nwchem.277679
    date            = Wed Mar 24 12:29:19 2021

    compiled        = Thu_Jun_25_16:07:03_2020
    source          = /home/edo/nwchem-7.0.1
    nwchem branch   = 7.0.1
    nwchem revision = de46fdf
    ga revision     = 5.7.1
    use scalapack   = T
    input           = 1O.nw
    prefix          = 1O.
    data base       = ./1O.db
    status          = startup
    nproc           =       11
    time left       =     -1s



           Memory information
           ------------------

    heap     =   13107200 doubles =    100.0 Mbytes
    stack    =   13107197 doubles =    100.0 Mbytes
    global   =   26214400 doubles =    200.0 Mbytes (distinct from heap & stack)
    total    =   52428797 doubles =    400.0 Mbytes
    verify   = yes
    hardfail = no 


           Directory information
           ---------------------
 
  0 permanent = .
  0 scratch   = /scratch
 
 
 
 
                                NWChem Input Module
                                -------------------
 
 
                                    H,H,H Open
                                    ----------

 Scaling coordinates for geometry "geometry" by  1.889725989
 (inverse scale =  0.529177249)

 CS  symmetry detected
 
 
                             Geometry "geometry" -> ""
                             -------------------------
 
 Output coordinates in angstroms (scale by  1.889725989 to convert to a.u.)
 
  No.       Tag          Charge          X              Y              Z
 ---- ---------------- ---------- -------------- -------------- --------------
    1 O                    8.0000    -0.84877665    -1.28021254     0.00000000
    2 C                    6.0000     0.46996716    -1.11542251     0.00000000
    3 C                    6.0000     1.09673891     0.09491884     0.00000000
    4 C                    6.0000     0.30987313     1.30092143     0.00000000
    5 O                    8.0000    -0.93909979     1.30914508     0.00000000
    6 H                    1.0000    -0.99187613    -2.26385807     0.00000000
    7 H                    1.0000     1.01447901    -2.05389565     0.00000000
    8 H                    1.0000     2.17360968     0.14424776     0.00000000
    9 H                    1.0000     0.84732383     2.25953905     0.00000000
 
      Atomic Mass 
      ----------- 
 
      O                 15.994910
      C                 12.000000
      H                  1.007825
 

 Effective nuclear repulsion energy (a.u.)     162.4533345605

            Nuclear Dipole moment (a.u.) 
            ----------------------------
        X                 Y               Z
 ---------------- ---------------- ----------------
     0.0000000000     0.0000000000     0.0000000000
 
      Symmetry information
      --------------------
 
 Group name             Cs        
 Group number              2
 Group order               2
 No. of unique centers     9
 
      Symmetry unique atoms
 
     1    2    3    4    5    6    7    8    9
 


                                Z-matrix (user)
                                -------- 

 Units are Angstrom for bonds and degrees for angles

  Constants are marked with an asterisk (*).

  Constrained variables are marked with a plus sign (+).

 
      Type          Name      I     J     K     L     M      Value
      ----------- --------  ----- ----- ----- ----- ----- ----------
    1 Stretch      R1          2     1                       1.32900
    2 Stretch      R2          3     2                       1.36300
    3 Bend         A1          3     2     1               124.50000
    4 Stretch      R3          4     3                       1.44000
    5 Bend         A2          4     3     2               119.50000
    6*Torsion      D0          4     3     2     1           0.00000
    7 Stretch      R4          5     4                       1.24900
    8 Bend         A3          5     4     3               123.50000
    9*Torsion      D0          5     4     3     2           0.00000
   10 Stretch      R5          6     1                       0.99400
   11 Bend         A4          6     1     2               105.40000
   12*Torsion      D180        6     1     2     3         180.00000
   13 Stretch      R6          7     2                       1.08500
   14 Bend         A5          7     2     3               122.50000
   15*Torsion      D180        7     2     3     4         180.00000
   16 Stretch      R7          8     3                       1.07800
   17 Bend         A6          8     3     2               120.00000
   18*Torsion      D180        8     3     2     1         180.00000
   19 Stretch      R8          9     4                       1.09900
   20 Bend         A7          9     4     3               117.60000
   21*Torsion      D180        9     4     3     2         180.00000
 
 
            XYZ format geometry
            -------------------
     9
 geometry
 O                    -0.84877665    -1.28021254     0.00000000
 C                     0.46996716    -1.11542251     0.00000000
 C                     1.09673891     0.09491884     0.00000000
 C                     0.30987313     1.30092143     0.00000000
 O                    -0.93909979     1.30914508     0.00000000
 H                    -0.99187613    -2.26385807     0.00000000
 H                     1.01447901    -2.05389565     0.00000000
 H                     2.17360968     0.14424776     0.00000000
 H                     0.84732383     2.25953905     0.00000000
 
 ==============================================================================
                                internuclear distances
 ------------------------------------------------------------------------------
       center one      |      center two      | atomic units |  angstroms
 ------------------------------------------------------------------------------
    2 C                |   1 O                |     2.51145  |     1.32900
    3 C                |   2 C                |     2.57570  |     1.36300
    4 C                |   3 C                |     2.72121  |     1.44000
    5 O                |   4 C                |     2.36027  |     1.24900
    6 H                |   1 O                |     1.87839  |     0.99400
    7 H                |   2 C                |     2.05035  |     1.08500
    8 H                |   3 C                |     2.03712  |     1.07800
    9 H                |   4 C                |     2.07681  |     1.09900
 ------------------------------------------------------------------------------
                         number of included internuclear distances:          8
 ==============================================================================



 ==============================================================================
                                 internuclear angles
 ------------------------------------------------------------------------------
        center 1       |       center 2       |       center 3       |  degrees
 ------------------------------------------------------------------------------
    2 C                |   1 O                |   6 H                |   105.40
    1 O                |   2 C                |   3 C                |   124.50
    1 O                |   2 C                |   7 H                |   113.00
    3 C                |   2 C                |   7 H                |   122.50
    2 C                |   3 C                |   4 C                |   119.50
    2 C                |   3 C                |   8 H                |   120.00
    4 C                |   3 C                |   8 H                |   120.50
    3 C                |   4 C                |   5 O                |   123.50
    3 C                |   4 C                |   9 H                |   117.60
    5 O                |   4 C                |   9 H                |   118.90
 ------------------------------------------------------------------------------
                            number of included internuclear angles:         10
 ==============================================================================





 Summary of "ao basis" -> "" (spherical)
 ------------------------------------------------------------------------------
       Tag                 Description            Shells   Functions and Types
 ---------------- ------------------------------  ------  ---------------------
 *                        aug-cc-pVDZ                 on all atoms 


 
  Deleted DRIVER restart files 
 
 
 
                           NWChem Geometry Optimization
                           ----------------------------
 
 
 
 
                                    H,H,H Open
 
 
 maximum gradient threshold         (gmax) =   0.000015
 rms gradient threshold             (grms) =   0.000010
 maximum cartesian step threshold   (xmax) =   0.000060
 rms cartesian step threshold       (xrms) =   0.000040
 fixed trust radius                (trust) =   0.300000
 maximum step size to saddle      (sadstp) =   0.100000
 energy precision                  (eprec) =   1.0D-07
 maximum number of steps          (nptopt) =   99
 initial hessian option           (inhess) =    0
 line search option               (linopt) =    1
 hessian update option            (modupd) =    1
 saddle point option              (modsad) =    0
 initial eigen-mode to follow     (moddir) =    0
 initial variable to follow       (vardir) =    0
 follow first negative mode     (firstneg) =    T
 apply conjugacy                    (opcg) =    F
 source of zmatrix                         =   user    


          -------------------
          Energy Minimization
          -------------------

 
 Names of Z-matrix variables 
    1 R1           2 R2           3 A1           4 R3           5 A2      
    6 D0           7 R4           8 A3           9 D0          10 R5      
   11 A4          12 D180        13 R6          14 A5          15 D180    
   16 R7          17 A6          18 D180        19 R8          20 A7      
   21 D180    
 
 Variables with the same non-blank name are constrained to be equal
 
     variables named       D0 =     6    9 
     variables named     D180 =    12   15   18   21 

 Number of frozen variables =    6
           Frozen variables =    6    9   12   15   18   21
 
 Using diagonal initial Hessian 
 Scaling for Hessian diagonals: bonds = 1.00  angles = 0.25  torsions = 0.10

          --------
          Step   0
          --------
 
 
                         Geometry "geometry" -> "geometry"
                         ---------------------------------
 
 Output coordinates in angstroms (scale by  1.889725989 to convert to a.u.)
 
  No.       Tag          Charge          X              Y              Z
 ---- ---------------- ---------- -------------- -------------- --------------
    1 O                    8.0000    -0.84877665    -1.28021254     0.00000000
    2 C                    6.0000     0.46996716    -1.11542251     0.00000000
    3 C                    6.0000     1.09673891     0.09491884     0.00000000
    4 C                    6.0000     0.30987313     1.30092143     0.00000000
    5 O                    8.0000    -0.93909979     1.30914508     0.00000000
    6 H                    1.0000    -0.99187613    -2.26385807     0.00000000
    7 H                    1.0000     1.01447901    -2.05389565     0.00000000
    8 H                    1.0000     2.17360968     0.14424776     0.00000000
    9 H                    1.0000     0.84732383     2.25953905     0.00000000
 
      Atomic Mass 
      ----------- 
 
      O                 15.994910
      C                 12.000000
      H                  1.007825
 

 Effective nuclear repulsion energy (a.u.)     162.4533345605

            Nuclear Dipole moment (a.u.) 
            ----------------------------
        X                 Y               Z
 ---------------- ---------------- ----------------
     0.0000000000     0.0000000000     0.0000000000
 
      Symmetry information
      --------------------
 
 Group name             Cs        
 Group number              2
 Group order               2
 No. of unique centers     9
 
      Symmetry unique atoms
 
     1    2    3    4    5    6    7    8    9
 
                      Basis "ao basis" -> "ao basis" (spherical)
                      -----
  O (Oxygen)
  ----------
            Exponent  Coefficients 
       -------------- ---------------------------------------------------------
  1 S  1.17200000E+04  0.000710
  1 S  1.75900000E+03  0.005470
  1 S  4.00800000E+02  0.027837
  1 S  1.13700000E+02  0.104800
  1 S  3.70300000E+01  0.283062
  1 S  1.32700000E+01  0.448719
  1 S  5.02500000E+00  0.270952
  1 S  1.01300000E+00  0.015458
 
  2 S  1.17200000E+04 -0.000160
  2 S  1.75900000E+03 -0.001263
  2 S  4.00800000E+02 -0.006267
  2 S  1.13700000E+02 -0.025716
  2 S  3.70300000E+01 -0.070924
  2 S  1.32700000E+01 -0.165411
  2 S  5.02500000E+00 -0.116955
  2 S  1.01300000E+00  0.557368
 
  3 S  3.02300000E-01  1.000000
 
  4 S  7.89600000E-02  1.000000
 
  5 P  1.77000000E+01  0.043018
  5 P  3.85400000E+00  0.228913
  5 P  1.04600000E+00  0.508728
 
  6 P  2.75300000E-01  1.000000
 
  7 P  6.85600000E-02  1.000000
 
  8 D  1.18500000E+00  1.000000
 
  9 D  3.32000000E-01  1.000000
 
  C (Carbon)
  ----------
            Exponent  Coefficients 
       -------------- ---------------------------------------------------------
  1 S  6.66500000E+03  0.000692
  1 S  1.00000000E+03  0.005329
  1 S  2.28000000E+02  0.027077
  1 S  6.47100000E+01  0.101718
  1 S  2.10600000E+01  0.274740
  1 S  7.49500000E+00  0.448564
  1 S  2.79700000E+00  0.285074
  1 S  5.21500000E-01  0.015204
 
  2 S  6.66500000E+03 -0.000146
  2 S  1.00000000E+03 -0.001154
  2 S  2.28000000E+02 -0.005725
  2 S  6.47100000E+01 -0.023312
  2 S  2.10600000E+01 -0.063955
  2 S  7.49500000E+00 -0.149981
  2 S  2.79700000E+00 -0.127262
  2 S  5.21500000E-01  0.544529
 
  3 S  1.59600000E-01  1.000000
 
  4 S  4.69000000E-02  1.000000
 
  5 P  9.43900000E+00  0.038109
  5 P  2.00200000E+00  0.209480
  5 P  5.45600000E-01  0.508557
 
  6 P  1.51700000E-01  1.000000
 
  7 P  4.04100000E-02  1.000000
 
  8 D  5.50000000E-01  1.000000
 
  9 D  1.51000000E-01  1.000000
 
  H (Hydrogen)
  ------------
            Exponent  Coefficients 
       -------------- ---------------------------------------------------------
  1 S  1.30100000E+01  0.019685
  1 S  1.96200000E+00  0.137977
  1 S  4.44600000E-01  0.478148
 
  2 S  1.22000000E-01  1.000000
 
  3 S  2.97400000E-02  1.000000
 
  4 P  7.27000000E-01  1.000000
 
  5 P  1.41000000E-01  1.000000
 


 Summary of "ao basis" -> "ao basis" (spherical)
 ------------------------------------------------------------------------------
       Tag                 Description            Shells   Functions and Types
 ---------------- ------------------------------  ------  ---------------------
 O                        aug-cc-pVDZ                9       23   4s3p2d
 C                        aug-cc-pVDZ                9       23   4s3p2d
 H                        aug-cc-pVDZ                5        9   3s2p


                                 NWChem SCF Module
                                 -----------------
 
 
                                    H,H,H Open
 
 

  ao basis        = "ao basis"
  functions       =   151
  atoms           =     9
  closed shells   =    19
  open shells     =     0
  charge          =   0.00
  wavefunction    = RHF 
  input vectors   = atomic
  output vectors  = ./1O.movecs
  use symmetry    = T
  symmetry adapt  = T


 Summary of "ao basis" -> "ao basis" (spherical)
 ------------------------------------------------------------------------------
       Tag                 Description            Shells   Functions and Types
 ---------------- ------------------------------  ------  ---------------------
 O                        aug-cc-pVDZ                9       23   4s3p2d
 C                        aug-cc-pVDZ                9       23   4s3p2d
 H                        aug-cc-pVDZ                5        9   3s2p


      Symmetry analysis of basis
      --------------------------
 
        a'        108
        a"         43
 

int_init: setting std/high accuracies to  1.0D-16  1.0D-32

 Forming initial guess at       0.3s


 Forcing the number of linearly dependent vectors to be  0
 
      Superposition of Atomic Density Guess
      -------------------------------------
 
 Sum of atomic energies:        -264.53203373
 
      Non-variational initial energy
      ------------------------------

 Total energy =    -267.003899
 1-e energy   =    -681.359004
 2-e energy   =     251.901770
 HOMO         =      -0.307758
 LUMO         =      -0.067533
 
 
      Symmetry analysis of molecular orbitals - initial
      -------------------------------------------------
 
  Numbering of irreducible representations: 
 
     1 a'          2 a"      
 
  Orbital symmetries:
 
     1 a'          2 a'          3 a'          4 a'          5 a'      
     6 a'          7 a'          8 a'          9 a'         10 a'      
    11 a'         12 a'         13 a'         14 a"         15 a"      
    16 a'         17 a'         18 a'         19 a"         20 a"      
    21 a'         22 a'         23 a'         24 a'         25 a"      
    26 a'         27 a'         28 a"         29 a'      
 

 Starting SCF solution at       1.2s



 ----------------------------------------------
         Quadratically convergent ROHF

 Convergence threshold     :          1.000E-09
 Maximum no. of iterations :           99
 Final Fock-matrix accuracy:          1.000E-15
 ----------------------------------------------

 Warning: symmetry breaking in RHF:   1.743147906891692E-014

              iter       energy          gnorm     gmax       time
             ----- ------------------- --------- --------- --------
                 1     -265.4997343116  1.49D+00  2.93D-01      2.0
 Warning: symmetry breaking in RHF:   7.910616012012706E-013
 Warning: symmetry breaking in RHF:   5.348362769487436E-013
                 2     -265.6245110723  4.74D-01  7.64D-02      4.0
 Warning: symmetry breaking in RHF:   6.814271247584989E-013
                 3     -265.6465722454  2.04D-02  5.73D-03      7.5
 Warning: symmetry breaking in RHF:   7.184104712714390E-013
                 4     -265.6466760224  2.88D-04  6.18D-05     12.8
 Warning: symmetry breaking in RHF:   7.182899657619255E-013
                 5     -265.6466760332  3.50D-08  8.04D-09     21.6
 Warning: symmetry breaking in RHF:   7.182879877992027E-013
                 6     -265.6466760332  4.58D-11  1.50D-11     28.5


       Final RHF  results 
       ------------------ 

         Total SCF energy =   -265.646676033230
      One-electron energy =   -684.792615564054
      Two-electron energy =    256.692604970279
 Nuclear repulsion energy =    162.453334560545

        Time for solution =     27.5s


 
       Symmetry analysis of molecular orbitals - final
       -----------------------------------------------
 
  Numbering of irreducible representations: 
 
     1 a'          2 a"      
 
  Orbital symmetries:
 
     1 a'          2 a'          3 a'          4 a'          5 a'      
     6 a'          7 a'          8 a'          9 a'         10 a'      
    11 a'         12 a'         13 a'         14 a"         15 a'      
    16 a'         17 a"         18 a'         19 a"         20 a'      
    21 a'         22 a'         23 a'         24 a"         25 a"      
    26 a'         27 a'         28 a'         29 a"      
 
             Final eigenvalues
             -----------------

              1      
    1  -20.6337
    2  -20.5392
    3  -11.3498
    4  -11.3276
    5  -11.2375
    6   -1.4461
    7   -1.3495
    8   -1.0655
    9   -0.8942
   10   -0.7774
   11   -0.7704
   12   -0.6535
   13   -0.6413
   14   -0.6086
   15   -0.5757
   16   -0.5637
   17   -0.5049
   18   -0.4087
   19   -0.3565
   20    0.0216
   21    0.0385
   22    0.0496
   23    0.0661
   24    0.0717
   25    0.1011
   26    0.1098
   27    0.1254
   28    0.1336
   29    0.1422
 
                       ROHF Final Molecular Orbital Analysis
                       -------------------------------------
 
 Vector    6  Occ=2.000000D+00  E=-1.446109D+00  Symmetry=a'
              MO Center= -6.1D-01, -1.3D+00, -3.8D-30, r^2= 6.2D-01
   Bfn.  Coefficient  Atom+Function         Bfn.  Coefficient  Atom+Function  
  ----- ------------  ---------------      ----- ------------  ---------------
     3      0.466908  1 O  s                  2      0.413257  1 O  s          
   116      0.173921  6 H  s                 25      0.152408  2 C  s          
 
 Vector    7  Occ=2.000000D+00  E=-1.349490D+00  Symmetry=a'
              MO Center= -5.8D-01,  1.3D+00,  1.4D-34, r^2= 6.4D-01
   Bfn.  Coefficient  Atom+Function         Bfn.  Coefficient  Atom+Function  
  ----- ------------  ---------------      ----- ------------  ---------------
    95      0.453701  5 O  s                 94      0.396085  5 O  s          
    72      0.219686  4 C  s                 71      0.215528  4 C  s          
    74     -0.166548  4 C  px                55     -0.154982  3 C  py         
 
 Vector    8  Occ=2.000000D+00  E=-1.065473D+00  Symmetry=a'
              MO Center=  6.8D-01, -2.2D-01,  3.7D-16, r^2= 1.7D+00
   Bfn.  Coefficient  Atom+Function         Bfn.  Coefficient  Atom+Function  
  ----- ------------  ---------------      ----- ------------  ---------------
    48      0.309245  3 C  s                 25      0.236664  2 C  s          
    49      0.204215  3 C  s          
 
 Vector    9  Occ=2.000000D+00  E=-8.942259D-01  Symmetry=a'
              MO Center=  4.0D-01,  6.6D-03,  7.2D-16, r^2= 3.0D+00
   Bfn.  Coefficient  Atom+Function         Bfn.  Coefficient  Atom+Function  
  ----- ------------  ---------------      ----- ------------  ---------------
    27      0.360482  2 C  s                 26     -0.284733  2 C  s          
    25     -0.248217  2 C  s                 71      0.235664  4 C  s          
    72      0.216598  4 C  s                 52      0.214836  3 C  py         
    50     -0.208835  3 C  s                126     -0.195692  7 H  s          
    49      0.180540  3 C  s                125     -0.172256  7 H  s          
 
 Vector   10  Occ=2.000000D+00  E=-7.773630D-01  Symmetry=a'
              MO Center= -8.4D-02, -1.2D+00, -3.1D-16, r^2= 2.0D+00
   Bfn.  Coefficient  Atom+Function         Bfn.  Coefficient  Atom+Function  
  ----- ------------  ---------------      ----- ------------  ---------------
     6      0.354985  1 O  py               116     -0.287225  6 H  s          
    28     -0.250723  2 C  px               126     -0.213487  7 H  s          
   125     -0.200755  7 H  s                  9      0.174391  1 O  py         
     5      0.170168  1 O  px                29      0.154449  2 C  py         
 
 Vector   11  Occ=2.000000D+00  E=-7.703902D-01  Symmetry=a'
              MO Center=  1.8D-01,  4.9D-02, -2.0D-15, r^2= 3.6D+00
   Bfn.  Coefficient  Atom+Function         Bfn.  Coefficient  Atom+Function  
  ----- ------------  ---------------      ----- ------------  ---------------
    50      0.279027  3 C  s                  5      0.251093  1 O  px         
    29     -0.238262  2 C  py               143      0.224474  9 H  s          
    49     -0.209873  3 C  s                 71      0.196455  4 C  s          
    27     -0.192825  2 C  s                 72      0.184982  4 C  s          
   125      0.171277  7 H  s                126      0.171876  7 H  s          
 
 Vector   12  Occ=2.000000D+00  E=-6.535016D-01  Symmetry=a'
              MO Center=  3.0D-01,  6.4D-01, -1.3D-15, r^2= 3.0D+00
   Bfn.  Coefficient  Atom+Function         Bfn.  Coefficient  Atom+Function  
  ----- ------------  ---------------      ----- ------------  ---------------
   135      0.278381  8 H  s                 51      0.270375  3 C  px         
    75      0.258569  4 C  py               134      0.243507  8 H  s          
    97     -0.224989  5 O  px                98      0.183013  5 O  py         
     6      0.181175  1 O  py               143      0.177596  9 H  s          
    95      0.155897  5 O  s          
 
 Vector   13  Occ=2.000000D+00  E=-6.413256D-01  Symmetry=a'
              MO Center=  5.0D-02,  2.3D-01,  1.5D-15, r^2= 2.9D+00
   Bfn.  Coefficient  Atom+Function         Bfn.  Coefficient  Atom+Function  
  ----- ------------  ---------------      ----- ------------  ---------------
    52      0.278626  3 C  py                 5      0.260590  1 O  px         
    75     -0.248589  4 C  py                55      0.212025  3 C  py         
    97     -0.203435  5 O  px                28     -0.200293  2 C  px         
    29     -0.199486  2 C  py               144     -0.167139  9 H  s          
     8      0.157636  1 O  px               143     -0.151072  9 H  s          
 
 Vector   14  Occ=2.000000D+00  E=-6.085892D-01  Symmetry=a"
              MO Center= -4.9D-01, -1.1D+00,  4.3D-16, r^2= 1.3D+00
   Bfn.  Coefficient  Atom+Function         Bfn.  Coefficient  Atom+Function  
  ----- ------------  ---------------      ----- ------------  ---------------
     7      0.533201  1 O  pz                10      0.390531  1 O  pz         
    30      0.234436  2 C  pz         
 
 Vector   15  Occ=2.000000D+00  E=-5.756685D-01  Symmetry=a'
              MO Center=  1.9D-01,  5.6D-01, -6.2D-16, r^2= 3.2D+00
   Bfn.  Coefficient  Atom+Function         Bfn.  Coefficient  Atom+Function  
  ----- ------------  ---------------      ----- ------------  ---------------
    97      0.367235  5 O  px               135      0.325297  8 H  s          
    74     -0.318342  4 C  px               134      0.256697  8 H  s          
    51      0.242757  3 C  px                50     -0.223276  3 C  s          
   100      0.184826  5 O  px                 5      0.176361  1 O  px         
    95     -0.171084  5 O  s          
 
 Vector   16  Occ=2.000000D+00  E=-5.636887D-01  Symmetry=a'
              MO Center= -9.8D-02, -8.1D-01,  2.6D-17, r^2= 2.8D+00
   Bfn.  Coefficient  Atom+Function         Bfn.  Coefficient  Atom+Function  
  ----- ------------  ---------------      ----- ------------  ---------------
   126      0.309419  7 H  s                  6      0.306306  1 O  py         
    27     -0.283383  2 C  s                 29     -0.284746  2 C  py         
   125      0.269112  7 H  s                 50      0.242197  3 C  s          
     5     -0.219837  1 O  px               116     -0.195572  6 H  s          
     9      0.186424  1 O  py                98     -0.177805  5 O  py         
 
 Vector   17  Occ=2.000000D+00  E=-5.048959D-01  Symmetry=a"
              MO Center= -3.8D-01,  1.0D+00, -7.4D-15, r^2= 1.7D+00
   Bfn.  Coefficient  Atom+Function         Bfn.  Coefficient  Atom+Function  
  ----- ------------  ---------------      ----- ------------  ---------------
    99      0.429376  5 O  pz                76      0.320133  4 C  pz         
   102      0.320272  5 O  pz                 7     -0.183003  1 O  pz         
    79      0.174067  4 C  pz         
 
 Vector   18  Occ=2.000000D+00  E=-4.086739D-01  Symmetry=a'
              MO Center= -4.0D-01,  1.2D+00,  9.8D-18, r^2= 1.9D+00
   Bfn.  Coefficient  Atom+Function         Bfn.  Coefficient  Atom+Function  
  ----- ------------  ---------------      ----- ------------  ---------------
    98      0.552367  5 O  py               101      0.421416  5 O  py         
   143     -0.219299  9 H  s                 78     -0.212263  4 C  py         
    52      0.173806  3 C  py                75     -0.172662  4 C  py         
 
 Vector   19  Occ=2.000000D+00  E=-3.564891D-01  Symmetry=a"
              MO Center=  4.2D-01, -1.4D-01, -1.6D-15, r^2= 2.5D+00
   Bfn.  Coefficient  Atom+Function         Bfn.  Coefficient  Atom+Function  
  ----- ------------  ---------------      ----- ------------  ---------------
    53      0.388838  3 C  pz                56      0.303901  3 C  pz         
    30      0.273437  2 C  pz                99     -0.254604  5 O  pz         
     7     -0.239495  1 O  pz               102     -0.196945  5 O  pz         
    10     -0.191904  1 O  pz                33      0.192661  2 C  pz         
 
 Vector   20  Occ=0.000000D+00  E= 2.162580D-02  Symmetry=a'
              MO Center=  6.1D-01, -3.2D+00,  8.6D-14, r^2= 1.3D+01
   Bfn.  Coefficient  Atom+Function         Bfn.  Coefficient  Atom+Function  
  ----- ------------  ---------------      ----- ------------  ---------------
    73      4.809224  4 C  s                127     -2.400901  7 H  s          
    58     -1.747803  3 C  py                35     -1.431505  2 C  py         
    57      1.322217  3 C  px               118     -1.302955  6 H  s          
    81     -1.290476  4 C  py                50     -1.235151  3 C  s          
    27      1.203558  2 C  s                136     -0.938019  8 H  s          
 
 Vector   21  Occ=0.000000D+00  E= 3.853310D-02  Symmetry=a'
              MO Center=  2.4D+00,  3.6D-01,  6.2D-14, r^2= 2.1D+01
   Bfn.  Coefficient  Atom+Function         Bfn.  Coefficient  Atom+Function  
  ----- ------------  ---------------      ----- ------------  ---------------
    27      6.771937  2 C  s                 50     -5.519904  3 C  s          
   136     -4.551046  8 H  s                 57      3.394050  3 C  px         
    35      2.699544  2 C  py                73      2.467636  4 C  s          
    58      1.943830  3 C  py               127      1.553661  7 H  s          
   118      1.496119  6 H  s                145     -1.217346  9 H  s          
 
 Vector   22  Occ=0.000000D+00  E= 4.961855D-02  Symmetry=a'
              MO Center=  8.3D-01, -2.6D-01, -3.5D-16, r^2= 2.8D+01
   Bfn.  Coefficient  Atom+Function         Bfn.  Coefficient  Atom+Function  
  ----- ------------  ---------------      ----- ------------  ---------------
   127      4.288042  7 H  s                145     -4.061746  9 H  s          
    81      2.992395  4 C  py               118     -2.416432  6 H  s          
    35      2.067506  2 C  py                73     -1.845732  4 C  s          
    27      1.710728  2 C  s                 34     -1.266954  2 C  px         
    50      1.205669  3 C  s                 58      1.147008  3 C  py         
 
 Vector   23  Occ=0.000000D+00  E= 6.607032D-02  Symmetry=a'
              MO Center=  1.6D+00,  2.9D-01,  7.6D-16, r^2= 2.9D+01
   Bfn.  Coefficient  Atom+Function         Bfn.  Coefficient  Atom+Function  
  ----- ------------  ---------------      ----- ------------  ---------------
   136      6.855966  8 H  s                127     -5.335366  7 H  s          
   145     -4.697637  9 H  s                 57     -4.256706  3 C  px         
   118      2.538342  6 H  s                 81      2.474027  4 C  py         
    34      2.017475  2 C  px                35     -1.473445  2 C  py         
   135      1.344985  8 H  s                 50      1.237146  3 C  s          
 
 Vector   24  Occ=0.000000D+00  E= 7.171654D-02  Symmetry=a"
              MO Center=  5.8D-01, -1.6D-01,  1.9D-14, r^2= 6.9D+00
   Bfn.  Coefficient  Atom+Function         Bfn.  Coefficient  Atom+Function  
  ----- ------------  ---------------      ----- ------------  ---------------
    36      1.338764  2 C  pz                59     -0.774230  3 C  pz         
    13     -0.427609  1 O  pz                82     -0.393386  4 C  pz         
   105      0.307486  5 O  pz                33      0.293273  2 C  pz         
    30      0.280508  2 C  pz                79     -0.232220  4 C  pz         
    76     -0.222923  4 C  pz                99      0.219783  5 O  pz         
 
 Vector   25  Occ=0.000000D+00  E= 1.010720D-01  Symmetry=a"
              MO Center=  4.2D-01, -4.3D-01, -1.4D-13, r^2= 1.3D+01
   Bfn.  Coefficient  Atom+Function         Bfn.  Coefficient  Atom+Function  
  ----- ------------  ---------------      ----- ------------  ---------------
    36      1.778026  2 C  pz                82      1.322955  4 C  pz         
    59     -1.226963  3 C  pz                13     -0.484126  1 O  pz         
   105     -0.471885  5 O  pz         
 
 Vector   26  Occ=0.000000D+00  E= 1.098323D-01  Symmetry=a'
              MO Center= -4.8D-01, -9.0D-01, -6.7D-14, r^2= 1.9D+01
   Bfn.  Coefficient  Atom+Function         Bfn.  Coefficient  Atom+Function  
  ----- ------------  ---------------      ----- ------------  ---------------
    27     13.475731  2 C  s                 50    -10.969592  3 C  s          
    35      8.423352  2 C  py                58      6.135700  3 C  py         
    73     -6.136717  4 C  s                127      4.236090  7 H  s          
    34      3.921135  2 C  px                80     -2.506420  4 C  px         
    81      1.984464  4 C  py               118      1.938021  6 H  s          
 
 Vector   27  Occ=0.000000D+00  E= 1.254353D-01  Symmetry=a'
              MO Center= -5.4D-02, -3.5D-01,  3.5D-14, r^2= 2.2D+01
   Bfn.  Coefficient  Atom+Function         Bfn.  Coefficient  Atom+Function  
  ----- ------------  ---------------      ----- ------------  ---------------
    50     20.234253  3 C  s                 27    -13.083244  2 C  s          
    35     -7.439517  2 C  py                58     -4.326110  3 C  py         
   127     -4.127779  7 H  s                136      4.125051  8 H  s          
    34     -3.470393  2 C  px                57     -3.105192  3 C  px         
   118     -2.498332  6 H  s                 96     -2.215662  5 O  s          
 
 Vector   28  Occ=0.000000D+00  E= 1.336086D-01  Symmetry=a'
              MO Center= -2.7D-01,  2.1D-01, -4.6D-15, r^2= 1.6D+01
   Bfn.  Coefficient  Atom+Function         Bfn.  Coefficient  Atom+Function  
  ----- ------------  ---------------      ----- ------------  ---------------
    50     15.839733  3 C  s                 73    -13.585764  4 C  s          
    27     -6.156939  2 C  s                 81      5.063290  4 C  py         
     4      4.049234  1 O  s                 58      3.808842  3 C  py         
    80     -3.342586  4 C  px                57     -3.265053  3 C  px         
   136      2.954030  8 H  s                 34      2.679659  2 C  px         
 
 Vector   29  Occ=0.000000D+00  E= 1.422330D-01  Symmetry=a"
              MO Center=  1.0D+00,  9.8D-01, -3.4D-14, r^2= 1.4D+01
   Bfn.  Coefficient  Atom+Function         Bfn.  Coefficient  Atom+Function  
  ----- ------------  ---------------      ----- ------------  ---------------
    59      3.094475  3 C  pz                82     -2.918917  4 C  pz         
    36     -0.609193  2 C  pz               105      0.598050  5 O  pz         
    33     -0.207373  2 C  pz                30     -0.174092  2 C  pz         
 
 Vector   30  Occ=0.000000D+00  E= 1.423721D-01  Symmetry=a'
              MO Center=  2.3D+00, -1.3D-01, -2.5D-14, r^2= 1.7D+01
   Bfn.  Coefficient  Atom+Function         Bfn.  Coefficient  Atom+Function  
  ----- ------------  ---------------      ----- ------------  ---------------
    73     23.311643  4 C  s                 27    -14.937800  2 C  s          
    58    -14.161870  3 C  py                50     -7.925053  3 C  s          
    81     -5.822599  4 C  py               145      5.157205  9 H  s          
    80      3.898366  4 C  px                57      3.732877  3 C  px         
   127     -3.648802  7 H  s                136     -2.996702  8 H  s          
 
 Vector   31  Occ=0.000000D+00  E= 1.476630D-01  Symmetry=a"
              MO Center=  1.1D+00, -5.6D-02,  1.1D-14, r^2= 1.2D+01
   Bfn.  Coefficient  Atom+Function         Bfn.  Coefficient  Atom+Function  
  ----- ------------  ---------------      ----- ------------  ---------------
    59      2.731111  3 C  pz                36     -2.303334  2 C  pz         
    82     -0.299457  4 C  pz                79     -0.280925  4 C  pz         
    13      0.240006  1 O  pz                76     -0.216441  4 C  pz         
   133      0.166379  7 H  pz                30      0.160278  2 C  pz         
   102      0.158120  5 O  pz         
 
 Vector   32  Occ=0.000000D+00  E= 1.518252D-01  Symmetry=a'
              MO Center=  2.7D+00,  3.8D-01,  1.0D-14, r^2= 1.4D+01
   Bfn.  Coefficient  Atom+Function         Bfn.  Coefficient  Atom+Function  
  ----- ------------  ---------------      ----- ------------  ---------------
    27     24.740510  2 C  s                 50    -22.402929  3 C  s          
    57     10.854867  3 C  px                73      8.636635  4 C  s          
   136     -8.568627  8 H  s                 58      6.470913  3 C  py         
    35      5.187240  2 C  py                81     -2.937531  4 C  py         
    80     -2.162828  4 C  px                34      2.073992  2 C  px         
 
 Vector   33  Occ=0.000000D+00  E= 1.682979D-01  Symmetry=a'
              MO Center=  6.1D-01,  1.5D+00, -7.2D-15, r^2= 1.9D+01
   Bfn.  Coefficient  Atom+Function         Bfn.  Coefficient  Atom+Function  
  ----- ------------  ---------------      ----- ------------  ---------------
    50      7.614776  3 C  s                 81      7.585831  4 C  py         
    34     -5.747087  2 C  px               145     -5.609640  9 H  s          
    58     -4.541805  3 C  py               127      4.217644  7 H  s          
    35      3.480157  2 C  py               144     -2.716579  9 H  s          
    27     -2.645204  2 C  s                 80      2.402803  4 C  px         
 
 Vector   34  Occ=0.000000D+00  E= 1.800465D-01  Symmetry=a'
              MO Center=  6.1D-01,  1.0D-01,  1.8D-14, r^2= 1.8D+01
   Bfn.  Coefficient  Atom+Function         Bfn.  Coefficient  Atom+Function  
  ----- ------------  ---------------      ----- ------------  ---------------
    57      9.798654  3 C  px                34     -7.846292  2 C  px         
    50     -7.218897  3 C  s                 73      7.225936  4 C  s          
   136     -6.544281  8 H  s                127      5.726471  7 H  s          
   145      4.799716  9 H  s                 58     -4.381718  3 C  py         
    81     -4.221871  4 C  py               118     -3.131095  6 H  s          
 
 Vector   35  Occ=0.000000D+00  E= 2.121008D-01  Symmetry=a'
              MO Center= -6.3D-01, -2.0D+00,  3.6D-14, r^2= 1.2D+01
   Bfn.  Coefficient  Atom+Function         Bfn.  Coefficient  Atom+Function  
  ----- ------------  ---------------      ----- ------------  ---------------
    50     13.229300  3 C  s                 27     -7.249750  2 C  s          
    35     -5.325938  2 C  py                34     -4.777231  2 C  px         
    12      4.108029  1 O  py                58     -3.965599  3 C  py         
     4     -3.578115  1 O  s                117      3.374931  6 H  s          
   127     -3.099773  7 H  s                 55      2.304699  3 C  py         
 
 Vector   36  Occ=0.000000D+00  E= 2.189502D-01  Symmetry=a'
              MO Center=  3.2D-01, -1.7D-02,  1.6D-15, r^2= 1.5D+01
   Bfn.  Coefficient  Atom+Function         Bfn.  Coefficient  Atom+Function  
  ----- ------------  ---------------      ----- ------------  ---------------
    50     29.258619  3 C  s                 27    -21.985398  2 C  s          
    73    -11.858621  4 C  s                  4      5.940989  1 O  s          
   135     -5.655307  8 H  s                 35     -2.587875  2 C  py         
    96      2.552015  5 O  s                117     -2.482047  6 H  s          
   145      2.120029  9 H  s                 80     -1.981325  4 C  px         
 
 Vector   37  Occ=0.000000D+00  E= 2.301914D-01  Symmetry=a"
              MO Center= -1.9D-01,  4.0D-02,  6.0D-14, r^2= 6.6D+00
   Bfn.  Coefficient  Atom+Function         Bfn.  Coefficient  Atom+Function  
  ----- ------------  ---------------      ----- ------------  ---------------
    13      1.047567  1 O  pz               105      0.578474  5 O  pz         
    79     -0.514138  4 C  pz                36     -0.506199  2 C  pz         
    33     -0.431232  2 C  pz               133     -0.418458  7 H  pz         
   142      0.354560  8 H  pz               151     -0.355750  9 H  pz         
    56      0.348926  3 C  pz                68      0.283584  3 C  d  1       
 
 Vector   38  Occ=0.000000D+00  E= 2.464920D-01  Symmetry=a'
              MO Center=  3.3D-01,  1.7D-01, -1.4D-14, r^2= 1.5D+01
   Bfn.  Coefficient  Atom+Function         Bfn.  Coefficient  Atom+Function  
  ----- ------------  ---------------      ----- ------------  ---------------
    73     42.822763  4 C  s                 27    -31.393810  2 C  s          
    58    -18.307111  3 C  py                81     -9.517093  4 C  py         
    50     -8.665622  3 C  s                 34     -7.003882  2 C  px         
    35     -7.035069  2 C  py                96     -6.444194  5 O  s          
    57      5.554154  3 C  px                80      4.785081  4 C  px         
 
 Vector   39  Occ=0.000000D+00  E= 2.792502D-01  Symmetry=a"
              MO Center= -6.4D-01, -8.7D-01,  3.6D-14, r^2= 9.6D+00
   Bfn.  Coefficient  Atom+Function         Bfn.  Coefficient  Atom+Function  
  ----- ------------  ---------------      ----- ------------  ---------------
    36     -2.408762  2 C  pz                13      2.311512  1 O  pz         
    59      1.935965  3 C  pz               105     -0.671666  5 O  pz         
    82     -0.519787  4 C  pz                45     -0.387355  2 C  d  1       
    10     -0.251240  1 O  pz                66      0.221264  3 C  d -1       
    68      0.211343  3 C  d  1               7     -0.199757  1 O  pz         
 
 Vector   40  Occ=0.000000D+00  E= 2.871946D-01  Symmetry=a'
              MO Center= -4.0D-01, -3.1D-01, -1.2D-14, r^2= 1.4D+01
   Bfn.  Coefficient  Atom+Function         Bfn.  Coefficient  Atom+Function  
  ----- ------------  ---------------      ----- ------------  ---------------
    50    -39.575405  3 C  s                 27     37.711626  2 C  s          
    35     12.680345  2 C  py                58     11.302638  3 C  py         
    57      7.412681  3 C  px                34      4.977938  2 C  px         
   127      4.491862  7 H  s                135      4.201964  8 H  s          
   136     -4.179467  8 H  s                 73     -3.166694  4 C  s          
 
 Vector   41  Occ=0.000000D+00  E= 2.904960D-01  Symmetry=a'
              MO Center= -1.1D+00, -2.6D-02, -4.4D-15, r^2= 1.3D+01
   Bfn.  Coefficient  Atom+Function         Bfn.  Coefficient  Atom+Function  
  ----- ------------  ---------------      ----- ------------  ---------------
    50     13.898129  3 C  s                 73     -8.269322  4 C  s          
     4     -5.838589  1 O  s                 35     -4.315464  2 C  py         
    96      3.453977  5 O  s                103      2.920866  5 O  px         
    34     -2.734539  2 C  px                11     -2.719326  1 O  px         
    55     -2.469433  3 C  py               144     -2.372397  9 H  s          
 
 Vector   42  Occ=0.000000D+00  E= 3.155870D-01  Symmetry=a"
              MO Center= -5.7D-01,  8.5D-01, -5.6D-14, r^2= 8.5D+00
   Bfn.  Coefficient  Atom+Function         Bfn.  Coefficient  Atom+Function  
  ----- ------------  ---------------      ----- ------------  ---------------
    82      2.194041  4 C  pz               105     -2.024758  5 O  pz         
    59     -1.834277  3 C  pz                36      0.652760  2 C  pz         
    91      0.463258  4 C  d  1             124      0.379856  6 H  pz         
   102      0.290449  5 O  pz                66      0.284764  3 C  d -1       
    99      0.249664  5 O  pz               142      0.215331  8 H  pz         
 
 Vector   43  Occ=0.000000D+00  E= 3.230666D-01  Symmetry=a'
              MO Center=  5.5D-01, -8.4D-01,  7.7D-15, r^2= 1.0D+01
   Bfn.  Coefficient  Atom+Function         Bfn.  Coefficient  Atom+Function  
  ----- ------------  ---------------      ----- ------------  ---------------
    50     26.040455  3 C  s                 27    -19.511660  2 C  s          
    73    -11.216534  4 C  s                 57     -5.609607  3 C  px         
    58     -4.022979  3 C  py               126      3.810557  7 H  s          
    34     -2.654660  2 C  px                81      2.655906  4 C  py         
   136      2.580462  8 H  s                135     -2.520484  8 H  s          
 
 Vector   44  Occ=0.000000D+00  E= 3.400773D-01  Symmetry=a'
              MO Center=  4.6D-01,  8.8D-01, -1.1D-15, r^2= 1.2D+01
   Bfn.  Coefficient  Atom+Function         Bfn.  Coefficient  Atom+Function  
  ----- ------------  ---------------      ----- ------------  ---------------
    73      5.554947  4 C  s                 80     -3.419908  4 C  px         
    50     -3.060478  3 C  s                 57      2.631407  3 C  px         
   104     -2.588383  5 O  py                26      2.446174  2 C  s          
    96     -2.407248  5 O  s                127     -2.160693  7 H  s          
   126     -2.131694  7 H  s                 34      1.928762  2 C  px         
 
 Vector   45  Occ=0.000000D+00  E= 3.464180D-01  Symmetry=a"
              MO Center=  6.0D-01, -4.7D-01,  1.5D-15, r^2= 9.1D+00
   Bfn.  Coefficient  Atom+Function         Bfn.  Coefficient  Atom+Function  
  ----- ------------  ---------------      ----- ------------  ---------------
   105      1.169340  5 O  pz               142      0.944465  8 H  pz         
   133      0.879902  7 H  pz                82     -0.765252  4 C  pz         
    36     -0.626152  2 C  pz                33     -0.618949  2 C  pz         
   124      0.583535  6 H  pz                79     -0.407830  4 C  pz         
    68      0.329188  3 C  d  1              91     -0.327623  4 C  d  1       
 
 Vector   46  Occ=0.000000D+00  E= 3.557037D-01  Symmetry=a'
              MO Center=  6.9D-01, -1.8D-01, -3.0D-15, r^2= 1.1D+01
   Bfn.  Coefficient  Atom+Function         Bfn.  Coefficient  Atom+Function  
  ----- ------------  ---------------      ----- ------------  ---------------
    50     17.660525  3 C  s                 27    -15.762971  2 C  s          
    57     -6.745613  3 C  px                35     -4.577799  2 C  py         
   136      4.587945  8 H  s                 73     -3.647919  4 C  s          
    58     -3.470230  3 C  py                31     -2.698041  2 C  px         
    34     -2.386911  2 C  px               135      2.348618  8 H  s          
 
 Vector   47  Occ=0.000000D+00  E= 3.638620D-01  Symmetry=a'
              MO Center=  8.3D-01,  3.3D-03,  1.1D-15, r^2= 1.2D+01
   Bfn.  Coefficient  Atom+Function         Bfn.  Coefficient  Atom+Function  
  ----- ------------  ---------------      ----- ------------  ---------------
    27      9.973196  2 C  s                 73     -6.884373  4 C  s          
    35      5.589841  2 C  py                57      5.168770  3 C  px         
   127      5.159648  7 H  s                 81      4.601089  4 C  py         
    58      3.972953  3 C  py               135     -3.968562  8 H  s          
    34     -3.847185  2 C  px                 4     -3.747066  1 O  s          
 
 Vector   48  Occ=0.000000D+00  E= 3.863391D-01  Symmetry=a'
              MO Center=  5.4D-01,  6.6D-01, -5.3D-16, r^2= 1.2D+01
   Bfn.  Coefficient  Atom+Function         Bfn.  Coefficient  Atom+Function  
  ----- ------------  ---------------      ----- ------------  ---------------
    73     19.792909  4 C  s                 58    -10.439692  3 C  py         
    50     -9.295236  3 C  s                 27     -8.629448  2 C  s          
    55      7.163305  3 C  py                26      6.780259  2 C  s          
    34     -5.223654  2 C  px                32      5.118946  2 C  py         
    57      4.939588  3 C  px                72     -4.786063  4 C  s          
 
 Vector   49  Occ=0.000000D+00  E= 3.932496D-01  Symmetry=a'
              MO Center=  8.9D-01,  1.6D+00,  1.5D-15, r^2= 1.1D+01
   Bfn.  Coefficient  Atom+Function         Bfn.  Coefficient  Atom+Function  
  ----- ------------  ---------------      ----- ------------  ---------------
    50     12.629625  3 C  s                 73    -10.886763  4 C  s          
    81      9.459745  4 C  py                57     -9.179775  3 C  px         
   136      6.472233  8 H  s                145     -6.214867  9 H  s          
   135      3.701053  8 H  s                 72     -3.277343  4 C  s          
    27     -3.241195  2 C  s                 55      3.193730  3 C  py         
 
 Vector   50  Occ=0.000000D+00  E= 4.148056D-01  Symmetry=a'
              MO Center=  3.7D-01, -5.6D-01,  2.0D-16, r^2= 9.9D+00
   Bfn.  Coefficient  Atom+Function         Bfn.  Coefficient  Atom+Function  
  ----- ------------  ---------------      ----- ------------  ---------------
    27     19.879024  2 C  s                 50    -16.872130  3 C  s          
    49      7.106965  3 C  s                  4     -6.755980  1 O  s          
    73      4.821097  4 C  s                 35      4.317143  2 C  py         
    58      3.619421  3 C  py               126     -3.439661  7 H  s          
    32     -2.824715  2 C  py                96     -2.609455  5 O  s          
 
 Vector   51  Occ=0.000000D+00  E= 4.242547D-01  Symmetry=a'
              MO Center= -3.4D-01, -1.2D+00, -8.1D-16, r^2= 9.5D+00
   Bfn.  Coefficient  Atom+Function         Bfn.  Coefficient  Atom+Function  
  ----- ------------  ---------------      ----- ------------  ---------------
     4     12.163469  1 O  s                 27    -12.158212  2 C  s          
   117     -7.119878  6 H  s                 50      6.676908  3 C  s          
    12     -5.531627  1 O  py                55      2.961243  3 C  py         
   126      2.810892  7 H  s                 32      2.722755  2 C  py         
   135     -2.712234  8 H  s                 49     -2.640496  3 C  s          
 
 Vector   52  Occ=0.000000D+00  E= 4.269515D-01  Symmetry=a"
              MO Center=  7.1D-01,  4.7D-01,  1.9D-16, r^2= 9.9D+00
   Bfn.  Coefficient  Atom+Function         Bfn.  Coefficient  Atom+Function  
  ----- ------------  ---------------      ----- ------------  ---------------
   151      1.524240  9 H  pz                36      1.085585  2 C  pz         
   133     -1.081072  7 H  pz                79     -0.969965  4 C  pz         
    59     -0.950791  3 C  pz                33      0.783289  2 C  pz         
   142      0.771335  8 H  pz               124     -0.736256  6 H  pz         
    45     -0.482554  2 C  d  1              56     -0.425015  3 C  pz         
 
 Vector   53  Occ=0.000000D+00  E= 4.628070D-01  Symmetry=a"
              MO Center=  5.8D-02, -1.7D+00, -1.9D-16, r^2= 7.6D+00
   Bfn.  Coefficient  Atom+Function         Bfn.  Coefficient  Atom+Function  
  ----- ------------  ---------------      ----- ------------  ---------------
   133      1.626712  7 H  pz                13      1.493893  1 O  pz         
   124     -1.409820  6 H  pz                82      1.044663  4 C  pz         
    33     -0.880930  2 C  pz               105     -0.819031  5 O  pz         
    36     -0.784038  2 C  pz                79      0.702110  4 C  pz         
    59     -0.598397  3 C  pz                56     -0.547779  3 C  pz         
 
 Vector   54  Occ=0.000000D+00  E= 4.688664D-01  Symmetry=a'
              MO Center=  5.1D-02, -5.7D-04,  2.5D-16, r^2= 1.1D+01
   Bfn.  Coefficient  Atom+Function         Bfn.  Coefficient  Atom+Function  
  ----- ------------  ---------------      ----- ------------  ---------------
    27      6.174653  2 C  s                 50     -5.399481  3 C  s          
    73      5.244707  4 C  s                  4     -3.719536  1 O  s          
    57      3.711375  3 C  px               135     -3.061144  8 H  s          
    26      2.087497  2 C  s                136     -1.957059  8 H  s          
   149     -1.840352  9 H  px               104     -1.814884  5 O  py         
 
 Vector   55  Occ=0.000000D+00  E= 4.801920D-01  Symmetry=a'
              MO Center= -4.4D-01,  2.1D-01,  7.0D-15, r^2= 1.1D+01
   Bfn.  Coefficient  Atom+Function         Bfn.  Coefficient  Atom+Function  
  ----- ------------  ---------------      ----- ------------  ---------------
    73     20.587154  4 C  s                 27    -14.740921  2 C  s          
    96    -11.280457  5 O  s                 35     -6.034916  2 C  py         
    58     -5.828643  3 C  py                55      5.643612  3 C  py         
    12      5.067811  1 O  py                 4      5.037852  1 O  s          
    81     -5.018461  4 C  py                26      3.443589  2 C  s          
 
 Vector   56  Occ=0.000000D+00  E= 4.900835D-01  Symmetry=a"
              MO Center=  1.5D+00,  6.1D-01, -6.4D-15, r^2= 7.5D+00
   Bfn.  Coefficient  Atom+Function         Bfn.  Coefficient  Atom+Function  
  ----- ------------  ---------------      ----- ------------  ---------------
   142     -2.249841  8 H  pz                59      2.109330  3 C  pz         
   151      1.586637  9 H  pz                82     -1.517540  4 C  pz         
    68     -1.343960  3 C  d  1              36     -1.137210  2 C  pz         
   133      1.112590  7 H  pz                89     -0.766116  4 C  d -1       
    43      0.755928  2 C  d -1              56      0.617680  3 C  pz         
 
 Vector   57  Occ=0.000000D+00  E= 5.216480D-01  Symmetry=a'
              MO Center=  1.8D-01, -5.6D-01, -1.1D-15, r^2= 8.3D+00
   Bfn.  Coefficient  Atom+Function         Bfn.  Coefficient  Atom+Function  
  ----- ------------  ---------------      ----- ------------  ---------------
    50     13.658236  3 C  s                 73    -10.171627  4 C  s          
   126     -8.899215  7 H  s                  4      7.683079  1 O  s          
    57     -4.984945  3 C  px                34      4.695902  2 C  px         
    26      3.802255  2 C  s                 27     -3.287247  2 C  s          
    32     -2.930569  2 C  py               117     -2.927266  6 H  s          
 

 center of mass
 --------------
 x =  -0.07899416 y =   0.04982278 z =   0.00000000

 moments of inertia (a.u.)
 ------------------
         369.632741749666           0.000000000000           0.000000000000
           0.000000000000         183.030833354352           0.000000000000
           0.000000000000           0.000000000000         552.663575104018
 
  Mulliken analysis of the total density
  --------------------------------------

    Atom       Charge   Shell Charges
 -----------   ------   -------------------------------------------------------
    1 O    8     8.69   2.00  0.83  1.00  0.17  2.81  1.73  0.10  0.02  0.02
    2 C    6     5.01   2.01  0.68  0.51 -0.23  1.89  0.06  0.08  0.15 -0.12
    3 C    6     5.61   2.01  0.64  0.41 -0.18  2.07  0.52  0.18  0.07 -0.11
    4 C    6     5.26   2.01  0.69  0.53 -0.13  1.87  0.16  0.05  0.17 -0.09
    5 O    8     8.74   2.00  0.84  1.05  0.16  2.75  1.80  0.09  0.02  0.03
    6 H    1     0.75   0.70 -0.01 -0.01  0.07 -0.00
    7 H    1     1.39   0.78  0.61  0.01  0.03 -0.04
    8 H    1     1.41   0.77  0.60  0.02  0.03 -0.01
    9 H    1     1.14   0.78  0.38 -0.01  0.03 -0.04
 
       Multipole analysis of the density wrt the origin
       ------------------------------------------------
 
     L   x y z        total         open         nuclear
     -   - - -        -----         ----         -------
     0   0 0 0     -0.000000      0.000000     38.000000
 
     1   1 0 0      1.277728      0.000000      0.000000
     1   0 1 0     -1.484081      0.000000      0.000000
     1   0 0 1      0.000000      0.000000      0.000000
 
     2   2 0 0    -22.741090      0.000000    104.962596
     2   1 1 0      3.882163      0.000000      4.090885
     2   1 0 1     -0.000000      0.000000      0.000000
     2   0 2 0    -15.184550      0.000000    210.570471
     2   0 1 1      0.000000      0.000000      0.000000
     2   0 0 2    -23.053684      0.000000      0.000000
 
                   NWChem MP2 Semi-direct Energy/Gradient Module
                   ---------------------------------------------
 
 
                                    H,H,H Open
 
 

int_init: setting std/high accuracies to  1.0D-16  1.0D-32
  Basis functions       =    151
  Molecular orbitals    =    151
  Frozen core           =      5
  Frozen virtuals       =      0
  Active alpha occupied =     14
  Active beta occupied  =     14
  Active alpha virtual  =    132
  Active beta virtual   =    132
  Use MO symmetry       = T
  Use skeleton AO sym   = T

  AO/Fock/Back tols     =   1.0D-15  1.0D-15  1.0D-15

 GA uses MA = F    GA memory limited = T

 Available: 
  local mem=  2.29D+07
 global mem=  2.62D+07
 local disk=  0.00D+00

int_init: setting std/high accuracies to  1.0D-16  1.0D-32
  mp2_memr nvloc                     12
  nvloc new                     12
   1 passes of  14:        5242880                     155219                   8431000.
   1 passes of  14: M     22885495           G       26202752           F      17642615.
 
 Semi-direct pass number   1 of   1  for RHF alpha+beta  at       29.2s

int_init: setting std/high accuracies to  1.0D-16  1.0D-32
  vrange nnbf                  11476
  mp2_eaftype                     25  avail_ma_in_mb                    199
 EAF : mp2_eaftype filesize          25    3297058.
  mp2_eaf for mointskh                      25
Node 0 wrote     15.4 Mb in      0.0 s     Agg I/O rate:  4348.9 Mb/s
 Done moints_semi at       32.7s
  mp2_eaftype                     25  avail_ma_in_mb                    174
 EAF : mp2_eaftype filesize          25    3297058.
  mp2_eaf for kh                     25
  mp2_eaftype                     10  avail_ma_in_mb                    174
 EAF : mp2_eaftype filesize          10     620928.
  mp2_eaf for ta tb                     10
  mp2_eaf for ta                      10
  mp2_eaf for tb                      10
 Done maket at       32.8s
 Done pijab at       32.8s
 Done wijab at       32.8s
 Done lai at       33.3s

int_init: setting std/high accuracies to  1.0D-16  1.0D-32
  mp2_eaftype                     29  avail_ma_in_mb                    153
 EAF : mp2_eaftype filesize          29    3848960.
  mp2_eaf for 2pdm                      29
 Done nonsep at       42.9s
 Done multipass loop at       42.9s


          -------------------------------------------
          SCF energy                -265.646676033230
          Correlation energy          -0.803885202942
          Singlet pairs               -0.487356580195
          Triplet pairs               -0.316528622748
          Total MP2 energy          -266.450561236173
          -------------------------------------------



          ---------------------------------------------------
                    Spin Component Scaled (SCS) MP2
          Same spin pairs                     -0.211019081832
          Same spin scaling factor             0.333333333333
          Opposite spin pairs                 -0.592866121110
          Opposite spin scaling fact.          1.200000000000
          SCS-MP2 correlation energy          -0.781779039277
          Total SCS-MP2 energy              -266.428455072507
          ---------------------------------------------------


int_init: setting std/high accuracies to  1.0D-16  1.0D-32
                                NWChem CPHF Module
                                ------------------
 
 

int_init: setting std/high accuracies to  1.0D-16  1.0D-32
    scftype = RHF 
    nclosed =   19
      nopen =    0
  variables =     2508
  tolerance =   1.0D-06
  max. iter =  999

 Warning: symmetry breaking in RHF:   7.189840934693757E-013
 SCF residual:   4.595545655539841E-011

            ----- linear solve (tol: 1.0E-06 prod-acc: 3.6E-14) -----

               iter nbas    rnorm     rnorm-scal   ratio     time
               ---- ---- ----------- ----------- --------- -------
                  1    1  7.3401E-02  4.0884E-01    0.0000    45.0
                  2    2  2.0765E-02  1.1566E-01    0.2829    46.0
                  3    3  7.1323E-03  3.9727E-02    0.3435    46.9
                  4    4  2.6669E-03  1.4855E-02    0.3739    47.9
                  5    5  9.9062E-04  5.5177E-03    0.3714    48.8
                  6    6  3.5842E-04  1.9964E-03    0.3618    49.7
                  7    7  1.6379E-04  9.1231E-04    0.4570    50.6
                  8    8  5.3359E-05  2.9721E-04    0.3258    51.5
                  9    9  2.1047E-05  1.1723E-04    0.3944    52.4
                 10   10  6.0563E-06  3.3733E-05    0.2877    53.3
                 11   11  1.5357E-06  8.5539E-06    0.2536    54.2
                 12   12  3.6753E-07  2.0471E-06    0.2393    55.1
                 13   13  1.3829E-07  7.7026E-07    0.3763    55.9

 CPHF converged to   7.7D-07 in   13 iters


int_init: setting std/high accuracies to  1.0D-16  1.0D-32
                Dipole Moments (a.u.)
                --------------
         Nuclear       SCF       SCF+MP2
       ----------- ----------- -----------
 X       0.000000    1.277728    1.016170
 Y       0.000000   -1.484081   -1.381866
 Z       0.000000    0.000000    0.000000
 

 MP2 RHF      natural orbital occupation numbers


              1      
    1    2.0000
    2    2.0000
    3    2.0000
    4    2.0000
    5    2.0000
    6    1.9867
    7    1.9852
    8    1.9811
    9    1.9749
   10    1.9724
   11    1.9672
   12    1.9647
   13    1.9640
   14    1.9631
   15    1.9588
   16    1.9570
   17    1.9556
   18    1.9412
   19    1.9258
   20    0.0655
   21    0.0426
   22    0.0319
   23    0.0300
   24    0.0279
   25    0.0255
   26    0.0207
   27    0.0185
   28    0.0161
   29    0.0160
   30    0.0152
   31    0.0127
   32    0.0121
   33    0.0108
   34    0.0106
   35    0.0091
   36    0.0088
   37    0.0082
   38    0.0079
   39    0.0075
   40    0.0071
   41    0.0068
   42    0.0065
   43    0.0059
   44    0.0059
   45    0.0058
   46    0.0051
   47    0.0048
   48    0.0044
   49    0.0041
   50    0.0033
   51    0.0030
   52    0.0028
   53    0.0027
   54    0.0025
   55    0.0024
   56    0.0023
   57    0.0021
   58    0.0018
   59    0.0016
   60    0.0014
   61    0.0014
   62    0.0013
   63    0.0012
   64    0.0011
   65    0.0010
   66    0.0009
   67    0.0008
   68    0.0008
   69    0.0008
   70    0.0007
   71    0.0007
   72    0.0007
   73    0.0006
   74    0.0006
   75    0.0006
   76    0.0005
   77    0.0005
   78    0.0005
   79    0.0005
   80    0.0005
   81    0.0004
   82    0.0004
   83    0.0004
   84    0.0004
   85    0.0004
   86    0.0004
   87    0.0003
   88    0.0003
   89    0.0003
   90    0.0003
   91    0.0003
   92    0.0003
   93    0.0002
   94    0.0002
   95    0.0002
   96    0.0002
   97    0.0002
   98    0.0002
   99    0.0002
  100    0.0001
  101    0.0001
  102    0.0001
  103    0.0001
  104    0.0001
  105    0.0001
  106    0.0001
  107    0.0001
  108    0.0001
  109    0.0001
  110    0.0001
  111    0.0001
  112    0.0001
  113    0.0001
  114    0.0001
  115    0.0000
  116    0.0000
  117    0.0000
  118    0.0000
  119    0.0000
  120    0.0000
  121    0.0000
  122    0.0000
  123    0.0000
  124    0.0000
  125    0.0000
  126    0.0000
  127    0.0000
  128    0.0000
  129    0.0000
  130    0.0000
  131    0.0000
  132    0.0000
  133    0.0000
  134    0.0000
  135    0.0000
  136    0.0000
  137    0.0000
  138    0.0000
  139    0.0000
  140    0.0000
  141    0.0000
  142    0.0000
  143   -0.0000
  144   -0.0000
  145   -0.0000
  146   -0.0000
  147   -0.0000
  148   -0.0000
  149   -0.0001
  150   -0.0003
  151   -0.0003
 
  MP2 natural orbitals output to ./1O.mp2nos
 

int_init: setting std/high accuracies to  1.0D-16  1.0D-32
  Using symmetry

int_init: setting std/high accuracies to  1.0D-16  1.0D-32


                         mp2 ENERGY GRADIENTS

    atom               coordinates                        gradient
                 x          y          z           x          y          z
   1 O      -1.603955  -2.419251   0.000000    0.025606   0.029190   0.000000
   2 C       0.888109  -2.107843   0.000000   -0.022757   0.001357   0.000000
   3 C       2.072536   0.179371   0.000000    0.007572   0.011653   0.000000
   4 C       0.585575   2.458385   0.000000    0.028295  -0.010992   0.000000
   5 O      -1.774641   2.473925   0.000000   -0.013319  -0.005276   0.000000
   6 H      -1.874374  -4.278071   0.000000    0.002732  -0.023582   0.000000
   7 H       1.917087  -3.881300   0.000000   -0.012107   0.003236   0.000000
   8 H       4.107527   0.272589   0.000000   -0.009182   0.001857   0.000000
   9 H       1.601210   4.269910   0.000000   -0.006841  -0.007442   0.000000
 
                 ----------------------------------------
                 |  Time  |  1-e(secs)   |  2-e(secs)   |
                 ----------------------------------------
                 |  CPU   |       0.00   |       6.24   |
                 ----------------------------------------
                 |  WALL  |       0.00   |       6.26   |
                 ----------------------------------------
 -----------------------
 Performance information
 -----------------------

 Timer overhead =  1.00D-07 seconds/call

               Nr. of calls         CPU time (s)                 Wall time (s)                GFlops
             ---------------    -------------------     ------------------------------   -------------------
Name         Min   Avg   Max    Min     Avg     Max     Min     Avg     Max   Mx/calls   Min     Max     Sum
mp2: moin     1     1     1    3.2     3.2     3.3      3.5     3.5     3.5     3.5      0.0     0.0     0.0   
mp2: make     1     1     1   0.11    0.12    0.13     0.13    0.13    0.13    0.13      0.0     0.0     0.0   
mp2: pija     1     1     1   1.40E-2 1.56E-2 1.60E-2  1.59E-2 1.60E-2 1.62E-2 1.62E-2   0.0     0.0     0.0   
mp2: wija     1     1     1   1.60E-2 1.69E-2 1.70E-2  1.70E-2 1.70E-2 1.71E-2 1.71E-2   0.0     0.0     0.0   
mp2: lai      1     1     1   0.46    0.47    0.47     0.47    0.47    0.47    0.47      0.0     0.0     0.0   
mp2: back     1     1     1   0.28    0.28    0.29     0.30    0.30    0.30    0.30      0.0     0.0     0.0   
mp2: nons     1     1     1    8.0     8.7     9.2      8.0     8.7     9.2     9.2      0.0     0.0     0.0   
mp2: laif     1     1     1    1.0     1.0     1.0      1.1     1.1     1.1     1.1      0.0     0.0     0.0   
mp2: cphf     1     1     1    13.     13.     13.      13.     13.     13.     13.      0.0     0.0     0.0   
mp2: wijf     1     1     1    1.0     1.0     1.0      1.0     1.0     1.0     1.0      0.0     0.0     0.0   
mp2: sep      1     1     1    6.3     6.3     6.3      6.3     6.3     6.3     6.3      0.0     0.0     0.0   
mp2: tota     1     1     1    35.     35.     35.      35.     35.     35.     35.      0.0     0.0     0.0   

 The average no. of pstat calls per process was 1.20D+01
 with a timing overhead of 1.20D-06s


@ Step       Energy      Delta E   Gmax     Grms     Xrms     Xmax   Walltime
@ ---- ---------------- -------- -------- -------- -------- -------- --------
@    0    -266.45056124  0.0D+00  0.02881  0.01184  0.00000  0.00000     64.4
                                                                    



                                Z-matrix (user)
                                -------- 

 Units are Angstrom for bonds and degrees for angles

  Constants are marked with an asterisk (*).

  Constrained variables are marked with a plus sign (+).

 
      Type          Name      I     J     K     L     M      Value     Gradient
      ----------- --------  ----- ----- ----- ----- ----- ---------- ----------
    1 Stretch      R1          2     1                       1.32900   -0.02881
    2 Stretch      R2          3     2                       1.36300   -0.00606
    3 Bend         A1          3     2     1               124.50000    0.00334
    4 Stretch      R3          4     3                       1.44000   -0.02430
    5 Bend         A2          4     3     2               119.50000   -0.01810
    6*Torsion      D0          4     3     2     1           0.00000    0.00000
    7 Stretch      R4          5     4                       1.24900    0.01328
    8 Bend         A3          5     4     3               123.50000   -0.00670
    9*Torsion      D0          5     4     3     2           0.00000    0.00000
   10 Stretch      R5          6     1                       0.99400    0.02294
   11 Bend         A4          6     1     2               105.40000   -0.00606
   12*Torsion      D180        6     1     2     3         180.00000   -0.00000
   13 Stretch      R6          7     2                       1.08500   -0.00887
   14 Bend         A5          7     2     3               122.50000    0.00960
   15*Torsion      D180        7     2     3     4         180.00000    0.00000
   16 Stretch      R7          8     3                       1.07800   -0.00909
   17 Bend         A6          8     3     2               120.00000    0.00245
   18*Torsion      D180        8     3     2     1         180.00000   -0.00000
   19 Stretch      R8          9     4                       1.09900   -0.00984
   20 Bend         A7          9     4     3               117.60000    0.00256
   21*Torsion      D180        9     4     3     2         180.00000    0.00000
 
                                 NWChem SCF Module
                                 -----------------
 
 
                                    H,H,H Open
 
 

  ao basis        = "ao basis"
  functions       =   151
  atoms           =     9
  closed shells   =    19
  open shells     =     0
  charge          =   0.00
  wavefunction    = RHF 
  input vectors   = ./1O.movecs
  output vectors  = ./1O.movecs
  use symmetry    = T
  symmetry adapt  = T


 Summary of "ao basis" -> "ao basis" (spherical)
 ------------------------------------------------------------------------------
       Tag                 Description            Shells   Functions and Types
 ---------------- ------------------------------  ------  ---------------------
 O                        aug-cc-pVDZ                9       23   4s3p2d
 C                        aug-cc-pVDZ                9       23   4s3p2d
 H                        aug-cc-pVDZ                5        9   3s2p


      Symmetry analysis of basis
      --------------------------
 
        a'        108
        a"         43
 

int_init: setting std/high accuracies to  1.0D-16  1.0D-32

 Forming initial guess at      64.5s


 Forcing the number of linearly dependent vectors to be  0

 Loading old vectors from job with title :

H,H,H Open

 
      Symmetry analysis of molecular orbitals - initial
      -------------------------------------------------
 
  Numbering of irreducible representations: 
 
     1 a'          2 a"      
 
  Orbital symmetries:
 
     1 a'          2 a'          3 a'          4 a'          5 a'      
     6 a'          7 a'          8 a'          9 a'         10 a'      
    11 a'         12 a'         13 a'         14 a"         15 a'      
    16 a'         17 a"         18 a'         19 a"         20 a'      
    21 a'         22 a'         23 a'         24 a"         25 a"      
    26 a'         27 a'         28 a'         29 a"      
 

 Starting SCF solution at      64.5s



 ----------------------------------------------
         Quadratically convergent ROHF

 Convergence threshold     :          1.000E-09
 Maximum no. of iterations :           99
 Final Fock-matrix accuracy:          1.000E-15
 ----------------------------------------------

 Warning: symmetry breaking in RHF:   7.123111829130474E-013

              iter       energy          gnorm     gmax       time
             ----- ------------------- --------- --------- --------
                 1     -265.6275625857  5.65D-01  6.72D-02     64.3
 Warning: symmetry breaking in RHF:   7.459724193636725E-013
                 2     -265.6520726339  4.28D-02  6.97D-03     67.0
 Warning: symmetry breaking in RHF:   7.441316732051418E-013
                 3     -265.6522411862  1.79D-03  6.46D-04     70.4
 Warning: symmetry breaking in RHF:   7.448816899103241E-013
                 4     -265.6522420350  1.94D-06  3.16D-07     77.3
 Warning: symmetry breaking in RHF:   7.448819439493316E-013
                 5     -265.6522420350  6.78D-11  2.43D-11     86.5


       Final RHF  results 
       ------------------ 

         Total SCF energy =   -265.652242034995
      One-electron energy =   -675.863518590359
      Two-electron energy =    252.181783766198
 Nuclear repulsion energy =    158.029492789166

        Time for solution =     23.2s


 
       Symmetry analysis of molecular orbitals - final
       -----------------------------------------------
 
  Numbering of irreducible representations: 
 
     1 a'          2 a"      
 
  Orbital symmetries:
 
     1 a'          2 a'          3 a'          4 a'          5 a'      
     6 a'          7 a'          8 a'          9 a'         10 a'      
    11 a'         12 a'         13 a'         14 a"         15 a'      
    16 a'         17 a"         18 a'         19 a"         20 a'      
    21 a'         22 a'         23 a'         24 a"         25 a"      
    26 a'         27 a'         28 a'         29 a"      
 
             Final eigenvalues
             -----------------

              1      
    1  -20.6314
    2  -20.5495
    3  -11.3553
    4  -11.3354
    5  -11.2478
    6   -1.4354
    7   -1.3637
    8   -1.0638
    9   -0.8986
   10   -0.7779
   11   -0.7579
   12   -0.6535
   13   -0.6476
   14   -0.6016
   15   -0.5725
   16   -0.5686
   17   -0.5135
   18   -0.4142
   19   -0.3618
   20    0.0224
   21    0.0388
   22    0.0493
   23    0.0665
   24    0.0675
   25    0.0998
   26    0.1088
   27    0.1270
   28    0.1319
   29    0.1417
 
                       ROHF Final Molecular Orbital Analysis
                       -------------------------------------
 
 Vector    6  Occ=2.000000D+00  E=-1.435442D+00  Symmetry=a'
              MO Center= -6.7D-01, -1.5D+00,  1.4D-30, r^2= 6.0D-01
   Bfn.  Coefficient  Atom+Function         Bfn.  Coefficient  Atom+Function  
  ----- ------------  ---------------      ----- ------------  ---------------
     3      0.466501  1 O  s                  2      0.418270  1 O  s          
   116      0.196383  6 H  s          
 
 Vector    7  Occ=2.000000D+00  E=-1.363697D+00  Symmetry=a'
              MO Center= -5.8D-01,  1.5D+00, -1.1D-33, r^2= 5.9D-01
   Bfn.  Coefficient  Atom+Function         Bfn.  Coefficient  Atom+Function  
  ----- ------------  ---------------      ----- ------------  ---------------
    95      0.452699  5 O  s                 94      0.399241  5 O  s          
    72      0.220685  4 C  s                 71      0.217183  4 C  s          
    74     -0.173439  4 C  px                55     -0.172512  3 C  py         
    26     -0.165870  2 C  s          
 
 Vector    8  Occ=2.000000D+00  E=-1.063791D+00  Symmetry=a'
              MO Center=  6.6D-01, -3.2D-01,  6.6D-16, r^2= 1.7D+00
   Bfn.  Coefficient  Atom+Function         Bfn.  Coefficient  Atom+Function  
  ----- ------------  ---------------      ----- ------------  ---------------
    48      0.306618  3 C  s                 25      0.248947  2 C  s          
    49      0.219816  3 C  s                 73      0.162189  4 C  s          
 
 Vector    9  Occ=2.000000D+00  E=-8.985995D-01  Symmetry=a'
              MO Center=  4.2D-01,  7.8D-02,  3.0D-30, r^2= 3.0D+00
   Bfn.  Coefficient  Atom+Function         Bfn.  Coefficient  Atom+Function  
  ----- ------------  ---------------      ----- ------------  ---------------
    27     -0.356865  2 C  s                 26      0.336183  2 C  s          
    72     -0.250627  4 C  s                 25      0.240908  2 C  s          
    71     -0.237957  4 C  s                 52     -0.218782  3 C  py         
    49     -0.193174  3 C  s                 73      0.190084  4 C  s          
    32      0.169964  2 C  py                95      0.170635  5 O  s          
 
 Vector   10  Occ=2.000000D+00  E=-7.779012D-01  Symmetry=a'
              MO Center= -1.5D-01, -1.1D+00, -6.0D-16, r^2= 2.6D+00
   Bfn.  Coefficient  Atom+Function         Bfn.  Coefficient  Atom+Function  
  ----- ------------  ---------------      ----- ------------  ---------------
     6      0.332040  1 O  py               116     -0.299137  6 H  s          
    28     -0.276336  2 C  px                 5      0.238986  1 O  px         
    72      0.152605  4 C  s          
 
 Vector   11  Occ=2.000000D+00  E=-7.579244D-01  Symmetry=a'
              MO Center=  2.3D-01, -1.8D-01, -2.1D-15, r^2= 3.9D+00
   Bfn.  Coefficient  Atom+Function         Bfn.  Coefficient  Atom+Function  
  ----- ------------  ---------------      ----- ------------  ---------------
    29      0.274695  2 C  py               125     -0.237754  7 H  s          
    50     -0.225393  3 C  s                 49      0.213100  3 C  s          
[...]
          12     0.09023    -0.10776     0.10669     0.00000     0.00000     0.00000
          13     0.00000     0.00000     0.00000     0.15856    -0.02615     0.01629
          14     0.00000     0.00000     0.00000     0.03040    -0.12710    -0.03802
          15    -0.00032    -0.00631     0.21507     0.00000     0.00000     0.00000
          16     0.00000     0.00000     0.00000    -0.05796     0.02185     0.20886
          17     0.00000     0.00000     0.00000     0.03465    -0.12804    -0.04180
          18     0.08420     0.27142     0.01855     0.00000     0.00000     0.00000
          19     0.00000     0.00000     0.00000    -0.04135     0.01816     0.19409
          20     0.00000     0.00000     0.00000    -0.08680    -0.10112     0.06622
          21     0.23029     0.05965    -0.14398     0.00000     0.00000     0.00000
          22     0.00000     0.00000     0.00000     0.08239    -0.00926     0.08404
          23     0.00000     0.00000     0.00000    -0.14351    -0.08855     0.11666
          24     0.25036    -0.18443    -0.11126     0.00000     0.00000     0.00000
          25     0.00000     0.00000     0.00000     0.20367    -0.03615    -0.02384
          26     0.00000     0.00000     0.00000    -0.07606    -0.10350     0.05667
          27     0.11505    -0.23020     0.10122     0.00000     0.00000     0.00000

                    7           8           9          10          11          12
 
 P.Frequency      134.00      186.07      332.20      442.22      492.35      772.45
 
           1     0.00000     0.01882     0.00000    -0.06564     0.00000     0.00000
           2     0.00000    -0.15955     0.00000    -0.09761     0.00000     0.00000
           3     0.08617     0.00000     0.08987     0.00000    -0.02674     0.04003
           4     0.00000    -0.00307     0.00000    -0.08680     0.00000     0.00000
           5     0.00000    -0.03268     0.00000     0.10472     0.00000     0.00000
           6    -0.07718     0.00000    -0.09742     0.00000    -0.08736    -0.11912
           7     0.00000    -0.06534     0.00000     0.00453     0.00000     0.00000
           8     0.00000    -0.00330     0.00000     0.07722     0.00000     0.00000
           9    -0.04483     0.00000     0.13021     0.00000     0.12179    -0.03194
          10     0.00000     0.00403     0.00000     0.07659     0.00000     0.00000
          11     0.00000     0.04274     0.00000     0.08338     0.00000     0.00000
          12     0.13789     0.00000    -0.03054     0.00000    -0.00789    -0.03698
          13     0.00000     0.01684     0.00000     0.06278     0.00000     0.00000
          14     0.00000     0.16526     0.00000    -0.10747     0.00000     0.00000
          15    -0.11717     0.00000    -0.01895     0.00000    -0.00579     0.01814
          16     0.00000     0.10801     0.00000     0.13705     0.00000     0.00000
          17     0.00000    -0.17361     0.00000    -0.13179     0.00000     0.00000
          18     0.08790     0.00000    -0.55535     0.00000     0.76066     0.11880
          19     0.00000     0.07077     0.00000    -0.02648     0.00000     0.00000
          20     0.00000     0.02071     0.00000     0.14800     0.00000     0.00000
          21    -0.20175     0.00000    -0.37471     0.00000    -0.29490     0.29388
          22     0.00000    -0.06395     0.00000     0.01129     0.00000     0.00000
          23     0.00000    -0.00341     0.00000    -0.06162     0.00000     0.00000
          24    -0.10777     0.00000     0.06041     0.00000    -0.05760     0.80926
          25     0.00000     0.08572     0.00000    -0.00874     0.00000     0.00000
          26     0.00000    -0.01479     0.00000     0.14102     0.00000     0.00000
          27     0.52461     0.00000    -0.28270     0.00000    -0.20793     0.09386

                   13          14          15          16          17          18
 
 P.Frequency      858.71      933.96      934.11     1005.19     1098.99     1267.54
 
           1    -0.05712     0.00000    -0.05787     0.00000    -0.11115    -0.01580
           2    -0.03636     0.00000    -0.02158     0.00000    -0.02228    -0.03334
           3     0.00000     0.01547     0.00000    -0.00233     0.00000     0.00000
           4    -0.02979     0.00000     0.04881     0.00000     0.09908     0.02801
           5     0.09222     0.00000    -0.10370     0.00000    -0.04158     0.03345
           6     0.00000    -0.11748     0.00000     0.02845     0.00000     0.00000
           7     0.19062     0.00000     0.12277     0.00000    -0.00253     0.02043
           8    -0.00646     0.00000    -0.03308     0.00000     0.07488     0.03652
           9     0.00000     0.08783     0.00000     0.05696     0.00000     0.00000
          10    -0.04206     0.00000    -0.01135     0.00000     0.00045    -0.00005
          11    -0.11030     0.00000     0.16925     0.00000    -0.03662    -0.04572
          12     0.00000    -0.02735     0.00000    -0.17341     0.00000     0.00000
          13    -0.04676     0.00000    -0.04575     0.00000     0.04016    -0.00650
          14     0.06250     0.00000    -0.00046     0.00000    -0.00957     0.01058
          15     0.00000     0.00637     0.00000     0.04164     0.00000     0.00000
          16     0.20914     0.00000    -0.18256     0.00000    -0.16180    -0.67448
          17    -0.08230     0.00000    -0.00296     0.00000    -0.02119     0.07590
          18     0.00000    -0.04757     0.00000     0.00180     0.00000     0.00000
          19    -0.10624     0.00000    -0.06286     0.00000     0.08858     0.45817
          20     0.03577     0.00000    -0.19316     0.00000    -0.05428     0.34433
          21     0.00000     0.70196     0.00000    -0.26023     0.00000     0.00000
          22     0.18849     0.00000     0.14061     0.00000    -0.02803     0.03692
          23     0.02162     0.00000    -0.11371     0.00000     0.70074    -0.32707
          24     0.00000    -0.45757     0.00000    -0.01768     0.00000     0.00000
          25    -0.05689     0.00000    -0.15841     0.00000     0.07285    -0.04289
          26    -0.09785     0.00000     0.27310     0.00000    -0.08008    -0.02074
          27     0.00000     0.13537     0.00000     0.70019     0.00000     0.00000

                   19          20          21          22          23          24
 
 P.Frequency     1300.09     1413.02     1451.58     1672.46     1726.51     2961.86
 
           1     0.10934    -0.00433     0.02053     0.00058    -0.01356    -0.00038
           2    -0.04038    -0.01424     0.01839     0.01597    -0.02121     0.00004
           3     0.00000     0.00000     0.00000     0.00000     0.00000     0.00000
           4    -0.12395     0.03349    -0.09762    -0.04939     0.09499     0.00130
           5     0.00276     0.01753    -0.01485    -0.10116     0.13333     0.00028
           6     0.00000     0.00000     0.00000     0.00000     0.00000     0.00000
           7     0.04229     0.01395     0.04226     0.00424    -0.05141     0.00094
           8     0.03213     0.04628    -0.12405     0.11300    -0.13036     0.00145
           9     0.00000     0.00000     0.00000     0.00000     0.00000     0.00000
          10     0.00500     0.00797     0.01607     0.18016     0.12973    -0.04139
          11    -0.00725     0.05033     0.07071    -0.05885    -0.00225    -0.06817
          12     0.00000     0.00000     0.00000     0.00000     0.00000     0.00000
          13     0.00505    -0.06790    -0.04050    -0.11467    -0.08272    -0.00166
          14     0.00156    -0.02422    -0.01208     0.01582     0.00643     0.00072
          15     0.00000     0.00000     0.00000     0.00000     0.00000     0.00000
          16    -0.51701    -0.10110     0.07509     0.13434    -0.16603     0.00058
          17     0.07684     0.00271     0.00945    -0.01431     0.00856    -0.00146
          18     0.00000     0.00000     0.00000     0.00000     0.00000     0.00000
          19    -0.36652    -0.17806     0.43347     0.11607    -0.20116    -0.00163
          20    -0.16886    -0.13649     0.36933    -0.00147    -0.04718    -0.00203
          21     0.00000     0.00000     0.00000     0.00000     0.00000     0.00000
          22     0.02842     0.02923     0.02251     0.01702    -0.08167    -0.03424
          23     0.34391    -0.17013     0.40974    -0.01918     0.13197    -0.01120
          24     0.00000     0.00000     0.00000     0.00000     0.00000     0.00000
          25    -0.04756     0.73651     0.25366    -0.06427    -0.08673     0.53392
          26     0.03521    -0.44464    -0.07675     0.09030     0.13277     0.79373
          27     0.00000     0.00000     0.00000     0.00000     0.00000     0.00000

                   25          26          27
 
 P.Frequency     3192.87     3241.15     3818.33
 
           1     0.00056     0.00084     0.01238
           2    -0.00136    -0.00020     0.05949
           3     0.00000     0.00000     0.00000
           4    -0.04391    -0.00942    -0.00203
           5     0.06779     0.02148     0.00259
           6     0.00000     0.00000     0.00000
           7     0.01760    -0.08109    -0.00032
           8    -0.00358    -0.00724    -0.00154
           9     0.00000     0.00000     0.00000
          10     0.00076    -0.00014    -0.00068
          11     0.00108    -0.00486     0.00060
          12     0.00000     0.00000     0.00000
          13    -0.00021     0.00016     0.00038
          14    -0.00009     0.00012     0.00002
          15     0.00000     0.00000     0.00000
          16    -0.00378    -0.00155    -0.16544
          17     0.01238     0.00336    -0.95181
          18     0.00000     0.00000     0.00000
          19     0.53811     0.12796     0.00034
          20    -0.75333    -0.18504    -0.01176
          21     0.00000     0.00000     0.00000
          22    -0.23092     0.92359    -0.00059
          23    -0.00762     0.04357     0.00042
          24     0.00000     0.00000     0.00000
          25    -0.00461     0.01346    -0.00060
          26    -0.00578     0.02755    -0.00096
          27     0.00000     0.00000     0.00000



 ----------------------------------------------------------------------------
 Normal Eigenvalue ||    Projected Derivative Dipole Moments (debye/angs)
  Mode   [cm**-1]  ||      [d/dqX]             [d/dqY]           [d/dqZ]
 ------ ---------- || ------------------ ------------------ -----------------
    1       -0.000 ||       0.000               0.000             0.272
    2       -0.000 ||       0.000               0.000             0.012
    3        0.000 ||       0.000               0.000            -0.406
    4        0.000 ||      -0.198              -0.150             0.000
    5        0.000 ||       0.044               0.033             0.000
    6        0.000 ||       0.176               0.134             0.000
    7      134.000 ||       0.000               0.000             0.308
    8      186.075 ||       0.170              -0.225             0.000
    9      332.195 ||       0.000               0.000             1.451
   10      442.223 ||       0.272               0.612             0.000
   11      492.346 ||       0.000               0.000             0.851
   12      772.450 ||       0.000               0.000             0.969
   13      858.715 ||       0.630              -0.269             0.000
   14      933.962 ||       0.000               0.000            -0.054
   15      934.106 ||      -0.076               1.314             0.000
   16     1005.186 ||       0.000               0.000            -0.213
   17     1098.988 ||       0.610               0.377             0.000
   18     1267.540 ||      -0.555              -0.189             0.000
   19     1300.093 ||      -1.859              -1.348             0.000
   20     1413.015 ||       0.223               0.059             0.000
   21     1451.575 ||      -0.373               0.313             0.000
   22     1672.460 ||       0.939              -2.178             0.000
   23     1726.512 ||       1.384               1.226             0.000
   24     2961.857 ||      -1.041              -1.531             0.000
   25     3192.874 ||      -0.327               0.267             0.000
   26     3241.148 ||      -0.343               0.161             0.000
   27     3818.332 ||      -0.751              -1.608             0.000
 ----------------------------------------------------------------------------



  
  
 ----------------------------------------------------------------------------
 Normal Eigenvalue ||           Projected Infra Red Intensities
  Mode   [cm**-1]  || [atomic units] [(debye/angs)**2] [(KM/mol)] [arbitrary]
 ------ ---------- || -------------- ----------------- ---------- -----------
    1       -0.000 ||    0.003203           0.074         3.123       0.680
    2       -0.000 ||    0.000006           0.000         0.006       0.001
    3        0.000 ||    0.007156           0.165         6.976       1.518
    4        0.000 ||    0.002686           0.062         2.618       0.570
    5        0.000 ||    0.000132           0.003         0.129       0.028
    6        0.000 ||    0.002124           0.049         2.071       0.451
    7      134.000 ||    0.004120           0.095         4.016       0.874
    8      186.075 ||    0.003458           0.080         3.371       0.734
    9      332.195 ||    0.091267           2.106        88.972      19.367
   10      442.223 ||    0.019441           0.449        18.953       4.125
   11      492.346 ||    0.031364           0.724        30.575       6.655
   12      772.450 ||    0.040722           0.939        39.698       8.641
   13      858.715 ||    0.020341           0.469        19.829       4.316
   14      933.962 ||    0.000127           0.003         0.123       0.027
   15      934.106 ||    0.075049           1.731        73.162      15.925
   16     1005.186 ||    0.001969           0.045         1.919       0.418
   17     1098.988 ||    0.022302           0.515        21.741       4.732
   18     1267.540 ||    0.014908           0.344        14.533       3.163
   19     1300.093 ||    0.228504           5.272       222.757      48.488
   20     1413.015 ||    0.002306           0.053         2.248       0.489
   21     1451.575 ||    0.010267           0.237        10.009       2.179
   22     1672.460 ||    0.243798           5.625       237.666      51.733
   23     1726.512 ||    0.148170           3.418       144.443      31.441
   24     2961.857 ||    0.148569           3.428       144.833      31.526
   25     3192.874 ||    0.007724           0.178         7.529       1.639
   26     3241.148 ||    0.006218           0.143         6.062       1.319
   27     3818.332 ||    0.136482           3.149       133.049      28.961
 ----------------------------------------------------------------------------



 vib:animation  F

 Task  times  cpu:     2754.5s     wall:     2791.4s
 
 
                                NWChem Input Module
                                -------------------
 
 
 Summary of allocated global arrays
-----------------------------------
  No active global arrays



                         GA Statistics for process    0
                         ------------------------------

       create   destroy   get      put      acc     scatter   gather  read&inc
calls: 6.19e+04 6.19e+04 5.29e+06 8.74e+05 2.06e+06    0        0     8.12e+04 
number of processes/call 1.84e+01 5.21e+01 2.25e+01 0.00e+00 0.00e+00
bytes total:             5.47e+09 6.60e+09 1.55e+09 0.00e+00 0.00e+00 6.49e+05
bytes remote:            3.09e+09 4.39e+09 1.10e+09 0.00e+00 0.00e+00 0.00e+00
Max memory consumed for GA by this process: 61382856 bytes
 
MA_summarize_allocated_blocks: starting scan ...
MA_summarize_allocated_blocks: scan completed: 0 heap blocks, 0 stack blocks
MA usage statistics:

	allocation statistics:
					      heap	     stack
					      ----	     -----
	current number of blocks	         0	         0
	maximum number of blocks	        25	        39
	current total bytes		         0	         0
	maximum total bytes		  51845216	  27107528
	maximum total K-bytes		     51846	     27108
	maximum total M-bytes		        52	        28
 
 
                                     CITATION
                                     --------
                Please cite the following reference when publishing
                           results obtained with NWChem:
 
          E. Apr, E. J. Bylaska, W. A. de Jong, N. Govind, K. Kowalski,
       T. P. Straatsma, M. Valiev, H. J. J. van Dam, Y. Alexeev, J. Anchell,
       V. Anisimov, F. W. Aquino, R. Atta-Fynn, J. Autschbach, N. P. Bauman,
     J. C. Becca, D. E. Bernholdt, K. Bhaskaran-Nair, S. Bogatko, P. Borowski,
        J. Boschen, J. Brabec, A. Bruner, E. Caut, Y. Chen, G. N. Chuev,
      C. J. Cramer, J. Daily, M. J. O. Deegan, T. H. Dunning Jr., M. Dupuis,
   K. G. Dyall, G. I. Fann, S. A. Fischer, A. Fonari, H. Frchtl, L. Gagliardi,
      J. Garza, N. Gawande, S. Ghosh, K. Glaesemann, A. W. Gtz, J. Hammond,
       V. Helms, E. D. Hermes, K. Hirao, S. Hirata, M. Jacquelin, L. Jensen,
   B. G. Johnson, H. Jnsson, R. A. Kendall, M. Klemm, R. Kobayashi, V. Konkov,
      S. Krishnamoorthy, M. Krishnan, Z. Lin, R. D. Lins, R. J. Littlefield,
      A. J. Logsdail, K. Lopata, W. Ma, A. V. Marenich, J. Martin del Campo,
   D. Mejia-Rodriguez, J. E. Moore, J. M. Mullin, T. Nakajima, D. R. Nascimento,
    J. A. Nichols, P. J. Nichols, J. Nieplocha, A. Otero-de-la-Roza, B. Palmer,
    A. Panyala, T. Pirojsirikul, B. Peng, R. Peverati, J. Pittner, L. Pollack,
   R. M. Richard, P. Sadayappan, G. C. Schatz, W. A. Shelton, D. W. Silverstein,
   D. M. A. Smith, T. A. Soares, D. Song, M. Swart, H. L. Taylor, G. S. Thomas,
            V. Tipparaju, D. G. Truhlar, K. Tsemekhman, T. Van Voorhis,
     . Vzquez-Mayagoitia, P. Verma, O. Villa, A. Vishnu, K. D. Vogiatzis,
        D. Wang, J. H. Weare, M. J. Williamson, T. L. Windus, K. Woliski,
        A. T. Wong, Q. Wu, C. Yang, Q. Yu, M. Zacharias, Z. Zhang, Y. Zhao,
                                and R. J. Harrison
                        "NWChem: Past, present, and future
                         J. Chem. Phys. 152, 184102 (2020)
                               doi:10.1063/5.0004997
 
                                      AUTHORS
                                      -------
     E. Apra, E. J. Bylaska, N. Govind, K. Kowalski, M. Valiev, W. A. de Jong,
      T. P. Straatsma, H. J. J. van Dam, D. Wang, T. L. Windus, N. P. Bauman,
       A. Panyala, J. Hammond, J. Autschbach, K. Bhaskaran-Nair, J. Brabec,
    K. Lopata, S. A. Fischer, S. Krishnamoorthy, M. Jacquelin, W. Ma, M. Klemm,
       O. Villa, Y. Chen, V. Anisimov, F. Aquino, S. Hirata, M. T. Hackler,
           Eric Hermes, L. Jensen, J. E. Moore, J. C. Becca, V. Konjkov,
            D. Mejia-Rodriguez, T. Risthaus, M. Malagoli, A. Marenich,
   A. Otero-de-la-Roza, J. Mullin, P. Nichols, R. Peverati, J. Pittner, Y. Zhao,
        P.-D. Fan, A. Fonari, M. J. Williamson, R. J. Harrison, J. R. Rehr,
      M. Dupuis, D. Silverstein, D. M. A. Smith, J. Nieplocha, V. Tipparaju,
      M. Krishnan, B. E. Van Kuiken, A. Vazquez-Mayagoitia, M. Swart, Q. Wu,
   T. Van Voorhis, A. A. Auer, M. Nooijen, L. D. Crosby, E. Brown, G. Cisneros,
     G. I. Fann, H. Fruchtl, J. Garza, K. Hirao, R. A. Kendall, J. A. Nichols,
       K. Tsemekhman, K. Wolinski, J. Anchell, D. E. Bernholdt, P. Borowski,
       T. Clark, D. Clerc, H. Dachsel, M. J. O. Deegan, K. Dyall, D. Elwood,
      E. Glendening, M. Gutowski, A. C. Hess, J. Jaffe, B. G. Johnson, J. Ju,
        R. Kobayashi, R. Kutteh, Z. Lin, R. Littlefield, X. Long, B. Meng,
      T. Nakajima, S. Niu, L. Pollack, M. Rosing, K. Glaesemann, G. Sandrone,
      M. Stave, H. Taylor, G. Thomas, J. H. van Lenthe, A. T. Wong, Z. Zhang.

 Total times  cpu:     3421.1s     wall:     3469.1s
