 argument  1 = 1R1.nw
 


============================== echo of input deck ==============================
echo
start 1R1
title "H,H,H Reference 1"
charge 0

geometry
 zmatrix
  O
  C  1  R1
  C  2  R2  1  A1
  H  1  R5  2  A4  3  D0
  H  2  R6  3  A5  4  D180
  H  3  R7  2  A6  1  D180
  H  3  R8  2  A7  1  D0
  variables
    R1  1.329
    R2  1.363
    A1  124.5
    R5  0.994
    A4  105.4
    R6  1.085
    A5  122.5
    R7  1.078
    A6  120.0
    R8  1.099
    A7  117.6
  constants
    D0  0.000
    D180 180.0
 end
end

basis spherical
 * library aug-cc-pVDZ
end

set lindep:n_dep 0

set cphf:maxsub 95
set cphf:maxiter 999
set int:acc_std 1d-16
set fock:densityscreen f

scf
 maxiter 99
 vectors input atomic
 thresh 1d-9
 tol2e 1d-15
end

mp2
 freeze atomic
 tight
end

driver
 clear
 maxiter 99
 tight
end

set "mp2:aotol2e fock" 1d-15
set mp2:aotol2e 1d-15
set mp2:backtol 1d-15


task mp2 optimize
task mp2 frequencies

================================================================================


                                         
                                         
 
 
             Northwest Computational Chemistry Package (NWChem) 7.0.0
             --------------------------------------------------------
 
 
                    Environmental Molecular Sciences Laboratory
                       Pacific Northwest National Laboratory
                                Richland, WA 99352
 
                              Copyright (c) 1994-2020
                       Pacific Northwest National Laboratory
                            Battelle Memorial Institute
 
             NWChem is an open-source computational chemistry package
                        distributed under the terms of the
                      Educational Community License (ECL) 2.0
             A copy of the license is included with this distribution
                              in the LICENSE.TXT file
 
                                  ACKNOWLEDGMENT
                                  --------------

            This software and its documentation were developed at the
            EMSL at Pacific Northwest National Laboratory, a multiprogram
            national laboratory, operated for the U.S. Department of Energy
            by Battelle under Contract Number DE-AC05-76RL01830. Support
            for this work was provided by the Department of Energy Office
            of Biological and Environmental Research, Office of Basic
            Energy Sciences, and the Office of Advanced Scientific Computing.


           Job information
           ---------------

    hostname        = compute-0-40.local
    program         = /scratch/nwchem.277679
    date            = Wed Mar 24 12:29:19 2021

    compiled        = Thu_Jun_25_16:07:03_2020
    source          = /home/edo/nwchem-7.0.1
    nwchem branch   = 7.0.1
    nwchem revision = de46fdf
    ga revision     = 5.7.1
    use scalapack   = T
    input           = 1R1.nw
    prefix          = 1R1.
    data base       = ./1R1.db
    status          = startup
    nproc           =       11
    time left       =     -1s



           Memory information
           ------------------

    heap     =   13107198 doubles =    100.0 Mbytes
    stack    =   13107195 doubles =    100.0 Mbytes
    global   =   26214400 doubles =    200.0 Mbytes (distinct from heap & stack)
    total    =   52428793 doubles =    400.0 Mbytes
    verify   = yes
    hardfail = no 


           Directory information
           ---------------------
 
  0 permanent = .
  0 scratch   = /scratch
 
 
 
 
                                NWChem Input Module
                                -------------------
 
 
                                 H,H,H Reference 1
                                 -----------------

 Scaling coordinates for geometry "geometry" by  1.889725989
 (inverse scale =  0.529177249)

 CS  symmetry detected
 
 
                             Geometry "geometry" -> ""
                             -------------------------
 
 Output coordinates in angstroms (scale by  1.889725989 to convert to a.u.)
 
  No.       Tag          Charge          X              Y              Z
 ---- ---------------- ---------- -------------- -------------- --------------
    1 O                    8.0000     0.13452819     1.18305687     0.00000000
    2 C                    6.0000    -0.46081210    -0.00513963     0.00000000
    3 C                    6.0000     0.19763219    -1.19854658     0.00000000
    4 H                    1.0000     1.10955397     0.98976764     0.00000000
    5 H                    1.0000    -1.54365568     0.06323273     0.00000000
    6 H                    1.0000    -0.35939927    -2.12147667     0.00000000
    7 H                    1.0000     1.29635492    -1.17386143     0.00000000
 
      Atomic Mass 
      ----------- 
 
      O                 15.994910
      C                 12.000000
      H                  1.007825
 

 Effective nuclear repulsion energy (a.u.)      70.5206809521

            Nuclear Dipole moment (a.u.) 
            ----------------------------
        X                 Y               Z
 ---------------- ---------------- ----------------
     0.0000000000     0.0000000000     0.0000000000
 
      Symmetry information
      --------------------
 
 Group name             Cs        
 Group number              2
 Group order               2
 No. of unique centers     7
 
      Symmetry unique atoms
 
     1    2    3    4    5    6    7
 


                                Z-matrix (user)
                                -------- 

 Units are Angstrom for bonds and degrees for angles

  Constants are marked with an asterisk (*).

  Constrained variables are marked with a plus sign (+).

 
      Type          Name      I     J     K     L     M      Value
      ----------- --------  ----- ----- ----- ----- ----- ----------
    1 Stretch      R1          2     1                       1.32900
    2 Stretch      R2          3     2                       1.36300
    3 Bend         A1          3     2     1               124.50000
    4 Stretch      R5          4     1                       0.99400
    5 Bend         A4          4     1     2               105.40000
    6*Torsion      D0          4     1     2     3           0.00000
    7 Stretch      R6          5     2                       1.08500
    8 Bend         A5          5     2     3               122.50000
    9*Torsion      D180        5     2     3     4         180.00000
   10 Stretch      R7          6     3                       1.07800
   11 Bend         A6          6     3     2               120.00000
   12*Torsion      D180        6     3     2     1         180.00000
   13 Stretch      R8          7     3                       1.09900
   14 Bend         A7          7     3     2               117.60000
   15*Torsion      D0          7     3     2     1           0.00000
 
 
            XYZ format geometry
            -------------------
     7
 geometry
 O                     0.13452819     1.18305687     0.00000000
 C                    -0.46081210    -0.00513963     0.00000000
 C                     0.19763219    -1.19854658     0.00000000
 H                     1.10955397     0.98976764     0.00000000
 H                    -1.54365568     0.06323273     0.00000000
 H                    -0.35939927    -2.12147667     0.00000000
 H                     1.29635492    -1.17386143     0.00000000
 
 ==============================================================================
                                internuclear distances
 ------------------------------------------------------------------------------
       center one      |      center two      | atomic units |  angstroms
 ------------------------------------------------------------------------------
    2 C                |   1 O                |     2.51145  |     1.32900
    3 C                |   2 C                |     2.57570  |     1.36300
    4 H                |   1 O                |     1.87839  |     0.99400
    5 H                |   2 C                |     2.05035  |     1.08500
    6 H                |   3 C                |     2.03712  |     1.07800
    7 H                |   3 C                |     2.07681  |     1.09900
 ------------------------------------------------------------------------------
                         number of included internuclear distances:          6
 ==============================================================================



 ==============================================================================
                                 internuclear angles
 ------------------------------------------------------------------------------
        center 1       |       center 2       |       center 3       |  degrees
 ------------------------------------------------------------------------------
    2 C                |   1 O                |   4 H                |   105.40
    1 O                |   2 C                |   3 C                |   124.50
    1 O                |   2 C                |   5 H                |   113.00
    3 C                |   2 C                |   5 H                |   122.50
    2 C                |   3 C                |   6 H                |   120.00
    2 C                |   3 C                |   7 H                |   117.60
    6 H                |   3 C                |   7 H                |   122.40
 ------------------------------------------------------------------------------
                            number of included internuclear angles:          7
 ==============================================================================





 Summary of "ao basis" -> "" (spherical)
 ------------------------------------------------------------------------------
       Tag                 Description            Shells   Functions and Types
 ---------------- ------------------------------  ------  ---------------------
 *                        aug-cc-pVDZ                 on all atoms 


 
  Deleted DRIVER restart files 
 
 
 
                           NWChem Geometry Optimization
                           ----------------------------
 
 
 
 
                                 H,H,H Reference 1
 
 
 maximum gradient threshold         (gmax) =   0.000015
 rms gradient threshold             (grms) =   0.000010
 maximum cartesian step threshold   (xmax) =   0.000060
 rms cartesian step threshold       (xrms) =   0.000040
 fixed trust radius                (trust) =   0.300000
 maximum step size to saddle      (sadstp) =   0.100000
 energy precision                  (eprec) =   1.0D-07
 maximum number of steps          (nptopt) =   99
 initial hessian option           (inhess) =    0
 line search option               (linopt) =    1
 hessian update option            (modupd) =    1
 saddle point option              (modsad) =    0
 initial eigen-mode to follow     (moddir) =    0
 initial variable to follow       (vardir) =    0
 follow first negative mode     (firstneg) =    T
 apply conjugacy                    (opcg) =    F
 source of zmatrix                         =   user    


          -------------------
          Energy Minimization
          -------------------

 
 Names of Z-matrix variables 
    1 R1           2 R2           3 A1           4 R5           5 A4      
    6 D0           7 R6           8 A5           9 D180        10 R7      
   11 A6          12 D180        13 R8          14 A7          15 D0      
 
 Variables with the same non-blank name are constrained to be equal
 
     variables named       D0 =     6   15 
     variables named     D180 =     9   12 

 Number of frozen variables =    4
           Frozen variables =    6    9   12   15
 
 Using diagonal initial Hessian 
 Scaling for Hessian diagonals: bonds = 1.00  angles = 0.25  torsions = 0.10

          --------
          Step   0
          --------
 
 
                         Geometry "geometry" -> "geometry"
                         ---------------------------------
 
 Output coordinates in angstroms (scale by  1.889725989 to convert to a.u.)
 
  No.       Tag          Charge          X              Y              Z
 ---- ---------------- ---------- -------------- -------------- --------------
    1 O                    8.0000     0.13452819     1.18305687     0.00000000
    2 C                    6.0000    -0.46081210    -0.00513963     0.00000000
    3 C                    6.0000     0.19763219    -1.19854658     0.00000000
    4 H                    1.0000     1.10955397     0.98976764     0.00000000
    5 H                    1.0000    -1.54365568     0.06323273     0.00000000
    6 H                    1.0000    -0.35939927    -2.12147667     0.00000000
    7 H                    1.0000     1.29635492    -1.17386143     0.00000000
 
      Atomic Mass 
      ----------- 
 
      O                 15.994910
      C                 12.000000
      H                  1.007825
 

 Effective nuclear repulsion energy (a.u.)      70.5206809521

            Nuclear Dipole moment (a.u.) 
            ----------------------------
        X                 Y               Z
 ---------------- ---------------- ----------------
     0.0000000000     0.0000000000     0.0000000000
 
      Symmetry information
      --------------------
 
 Group name             Cs        
 Group number              2
 Group order               2
 No. of unique centers     7
 
      Symmetry unique atoms
 
     1    2    3    4    5    6    7
 
                      Basis "ao basis" -> "ao basis" (spherical)
                      -----
  O (Oxygen)
  ----------
            Exponent  Coefficients 
       -------------- ---------------------------------------------------------
  1 S  1.17200000E+04  0.000710
  1 S  1.75900000E+03  0.005470
  1 S  4.00800000E+02  0.027837
  1 S  1.13700000E+02  0.104800
  1 S  3.70300000E+01  0.283062
  1 S  1.32700000E+01  0.448719
  1 S  5.02500000E+00  0.270952
  1 S  1.01300000E+00  0.015458
 
  2 S  1.17200000E+04 -0.000160
  2 S  1.75900000E+03 -0.001263
  2 S  4.00800000E+02 -0.006267
  2 S  1.13700000E+02 -0.025716
  2 S  3.70300000E+01 -0.070924
  2 S  1.32700000E+01 -0.165411
  2 S  5.02500000E+00 -0.116955
  2 S  1.01300000E+00  0.557368
 
  3 S  3.02300000E-01  1.000000
 
  4 S  7.89600000E-02  1.000000
 
  5 P  1.77000000E+01  0.043018
  5 P  3.85400000E+00  0.228913
  5 P  1.04600000E+00  0.508728
 
  6 P  2.75300000E-01  1.000000
 
  7 P  6.85600000E-02  1.000000
 
  8 D  1.18500000E+00  1.000000
 
  9 D  3.32000000E-01  1.000000
 
  C (Carbon)
  ----------
            Exponent  Coefficients 
       -------------- ---------------------------------------------------------
  1 S  6.66500000E+03  0.000692
  1 S  1.00000000E+03  0.005329
  1 S  2.28000000E+02  0.027077
  1 S  6.47100000E+01  0.101718
  1 S  2.10600000E+01  0.274740
  1 S  7.49500000E+00  0.448564
  1 S  2.79700000E+00  0.285074
  1 S  5.21500000E-01  0.015204
 
  2 S  6.66500000E+03 -0.000146
  2 S  1.00000000E+03 -0.001154
  2 S  2.28000000E+02 -0.005725
  2 S  6.47100000E+01 -0.023312
  2 S  2.10600000E+01 -0.063955
  2 S  7.49500000E+00 -0.149981
  2 S  2.79700000E+00 -0.127262
  2 S  5.21500000E-01  0.544529
 
  3 S  1.59600000E-01  1.000000
 
  4 S  4.69000000E-02  1.000000
 
  5 P  9.43900000E+00  0.038109
  5 P  2.00200000E+00  0.209480
  5 P  5.45600000E-01  0.508557
 
  6 P  1.51700000E-01  1.000000
 
  7 P  4.04100000E-02  1.000000
 
  8 D  5.50000000E-01  1.000000
 
  9 D  1.51000000E-01  1.000000
 
  H (Hydrogen)
  ------------
            Exponent  Coefficients 
       -------------- ---------------------------------------------------------
  1 S  1.30100000E+01  0.019685
  1 S  1.96200000E+00  0.137977
  1 S  4.44600000E-01  0.478148
 
  2 S  1.22000000E-01  1.000000
 
  3 S  2.97400000E-02  1.000000
 
  4 P  7.27000000E-01  1.000000
 
  5 P  1.41000000E-01  1.000000
 


 Summary of "ao basis" -> "ao basis" (spherical)
 ------------------------------------------------------------------------------
       Tag                 Description            Shells   Functions and Types
 ---------------- ------------------------------  ------  ---------------------
 O                        aug-cc-pVDZ                9       23   4s3p2d
 C                        aug-cc-pVDZ                9       23   4s3p2d
 H                        aug-cc-pVDZ                5        9   3s2p


                                 NWChem SCF Module
                                 -----------------
 
 
                                 H,H,H Reference 1
 
 

  ao basis        = "ao basis"
  functions       =   105
  atoms           =     7
  closed shells   =    12
  open shells     =     0
  charge          =   0.00
  wavefunction    = RHF 
  input vectors   = atomic
  output vectors  = ./1R1.movecs
  use symmetry    = T
  symmetry adapt  = T


 Summary of "ao basis" -> "ao basis" (spherical)
 ------------------------------------------------------------------------------
       Tag                 Description            Shells   Functions and Types
 ---------------- ------------------------------  ------  ---------------------
 O                        aug-cc-pVDZ                9       23   4s3p2d
 C                        aug-cc-pVDZ                9       23   4s3p2d
 H                        aug-cc-pVDZ                5        9   3s2p


      Symmetry analysis of basis
      --------------------------
 
        a'         76
        a"         29
 

int_init: setting std/high accuracies to  1.0D-16  1.0D-32

 Forming initial guess at       0.2s


 Forcing the number of linearly dependent vectors to be  0
 
      Superposition of Atomic Density Guess
      -------------------------------------
 
 Sum of atomic energies:        -152.09819709
 
      Non-variational initial energy
      ------------------------------

 Total energy =    -153.641529
 1-e energy   =    -344.902162
 2-e energy   =     120.739952
 HOMO         =      -0.277572
 LUMO         =       0.026089
 
 
      Symmetry analysis of molecular orbitals - initial
      -------------------------------------------------
 
  Numbering of irreducible representations: 
 
     1 a'          2 a"      
 
  Orbital symmetries:
 
     1 a'          2 a'          3 a'          4 a'          5 a'      
     6 a'          7 a'          8 a'          9 a"         10 a'      
    11 a'         12 a"         13 a'         14 a"         15 a'      
    16 a'         17 a'         18 a"         19 a'         20 a'      
    21 a'         22 a"      
 

 Starting SCF solution at       0.6s



 ----------------------------------------------
         Quadratically convergent ROHF

 Convergence threshold     :          1.000E-09
 Maximum no. of iterations :           99
 Final Fock-matrix accuracy:          1.000E-15
 ----------------------------------------------

 Warning: symmetry breaking in RHF:   1.719995049411578E-014

              iter       energy          gnorm     gmax       time
             ----- ------------------- --------- --------- --------
                 1     -152.8657566356  8.24D-01  1.11D-01      0.6
 Warning: symmetry breaking in RHF:   1.720284788982780E-014
                 2     -152.9072865004  3.30D-01  6.51D-02      0.9
 Warning: symmetry breaking in RHF:   1.812884201947728E-014
                 3     -152.9138924091  1.81D-02  4.93D-03      1.7
 Warning: symmetry breaking in RHF:   1.830016700019249E-014
                 4     -152.9139363503  9.09D-05  3.60D-05      3.2
 Warning: symmetry breaking in RHF:   1.829992155850101E-014
                 5     -152.9139363518  2.62D-09  4.33D-10      5.8
 Warning: symmetry breaking in RHF:   1.829938123427141E-014
                 6     -152.9139363518  8.53D-11  2.65D-11      6.8


       Final RHF  results 
       ------------------ 

         Total SCF energy =   -152.913936351815
      One-electron energy =   -347.256027673062
      Two-electron energy =    123.821410369193
 Nuclear repulsion energy =     70.520680952054

        Time for solution =      6.5s


 
       Symmetry analysis of molecular orbitals - final
       -----------------------------------------------
 
  Numbering of irreducible representations: 
 
     1 a'          2 a"      
 
  Orbital symmetries:
 
     1 a'          2 a'          3 a'          4 a'          5 a'      
     6 a'          7 a'          8 a'          9 a"         10 a'      
    11 a'         12 a"         13 a'         14 a'         15 a'      
    16 a'         17 a"         18 a"         19 a'         20 a'      
    21 a'         22 a'      
 
             Final eigenvalues
             -----------------

              1      
    1  -20.6108
    2  -11.3129
    3  -11.2265
    4   -1.4247
    5   -1.0138
    6   -0.8369
    7   -0.6838
    8   -0.6717
    9   -0.5905
   10   -0.5546
   11   -0.5391
   12   -0.3411
   13    0.0374
   14    0.0448
   15    0.0526
   16    0.0715
   17    0.1121
   18    0.1171
   19    0.1197
   20    0.1413
   21    0.1488
   22    0.1735
 
                       ROHF Final Molecular Orbital Analysis
                       -------------------------------------
 
 Vector    3  Occ=2.000000D+00  E=-1.122654D+01  Symmetry=a'
              MO Center=  2.0D-01, -1.2D+00, -2.9D-19, r^2= 2.7D-02
   Bfn.  Coefficient  Atom+Function         Bfn.  Coefficient  Atom+Function  
  ----- ------------  ---------------      ----- ------------  ---------------
    47      1.003601  3 C  s          
 
 Vector    4  Occ=2.000000D+00  E=-1.424696D+00  Symmetry=a'
              MO Center=  1.4D-01,  9.4D-01, -4.5D-36, r^2= 5.7D-01
   Bfn.  Coefficient  Atom+Function         Bfn.  Coefficient  Atom+Function  
  ----- ------------  ---------------      ----- ------------  ---------------
     3      0.470998  1 O  s                  2      0.416181  1 O  s          
    27     -0.199886  2 C  s                 70      0.174247  4 H  s          
    50      0.159457  3 C  s          
 
 Vector    5  Occ=2.000000D+00  E=-1.013787D+00  Symmetry=a'
              MO Center= -7.9D-02, -5.7D-01,  4.0D-32, r^2= 1.4D+00
   Bfn.  Coefficient  Atom+Function         Bfn.  Coefficient  Atom+Function  
  ----- ------------  ---------------      ----- ------------  ---------------
    48      0.301028  3 C  s                 25      0.270587  2 C  s          
    49      0.222513  3 C  s                  3     -0.157146  1 O  s          
 
 Vector    6  Occ=2.000000D+00  E=-8.368922D-01  Symmetry=a'
              MO Center= -2.0D-02,  2.4D-01,  2.2D-18, r^2= 2.1D+00
   Bfn.  Coefficient  Atom+Function         Bfn.  Coefficient  Atom+Function  
  ----- ------------  ---------------      ----- ------------  ---------------
     5      0.315897  1 O  px                70      0.247772  4 H  s          
    26     -0.229469  2 C  s                 49      0.205628  3 C  s          
    25     -0.202631  2 C  s                 79     -0.202170  5 H  s          
    29     -0.182974  2 C  py                48      0.180255  3 C  s          
 
 Vector    7  Occ=2.000000D+00  E=-6.838257D-01  Symmetry=a'
              MO Center= -3.3D-02, -3.7D-02, -3.0D-31, r^2= 2.6D+00
   Bfn.  Coefficient  Atom+Function         Bfn.  Coefficient  Atom+Function  
  ----- ------------  ---------------      ----- ------------  ---------------
     6      0.334487  1 O  py                52     -0.257130  3 C  py         
    88      0.246428  6 H  s                 28     -0.228117  2 C  px         
     9      0.224707  1 O  py                 3      0.195486  1 O  s          
    89      0.175480  6 H  s                  5     -0.171598  1 O  px         
 
 Vector    8  Occ=2.000000D+00  E=-6.717186D-01  Symmetry=a'
              MO Center= -9.1D-03, -8.7D-02,  2.8D-17, r^2= 2.2D+00
   Bfn.  Coefficient  Atom+Function         Bfn.  Coefficient  Atom+Function  
  ----- ------------  ---------------      ----- ------------  ---------------
     5      0.279823  1 O  px                29     -0.247096  2 C  py         
    27     -0.236798  2 C  s                 50      0.235285  3 C  s          
    97     -0.227306  7 H  s                 79      0.222229  5 H  s          
    51     -0.219309  3 C  px                28     -0.207650  2 C  px         
    70      0.203741  4 H  s                 80      0.199431  5 H  s          
 
 Vector    9  Occ=2.000000D+00  E=-5.904812D-01  Symmetry=a"
              MO Center=  5.9D-02,  9.0D-01, -1.5D-16, r^2= 1.0D+00
   Bfn.  Coefficient  Atom+Function         Bfn.  Coefficient  Atom+Function  
  ----- ------------  ---------------      ----- ------------  ---------------
     7      0.558560  1 O  pz                10      0.409035  1 O  pz         
    30      0.221838  2 C  pz         
 
 Vector   10  Occ=2.000000D+00  E=-5.546440D-01  Symmetry=a'
              MO Center=  1.4D-01, -7.0D-01,  8.0D-17, r^2= 2.6D+00
   Bfn.  Coefficient  Atom+Function         Bfn.  Coefficient  Atom+Function  
  ----- ------------  ---------------      ----- ------------  ---------------
    89     -0.344195  6 H  s                 88     -0.323384  6 H  s          
     6      0.318192  1 O  py                52      0.264932  3 C  py         
    51      0.249972  3 C  px                98      0.244916  7 H  s          
    97      0.240506  7 H  s                  9      0.218805  1 O  py         
 
 Vector   11  Occ=2.000000D+00  E=-5.391430D-01  Symmetry=a'
              MO Center= -1.3D-01, -9.2D-02,  3.6D-17, r^2= 2.3D+00
   Bfn.  Coefficient  Atom+Function         Bfn.  Coefficient  Atom+Function  
  ----- ------------  ---------------      ----- ------------  ---------------
    28      0.284949  2 C  px                79     -0.283353  5 H  s          
    80     -0.261863  5 H  s                 51     -0.251922  3 C  px         
    97     -0.222994  7 H  s                 98     -0.220793  7 H  s          
     5     -0.207824  1 O  px                29     -0.203775  2 C  py         
    70     -0.193679  4 H  s                 52      0.184189  3 C  py         
 
 Vector   12  Occ=2.000000D+00  E=-3.410895D-01  Symmetry=a"
              MO Center= -2.1D-02, -5.4D-01, -7.8D-17, r^2= 1.9D+00
   Bfn.  Coefficient  Atom+Function         Bfn.  Coefficient  Atom+Function  
  ----- ------------  ---------------      ----- ------------  ---------------
    53      0.409049  3 C  pz                30      0.303940  2 C  pz         
    56      0.293713  3 C  pz                 7     -0.274137  1 O  pz         
    10     -0.224381  1 O  pz                33      0.218907  2 C  pz         
 
 Vector   13  Occ=0.000000D+00  E= 3.741236D-02  Symmetry=a'
              MO Center=  1.8D+00, -1.7D-01,  1.2D-16, r^2= 1.5D+01
   Bfn.  Coefficient  Atom+Function         Bfn.  Coefficient  Atom+Function  
  ----- ------------  ---------------      ----- ------------  ---------------
    50      1.982965  3 C  s                 99     -1.877521  7 H  s          
    27      1.704863  2 C  s                 72     -1.094231  4 H  s          
    57      0.771713  3 C  px                98     -0.732353  7 H  s          
    81     -0.678151  5 H  s                 49      0.524286  3 C  s          
    11      0.402261  1 O  px                89     -0.402524  6 H  s          
 
 Vector   14  Occ=0.000000D+00  E= 4.482848D-02  Symmetry=a'
              MO Center= -1.6D+00, -7.7D-01, -8.2D-17, r^2= 1.9D+01
   Bfn.  Coefficient  Atom+Function         Bfn.  Coefficient  Atom+Function  
  ----- ------------  ---------------      ----- ------------  ---------------
    50      4.542592  3 C  s                 81     -3.730504  5 H  s          
    27     -2.416780  2 C  s                 34     -2.321371  2 C  px         
    99      2.237166  7 H  s                 90     -1.694122  6 H  s          
    57     -1.327170  3 C  px                35      1.193978  2 C  py         
    72      1.169048  4 H  s                 89     -0.976143  6 H  s          
 
 Vector   15  Occ=0.000000D+00  E= 5.262839D-02  Symmetry=a'
              MO Center= -2.5D-01, -1.2D+00, -3.1D-17, r^2= 2.4D+01
   Bfn.  Coefficient  Atom+Function         Bfn.  Coefficient  Atom+Function  
  ----- ------------  ---------------      ----- ------------  ---------------
    90     -3.989071  6 H  s                 81      3.898832  5 H  s          
    58     -2.435624  3 C  py                34      2.137046  2 C  px         
    72      1.805664  4 H  s                 35     -1.619073  2 C  py         
    99     -1.580644  7 H  s                 27      1.434322  2 C  s          
    50     -1.429664  3 C  s                 89     -0.842220  6 H  s          
 
 Vector   16  Occ=0.000000D+00  E= 7.148760D-02  Symmetry=a'
              MO Center=  1.1D+00, -9.7D-01,  1.2D-17, r^2= 2.5D+01
   Bfn.  Coefficient  Atom+Function         Bfn.  Coefficient  Atom+Function  
  ----- ------------  ---------------      ----- ------------  ---------------
    99      6.909064  7 H  s                 90     -5.939134  6 H  s          
    72     -3.907945  4 H  s                 81      3.895544  5 H  s          
    57     -3.274615  3 C  px                34      3.180228  2 C  px         
    50     -2.466661  3 C  s                 58     -2.203677  3 C  py         
    98      1.149651  7 H  s                 80      1.122543  5 H  s          
 
 Vector   17  Occ=0.000000D+00  E= 1.121097D-01  Symmetry=a"
              MO Center=  3.4D-01, -1.4D+00, -6.4D-16, r^2= 9.6D+00
   Bfn.  Coefficient  Atom+Function         Bfn.  Coefficient  Atom+Function  
  ----- ------------  ---------------      ----- ------------  ---------------
    59      2.052200  3 C  pz                36     -1.750427  2 C  pz         
    13      0.422819  1 O  pz                33     -0.346412  2 C  pz         
    30     -0.230294  2 C  pz         
 
 Vector   18  Occ=0.000000D+00  E= 1.170881D-01  Symmetry=a"
              MO Center= -1.0D+00,  5.0D-02, -1.9D-17, r^2= 1.1D+01
   Bfn.  Coefficient  Atom+Function         Bfn.  Coefficient  Atom+Function  
  ----- ------------  ---------------      ----- ------------  ---------------
    36      1.969893  2 C  pz                13     -0.563058  1 O  pz         
    59     -0.487860  3 C  pz                87     -0.164455  5 H  pz         
    56     -0.160688  3 C  pz         
 
 Vector   19  Occ=0.000000D+00  E= 1.197368D-01  Symmetry=a'
              MO Center= -9.7D-01,  4.2D-01,  9.4D-16, r^2= 1.5D+01
   Bfn.  Coefficient  Atom+Function         Bfn.  Coefficient  Atom+Function  
  ----- ------------  ---------------      ----- ------------  ---------------
    35      4.678863  2 C  py                50      4.259937  3 C  s          
     4     -4.015190  1 O  s                 72     -1.918190  4 H  s          
    57     -1.201354  3 C  px                80      0.997148  5 H  s          
    71      0.952928  4 H  s                 81     -0.881904  5 H  s          
    99      0.838219  7 H  s                 58     -0.788316  3 C  py         
 
 Vector   20  Occ=0.000000D+00  E= 1.412588D-01  Symmetry=a'
              MO Center=  5.4D-01, -1.3D+00, -1.2D-16, r^2= 1.7D+01
   Bfn.  Coefficient  Atom+Function         Bfn.  Coefficient  Atom+Function  
  ----- ------------  ---------------      ----- ------------  ---------------
    27     18.969921  2 C  s                 50    -18.281238  3 C  s          
    58     -8.134414  3 C  py                35     -6.469257  2 C  py         
    57      4.536735  3 C  px                81      4.446877  5 H  s          
    99     -4.384023  7 H  s                 90     -3.884839  6 H  s          
    34      3.221797  2 C  px                72      3.091321  4 H  s          
 
 Vector   21  Occ=0.000000D+00  E= 1.488222D-01  Symmetry=a'
              MO Center= -5.2D-01,  3.6D-02, -3.0D-16, r^2= 1.7D+01
   Bfn.  Coefficient  Atom+Function         Bfn.  Coefficient  Atom+Function  
  ----- ------------  ---------------      ----- ------------  ---------------
    27     23.337937  2 C  s                 50    -21.044297  3 C  s          
    34     10.040645  2 C  px                81      7.933623  5 H  s          
    35     -6.434203  2 C  py                58     -6.257850  3 C  py         
     4     -5.518100  1 O  s                 99     -3.466205  7 H  s          
    90     -3.074168  6 H  s                 57      2.762551  3 C  px         
 
 Vector   22  Occ=0.000000D+00  E= 1.734527D-01  Symmetry=a'
              MO Center= -4.2D-01, -1.4D+00, -1.5D-16, r^2= 1.4D+01
   Bfn.  Coefficient  Atom+Function         Bfn.  Coefficient  Atom+Function  
  ----- ------------  ---------------      ----- ------------  ---------------
    27      8.737178  2 C  s                 90     -6.545097  6 H  s          
    58     -4.765092  3 C  py                50     -4.441788  3 C  s          
    57     -4.143880  3 C  px                99      3.920428  7 H  s          
    89     -3.650425  6 H  s                 34      3.567384  2 C  px         
     4     -2.350001  1 O  s                 98      2.273685  7 H  s          
 
 Vector   23  Occ=0.000000D+00  E= 1.814769D-01  Symmetry=a'
              MO Center= -2.5D-01, -3.1D-01, -4.5D-18, r^2= 1.5D+01
   Bfn.  Coefficient  Atom+Function         Bfn.  Coefficient  Atom+Function  
  ----- ------------  ---------------      ----- ------------  ---------------
    34      5.481627  2 C  px                50     -4.962253  3 C  s          
    81      4.547349  5 H  s                 99      4.361666  7 H  s          
    27     -4.222237  2 C  s                 57     -4.216003  3 C  px         
    98      2.857145  7 H  s                 80      2.407421  5 H  s          
    90     -1.873239  6 H  s                  4     -1.770550  1 O  s          
 
 Vector   24  Occ=0.000000D+00  E= 2.028009D-01  Symmetry=a"
              MO Center=  3.0D-02, -3.6D-01, -3.9D-15, r^2= 7.4D+00
   Bfn.  Coefficient  Atom+Function         Bfn.  Coefficient  Atom+Function  
  ----- ------------  ---------------      ----- ------------  ---------------
    59      1.497029  3 C  pz                36     -1.141117  2 C  pz         
    13     -0.429534  1 O  pz                33      0.354483  2 C  pz         
    30      0.338603  2 C  pz                87      0.318532  5 H  pz         
    53     -0.293735  3 C  pz                56     -0.226994  3 C  pz         
   105     -0.217698  7 H  pz                43      0.205600  2 C  d -1       
 
 Vector   25  Occ=0.000000D+00  E= 2.163387D-01  Symmetry=a'
              MO Center= -4.8D-01, -1.1D+00,  8.6D-16, r^2= 1.3D+01
   Bfn.  Coefficient  Atom+Function         Bfn.  Coefficient  Atom+Function  
  ----- ------------  ---------------      ----- ------------  ---------------
    27     30.076027  2 C  s                 50    -27.431313  3 C  s          
    35     -6.307185  2 C  py                57      5.287624  3 C  px         
     4     -4.945004  1 O  s                 58     -4.292174  3 C  py         
    80     -3.941203  5 H  s                 89      3.848117  6 H  s          
    99     -2.992906  7 H  s                 34      2.950283  2 C  px         
 
 Vector   26  Occ=0.000000D+00  E= 2.195725D-01  Symmetry=a'
              MO Center=  1.4D+00,  8.2D-02,  3.6D-15, r^2= 1.3D+01
   Bfn.  Coefficient  Atom+Function         Bfn.  Coefficient  Atom+Function  
  ----- ------------  ---------------      ----- ------------  ---------------
    50     12.307450  3 C  s                 27    -10.346532  2 C  s          
    99     -5.576429  7 H  s                 90      4.696808  6 H  s          
    58      4.626115  3 C  py                34     -3.842905  2 C  px         
    98     -3.554024  7 H  s                 72      3.213131  4 H  s          
    57      3.136965  3 C  px                81     -2.704576  5 H  s          
 
 Vector   27  Occ=0.000000D+00  E= 2.512604D-01  Symmetry=a"
              MO Center= -6.2D-02,  8.5D-01,  6.1D-16, r^2= 8.3D+00
   Bfn.  Coefficient  Atom+Function         Bfn.  Coefficient  Atom+Function  
  ----- ------------  ---------------      ----- ------------  ---------------
    13      2.174857  1 O  pz                36     -2.125803  2 C  pz         
    59      1.105851  3 C  pz                43     -0.294630  2 C  d -1       
    56     -0.294889  3 C  pz                10     -0.259905  1 O  pz         
    96     -0.215904  6 H  pz                 7     -0.212642  1 O  pz         
    78     -0.196928  4 H  pz                30      0.169966  2 C  pz         
 
 Vector   28  Occ=0.000000D+00  E= 2.517072D-01  Symmetry=a'
              MO Center=  3.7D-01,  1.4D+00, -4.8D-15, r^2= 1.0D+01
   Bfn.  Coefficient  Atom+Function         Bfn.  Coefficient  Atom+Function  
  ----- ------------  ---------------      ----- ------------  ---------------
     4      3.955754  1 O  s                 12     -3.696511  1 O  py         
    27     -2.703253  2 C  s                 58     -1.921981  3 C  py         
    49     -1.683852  3 C  s                 55     -1.684628  3 C  py         
    90     -1.629846  6 H  s                 32     -1.582496  2 C  py         
    72      1.581540  4 H  s                 26      1.320590  2 C  s          
 
 Vector   29  Occ=0.000000D+00  E= 2.978436D-01  Symmetry=a'
              MO Center=  3.3D-01, -7.9D-01,  3.6D-15, r^2= 7.9D+00
   Bfn.  Coefficient  Atom+Function         Bfn.  Coefficient  Atom+Function  
  ----- ------------  ---------------      ----- ------------  ---------------
    27     23.313932  2 C  s                 50    -22.022173  3 C  s          
    58     -5.961698  3 C  py                 4     -5.331781  1 O  s          
    34      5.346807  2 C  px                98      4.016631  7 H  s          
    35     -3.069417  2 C  py                89      3.070783  6 H  s          
    26     -2.852893  2 C  s                 55      2.754952  3 C  py         
 
 Vector   30  Occ=0.000000D+00  E= 3.258197D-01  Symmetry=a'
              MO Center= -6.5D-01,  6.2D-01,  7.0D-16, r^2= 1.0D+01
   Bfn.  Coefficient  Atom+Function         Bfn.  Coefficient  Atom+Function  
  ----- ------------  ---------------      ----- ------------  ---------------
    50     25.070128  3 C  s                 27    -22.712614  2 C  s          
    35      9.437145  2 C  py                34     -7.145845  2 C  px         
    81     -5.290903  5 H  s                 58      4.950940  3 C  py         
    57     -4.486801  3 C  px                11      3.733181  1 O  px         
     4      3.635468  1 O  s                 99      3.646187  7 H  s          
 
 Vector   31  Occ=0.000000D+00  E= 3.347237D-01  Symmetry=a'
              MO Center= -6.9D-01,  2.4D-01,  4.3D-17, r^2= 8.5D+00
   Bfn.  Coefficient  Atom+Function         Bfn.  Coefficient  Atom+Function  
  ----- ------------  ---------------      ----- ------------  ---------------
    50     -7.331297  3 C  s                 27      6.854829  2 C  s          
    80     -5.078042  5 H  s                 35     -3.711533  2 C  py         
    98      3.036441  7 H  s                 54     -2.548374  3 C  px         
    72      2.212875  4 H  s                 49      2.179444  3 C  s          
     4      2.063985  1 O  s                 11     -1.889185  1 O  px         
 
 Vector   32  Occ=0.000000D+00  E= 3.479593D-01  Symmetry=a"
              MO Center=  2.2D-01, -8.9D-01, -3.4D-17, r^2= 7.0D+00
   Bfn.  Coefficient  Atom+Function         Bfn.  Coefficient  Atom+Function  
  ----- ------------  ---------------      ----- ------------  ---------------
    13      1.416793  1 O  pz                36     -1.231119  2 C  pz         
    96      1.137504  6 H  pz               105     -1.015091  7 H  pz         
    78     -0.650445  4 H  pz                59      0.513811  3 C  pz         
    68     -0.494329  3 C  d  1              45      0.294704  2 C  d  1       
    43     -0.284637  2 C  d -1              33     -0.259787  2 C  pz         
 
 Vector   33  Occ=0.000000D+00  E= 3.620169D-01  Symmetry=a'
              MO Center=  6.5D-02, -9.3D-01, -2.9D-16, r^2= 8.4D+00
   Bfn.  Coefficient  Atom+Function         Bfn.  Coefficient  Atom+Function  
  ----- ------------  ---------------      ----- ------------  ---------------
    27      9.633147  2 C  s                 50     -7.305992  3 C  s          
     4     -5.565860  1 O  s                 34      5.347900  2 C  px         
    58     -4.937051  3 C  py                71      3.390846  4 H  s          
    90     -3.315778  6 H  s                 26      3.264513  2 C  s          
    81      3.252501  5 H  s                 89     -3.007487  6 H  s          
 
 Vector   34  Occ=0.000000D+00  E= 4.156416D-01  Symmetry=a"
              MO Center= -5.8D-01, -3.7D-01,  1.5D-17, r^2= 6.8D+00
   Bfn.  Coefficient  Atom+Function         Bfn.  Coefficient  Atom+Function  
  ----- ------------  ---------------      ----- ------------  ---------------
    87      1.807517  5 H  pz               105      1.350426  7 H  pz         
    36     -0.820802  2 C  pz                45     -0.722370  2 C  d  1       
    33     -0.678312  2 C  pz                68      0.585144  3 C  d  1       
    56     -0.535577  3 C  pz                66     -0.443090  3 C  d -1       
    13      0.437139  1 O  pz                78     -0.352630  4 H  pz         
 
 Vector   35  Occ=0.000000D+00  E= 4.253494D-01  Symmetry=a'
              MO Center=  1.5D-01, -2.6D-01, -9.6D-18, r^2= 8.7D+00
   Bfn.  Coefficient  Atom+Function         Bfn.  Coefficient  Atom+Function  
  ----- ------------  ---------------      ----- ------------  ---------------
    27     14.209428  2 C  s                 50    -11.070424  3 C  s          
     4     -9.525717  1 O  s                 34      5.559411  2 C  px         
    55      3.850963  3 C  py                49      3.289895  3 C  s          
    98      2.958303  7 H  s                 32      2.879703  2 C  py         
    12      2.248799  1 O  py                71      1.991332  4 H  s          
 
 Vector   36  Occ=0.000000D+00  E= 4.342623D-01  Symmetry=a"
              MO Center=  5.9D-01,  2.0D-01, -3.3D-17, r^2= 6.1D+00
   Bfn.  Coefficient  Atom+Function         Bfn.  Coefficient  Atom+Function  
  ----- ------------  ---------------      ----- ------------  ---------------
    78      1.472291  4 H  pz                96      0.984101  6 H  pz         
    13     -0.838949  1 O  pz                56     -0.578054  3 C  pz         
    59     -0.443268  3 C  pz                87      0.406021  5 H  pz         
    66      0.383229  3 C  d -1              36      0.359282  2 C  pz         
    43     -0.328107  2 C  d -1              33     -0.291564  2 C  pz         
 
 Vector   37  Occ=0.000000D+00  E= 4.347333D-01  Symmetry=a'
              MO Center= -2.8D-01, -3.4D-01,  3.2D-17, r^2= 1.0D+01
   Bfn.  Coefficient  Atom+Function         Bfn.  Coefficient  Atom+Function  
  ----- ------------  ---------------      ----- ------------  ---------------
    27     13.140487  2 C  s                  4     -8.889415  1 O  s          
    50     -6.381295  3 C  s                 57      5.563086  3 C  px         
    89      4.442376  6 H  s                 99     -3.834198  7 H  s          
    90      3.619323  6 H  s                 32      3.598396  2 C  py         
    12      2.865970  1 O  py                98     -2.863823  7 H  s          
 
 Vector   38  Occ=0.000000D+00  E= 4.518771D-01  Symmetry=a'
              MO Center= -4.2D-01, -5.7D-01,  2.2D-16, r^2= 7.9D+00
   Bfn.  Coefficient  Atom+Function         Bfn.  Coefficient  Atom+Function  
  ----- ------------  ---------------      ----- ------------  ---------------
    27      8.075554  2 C  s                 50     -4.326568  3 C  s          
    89     -4.102111  6 H  s                  4     -3.478417  1 O  s          
    58     -2.941360  3 C  py                80      2.572707  5 H  s          
    49      2.556698  3 C  s                 86      2.176699  5 H  py         
    90     -1.826902  6 H  s                 34      1.625026  2 C  px         
 
 Vector   39  Occ=0.000000D+00  E= 4.848391D-01  Symmetry=a'
              MO Center=  2.1D-01, -6.3D-01, -7.8D-17, r^2= 8.4D+00
   Bfn.  Coefficient  Atom+Function         Bfn.  Coefficient  Atom+Function  
  ----- ------------  ---------------      ----- ------------  ---------------
    99     -3.769374  7 H  s                 57      3.663685  3 C  px         
    50     -3.042110  3 C  s                 89      2.757757  6 H  s          
    90      2.270158  6 H  s                 54      2.135995  3 C  px         
    98     -2.021529  7 H  s                 80      1.886747  5 H  s          
    35     -1.868477  2 C  py                27      1.858516  2 C  s          
 
 Vector   40  Occ=0.000000D+00  E= 5.204634D-01  Symmetry=a"
              MO Center= -9.2D-02, -1.3D+00,  3.7D-17, r^2= 6.4D+00
   Bfn.  Coefficient  Atom+Function         Bfn.  Coefficient  Atom+Function  
  ----- ------------  ---------------      ----- ------------  ---------------
    96     -1.725215  6 H  pz                56      1.658441  3 C  pz         
    59      1.383276  3 C  pz                36     -1.266923  2 C  pz         
    87      1.212139  5 H  pz               105     -1.095632  7 H  pz         
    33     -1.087559  2 C  pz                45     -0.330218  2 C  d  1       
    66     -0.310104  3 C  d -1              68      0.284431  3 C  d  1       
 

 center of mass
 --------------
 x =  -0.02144437 y =   0.09523570 z =   0.00000000

 moments of inertia (a.u.)
 ------------------
         165.802615086934           0.000000000000           0.000000000000
           0.000000000000          31.306828573247           0.000000000000
           0.000000000000           0.000000000000         197.109443660181
 
  Mulliken analysis of the total density
  --------------------------------------

    Atom       Charge   Shell Charges
 -----------   ------   -------------------------------------------------------
    1 O    8     8.66   2.00  0.82  1.00  0.14  2.83  1.77  0.06  0.02  0.02
    2 C    6     5.19   2.01  0.67  0.32 -0.06  1.91  0.26  0.08  0.15 -0.15
    3 C    6     5.58   2.01  0.64  0.47 -0.18  2.00  0.60  0.06  0.05 -0.08
    4 H    1     0.80   0.70  0.03 -0.01  0.07  0.01
    5 H    1     1.23   0.77  0.44  0.02  0.03 -0.03
    6 H    1     1.27   0.77  0.49  0.00  0.03 -0.02
    7 H    1     1.28   0.76  0.50  0.02  0.03 -0.03
 
       Multipole analysis of the density wrt the origin
       ------------------------------------------------
 
     L   x y z        total         open         nuclear
     -   - - -        -----         ----         -------
     0   0 0 0     -0.000000      0.000000     24.000000
 
     1   1 0 0      0.282092      0.000000      0.000000
     1   0 1 0     -0.182048      0.000000      0.000000
     1   0 0 1      0.000000      0.000000      0.000000
 
     2   2 0 0    -10.768938      0.000000     25.272090
     2   1 1 0      1.037176      0.000000      0.383980
     2   1 0 1      0.000000      0.000000      0.000000
     2   0 2 0    -15.464294      0.000000     95.270577
     2   0 1 1      0.000000      0.000000      0.000000
     2   0 0 2    -16.054868      0.000000      0.000000
 
                   NWChem MP2 Semi-direct Energy/Gradient Module
                   ---------------------------------------------
 
 
                                 H,H,H Reference 1
 
 

int_init: setting std/high accuracies to  1.0D-16  1.0D-32
  Basis functions       =    105
  Molecular orbitals    =    105
  Frozen core           =      3
  Frozen virtuals       =      0
  Active alpha occupied =      9
  Active beta occupied  =      9
  Active alpha virtual  =     93
  Active beta virtual   =     93
  Use MO symmetry       = T
  Use skeleton AO sym   = T

  AO/Fock/Back tols     =   1.0D-15  1.0D-15  1.0D-15

 GA uses MA = F    GA memory limited = T

 Available: 
  local mem=  2.29D+07
 global mem=  2.62D+07
 local disk=  0.00D+00

int_init: setting std/high accuracies to  1.0D-16  1.0D-32
  mp2_memr nvloc                      9
  nvloc new                      9
   1 passes of   9:        5242880                      55081                   1896791.
   1 passes of   9: M     22933417           G       26208418           F      17690537.
 
 Semi-direct pass number   1 of   1  for RHF alpha+beta  at        7.3s

int_init: setting std/high accuracies to  1.0D-16  1.0D-32
  vrange nnbf                   5565
  mp2_eaftype                     10  avail_ma_in_mb                    199
 EAF : mp2_eaftype filesize          10     775764.
  mp2_eaf for mointskh                      10
Node 0 wrote      3.6 Mb in      0.0 s     Agg I/O rate:  5242.3 Mb/s
 Done moints_semi at        8.1s
  mp2_eaftype                     10  avail_ma_in_mb                    189
 EAF : mp2_eaftype filesize          10     775764.
  mp2_eaf for kh                     10
  mp2_eaftype                     10  avail_ma_in_mb                    189
 EAF : mp2_eaftype filesize          10     135594.
  mp2_eaf for ta tb                     10
  mp2_eaf for ta                      10
  mp2_eaf for tb                      10
 Done maket at        8.1s
 Done pijab at        8.1s
 Done wijab at        8.1s
 Done lai at        8.2s

int_init: setting std/high accuracies to  1.0D-16  1.0D-32
  mp2_eaftype                     10  avail_ma_in_mb                    169
 EAF : mp2_eaftype filesize          10     808070.
  mp2_eaf for 2pdm                      10
 Done nonsep at       10.8s
 Done multipass loop at       10.8s


          -------------------------------------------
          SCF energy                -152.913936351815
          Correlation energy          -0.483273369425
          Singlet pairs               -0.302487018647
          Triplet pairs               -0.180786350778
          Total MP2 energy          -153.397209721240
          -------------------------------------------



          ---------------------------------------------------
                    Spin Component Scaled (SCS) MP2
          Same spin pairs                     -0.120524233852
          Same spin scaling factor             0.333333333333
          Opposite spin pairs                 -0.362749135573
          Opposite spin scaling fact.          1.200000000000
          SCS-MP2 correlation energy          -0.475473707305
          Total SCS-MP2 energy              -153.389410059120
          ---------------------------------------------------


int_init: setting std/high accuracies to  1.0D-16  1.0D-32
                                NWChem CPHF Module
                                ------------------
 
 

int_init: setting std/high accuracies to  1.0D-16  1.0D-32
    scftype = RHF 
    nclosed =   12
      nopen =    0
  variables =     1116
  tolerance =   1.0D-06
  max. iter =  999

 Warning: symmetry breaking in RHF:   1.829519832527569E-014
 SCF residual:   8.531334144591939E-011

            ----- linear solve (tol: 1.0E-06 prod-acc: 3.7E-14) -----

               iter nbas    rnorm     rnorm-scal   ratio     time
               ---- ---- ----------- ----------- --------- -------
                  1    1  3.9675E-02  3.1844E-01    0.0000    11.2
                  2    2  1.0820E-02  8.6842E-02    0.2727    11.4
                  3    3  3.0470E-03  2.4456E-02    0.2816    11.7
                  4    4  1.1055E-03  8.8731E-03    0.3628    12.0
                  5    5  2.7303E-04  2.1914E-03    0.2470    12.2
                  6    6  9.3372E-05  7.4943E-04    0.3420    12.5
                  7    7  2.3647E-05  1.8980E-04    0.2533    12.8
                  8    8  7.0360E-06  5.6473E-05    0.2975    13.0
                  9    9  2.2080E-06  1.7722E-05    0.3138    13.3
                 10   10  5.5808E-07  4.4793E-06    0.2527    13.5
                 11   11  1.0042E-07  8.0603E-07    0.1799    13.8

 CPHF converged to   8.1D-07 in   11 iters


int_init: setting std/high accuracies to  1.0D-16  1.0D-32
                Dipole Moments (a.u.)
                --------------
         Nuclear       SCF       SCF+MP2
       ----------- ----------- -----------
 X       0.000000    0.282092    0.299930
 Y       0.000000   -0.182048   -0.167252
 Z       0.000000    0.000000    0.000000
 

 MP2 RHF      natural orbital occupation numbers


              1      
    1    2.0000
    2    2.0000
    3    2.0000
    4    1.9863
    5    1.9810
    6    1.9726
    7    1.9681
    8    1.9666
    9    1.9642
   10    1.9611
   11    1.9575
   12    1.9332
   13    0.0504
   14    0.0294
   15    0.0262
   16    0.0205
   17    0.0162
   18    0.0162
   19    0.0157
   20    0.0143
   21    0.0122
   22    0.0112
   23    0.0096
   24    0.0086
   25    0.0081
   26    0.0080
   27    0.0061
   28    0.0061
   29    0.0058
   30    0.0057
   31    0.0050
   32    0.0036
   33    0.0029
   34    0.0027
   35    0.0026
   36    0.0021
   37    0.0016
   38    0.0016
   39    0.0015
   40    0.0014
   41    0.0011
   42    0.0010
   43    0.0009
   44    0.0008
   45    0.0007
   46    0.0007
   47    0.0007
   48    0.0006
   49    0.0006
   50    0.0006
   51    0.0006
   52    0.0005
   53    0.0005
   54    0.0005
   55    0.0004
   56    0.0004
   57    0.0003
   58    0.0003
   59    0.0003
   60    0.0003
   61    0.0003
   62    0.0003
   63    0.0002
   64    0.0002
   65    0.0002
   66    0.0002
   67    0.0002
   68    0.0001
   69    0.0001
   70    0.0001
   71    0.0001
   72    0.0001
   73    0.0001
   74    0.0001
   75    0.0001
   76    0.0001
   77    0.0001
   78    0.0001
   79    0.0000
   80    0.0000
   81    0.0000
   82    0.0000
   83    0.0000
   84    0.0000
   85    0.0000
   86    0.0000
   87    0.0000
   88    0.0000
   89    0.0000
   90    0.0000
   91    0.0000
   92    0.0000
   93    0.0000
   94    0.0000
   95    0.0000
   96    0.0000
   97    0.0000
   98    0.0000
   99    0.0000
  100   -0.0000
  101   -0.0000
  102   -0.0000
  103   -0.0000
  104   -0.0001
  105   -0.0002
 
  MP2 natural orbitals output to ./1R1.mp2nos
 

int_init: setting std/high accuracies to  1.0D-16  1.0D-32
  Using symmetry

int_init: setting std/high accuracies to  1.0D-16  1.0D-32


                         mp2 ENERGY GRADIENTS

    atom               coordinates                        gradient
                 x          y          z           x          y          z
   1 O       0.254221   2.235653   0.000000   -0.036723  -0.026105   0.000000
   2 C      -0.870809  -0.009713   0.000000    0.005766   0.044248   0.000000
   3 C       0.373471  -2.264925   0.000000    0.001941  -0.021015   0.000000
   4 H       2.096753   1.870390   0.000000    0.019276  -0.010669   0.000000
   5 H      -2.917086   0.119493   0.000000    0.005765  -0.001193   0.000000
   6 H      -0.679166  -4.009010   0.000000    0.001238   0.008001   0.000000
   7 H       2.449756  -2.218276   0.000000    0.002736   0.006733   0.000000
 
                 ----------------------------------------
                 |  Time  |  1-e(secs)   |  2-e(secs)   |
                 ----------------------------------------
                 |  CPU   |       0.00   |       1.19   |
                 ----------------------------------------
                 |  WALL  |       0.00   |       1.19   |
                 ----------------------------------------
 -----------------------
 Performance information
 -----------------------

 Timer overhead =  0.00D+00 seconds/call

               Nr. of calls         CPU time (s)                 Wall time (s)                GFlops
             ---------------    -------------------     ------------------------------   -------------------
Name         Min   Avg   Max    Min     Avg     Max     Min     Avg     Max   Mx/calls   Min     Max     Sum
mp2: moin     1     1     1   0.68    0.69    0.70     0.73    0.73    0.73    0.73      0.0     0.0     0.0   
mp2: make     1     1     1   2.50E-2 2.70E-2 2.90E-2  2.78E-2 2.80E-2 2.82E-2 2.82E-2   0.0     0.0     0.0   
mp2: pija     1     1     1   3.00E-3 3.45E-3 4.00E-3  3.53E-3 3.53E-3 3.60E-3 3.60E-3   0.0     0.0     0.0   
mp2: wija     1     1     1   3.00E-3 3.64E-3 4.00E-3  3.75E-3 3.79E-3 3.80E-3 3.80E-3   0.0     0.0     0.0   
mp2: lai      1     1     1   7.70E-2 7.90E-2 8.00E-2  7.91E-2 7.91E-2 7.91E-2 7.91E-2   0.0     0.0     0.0   
mp2: back     1     1     1   5.10E-2 5.21E-2 5.30E-2  5.28E-2 5.28E-2 5.28E-2 5.28E-2   0.0     0.0     0.0   
mp2: nons     1     1     1    2.1     2.3     2.6      2.1     2.3     2.6     2.6      0.0     0.0     0.0   
mp2: laif     1     1     1   0.28    0.29    0.29     0.29    0.29    0.29    0.29      0.0     0.0     0.0   
mp2: cphf     1     1     1    3.2     3.2     3.2      3.2     3.2     3.2     3.2      0.0     0.0     0.0   
mp2: wijf     1     1     1   0.28    0.28    0.29     0.29    0.29    0.29    0.29      0.0     0.0     0.0   
mp2: sep      1     1     1    1.2     1.2     1.2      1.2     1.2     1.2     1.2      0.0     0.0     0.0   
mp2: tota     1     1     1    8.4     8.5     8.5      8.6     8.6     8.6     8.6      0.0     0.0     0.0   

 The average no. of pstat calls per process was 1.20D+01
 with a timing overhead of 0.00D+00s


@ Step       Energy      Delta E   Gmax     Grms     Xrms     Xmax   Walltime
@ ---- ---------------- -------- -------- -------- -------- -------- --------
@    0    -153.39720972  0.0D+00  0.04069  0.01274  0.00000  0.00000     15.9
                                                                    



                                Z-matrix (user)
                                -------- 

 Units are Angstrom for bonds and degrees for angles

  Constants are marked with an asterisk (*).

  Constrained variables are marked with a plus sign (+).

 
      Type          Name      I     J     K     L     M      Value     Gradient
      ----------- --------  ----- ----- ----- ----- ----- ---------- ----------
    1 Stretch      R1          2     1                       1.32900   -0.04069
    2 Stretch      R2          3     2                       1.36300    0.00836
    3 Bend         A1          3     2     1               124.50000   -0.00784
    4 Stretch      R5          4     1                       0.99400    0.02098
    5 Bend         A4          4     1     2               105.40000   -0.00668
    6*Torsion      D0          4     1     2     3           0.00000   -0.00000
    7 Stretch      R6          5     2                       1.08500   -0.00583
    8 Bend         A5          5     2     3               122.50000   -0.00090
    9*Torsion      D180        5     2     3     4         180.00000   -0.00000
   10 Stretch      R7          6     3                       1.07800   -0.00749
   11 Bend         A6          6     3     2               120.00000   -0.00331
   12*Torsion      D180        6     3     2     1         180.00000   -0.00000
   13 Stretch      R8          7     3                       1.09900    0.00289
   14 Bend         A7          7     3     2               117.60000   -0.00733
   15*Torsion      D0          7     3     2     1           0.00000   -0.00000
 
                                 NWChem SCF Module
                                 -----------------
 
 
                                 H,H,H Reference 1
 
 

  ao basis        = "ao basis"
  functions       =   105
  atoms           =     7
  closed shells   =    12
  open shells     =     0
  charge          =   0.00
  wavefunction    = RHF 
  input vectors   = ./1R1.movecs
  output vectors  = ./1R1.movecs
  use symmetry    = T
  symmetry adapt  = T


 Summary of "ao basis" -> "ao basis" (spherical)
 ------------------------------------------------------------------------------
       Tag                 Description            Shells   Functions and Types
 ---------------- ------------------------------  ------  ---------------------
 O                        aug-cc-pVDZ                9       23   4s3p2d
 C                        aug-cc-pVDZ                9       23   4s3p2d
 H                        aug-cc-pVDZ                5        9   3s2p


      Symmetry analysis of basis
      --------------------------
 
        a'         76
        a"         29
 

int_init: setting std/high accuracies to  1.0D-16  1.0D-32

 Forming initial guess at      16.0s


 Forcing the number of linearly dependent vectors to be  0

 Loading old vectors from job with title :

H,H,H Reference 1

 
      Symmetry analysis of molecular orbitals - initial
      -------------------------------------------------
 
  Numbering of irreducible representations: 
 
     1 a'          2 a"      
 
  Orbital symmetries:
 
     1 a'          2 a'          3 a'          4 a'          5 a'      
     6 a'          7 a'          8 a'          9 a"         10 a'      
    11 a'         12 a"         13 a'         14 a'         15 a'      
    16 a'         17 a"         18 a"         19 a'         20 a'      
    21 a'         22 a'      
 

 Starting SCF solution at      16.0s



 ----------------------------------------------
         Quadratically convergent ROHF

 Convergence threshold     :          1.000E-09
 Maximum no. of iterations :           99
 Final Fock-matrix accuracy:          1.000E-15
 ----------------------------------------------

 Warning: symmetry breaking in RHF:   1.843287438017406E-014

              iter       energy          gnorm     gmax       time
             ----- ------------------- --------- --------- --------
                 1     -152.9116840167  2.81D-01  5.38D-02     15.6
 Warning: symmetry breaking in RHF:   1.844440262377351E-014
                 2     -152.9172036202  1.77D-02  3.94D-03     16.4
 Warning: symmetry breaking in RHF:   1.844595457630070E-014
                 3     -152.9172469893  2.50D-04  1.03D-04     17.7
 Warning: symmetry breaking in RHF:   1.844595793332427E-014
                 4     -152.9172470031  1.67D-08  2.04D-09     20.0
 Warning: symmetry breaking in RHF:   1.825341843155664E-014
                 5     -152.9172470031  4.92D-11  1.67D-11     21.5


       Final RHF  results 
       ------------------ 

         Total SCF energy =   -152.917247003102
      One-electron energy =   -345.033198667154
      Two-electron energy =    122.739977823299
 Nuclear repulsion energy =     69.375973840753

        Time for solution =      6.1s


 
       Symmetry analysis of molecular orbitals - final
       -----------------------------------------------
 
  Numbering of irreducible representations: 
 
     1 a'          2 a"      
 
  Orbital symmetries:
 
     1 a'          2 a'          3 a'          4 a'          5 a'      
     6 a'          7 a'          8 a'          9 a"         10 a'      
    11 a'         12 a"         13 a'         14 a'         15 a'      
    16 a'         17 a"         18 a"         19 a'         20 a'      
    21 a'         22 a'      
 
             Final eigenvalues
             -----------------

              1      
    1  -20.6050
    2  -11.3163
    3  -11.2332
    4   -1.4051
    5   -1.0204
    6   -0.8337
    7   -0.6822
    8   -0.6635
    9   -0.5765
   10   -0.5521
   11   -0.5385
   12   -0.3501
   13    0.0369
   14    0.0455
   15    0.0518
   16    0.0704
   17    0.1108
   18    0.1188
   19    0.1217
   20    0.1401
   21    0.1511
   22    0.1748
 
                       ROHF Final Molecular Orbital Analysis
                       -------------------------------------
 
 Vector    3  Occ=2.000000D+00  E=-1.123318D+01  Symmetry=a'
              MO Center=  1.9D-01, -1.2D+00, -3.2D-19, r^2= 2.7D-02
   Bfn.  Coefficient  Atom+Function         Bfn.  Coefficient  Atom+Function  
  ----- ------------  ---------------      ----- ------------  ---------------
    47      1.003587  3 C  s          
 
 Vector    4  Occ=2.000000D+00  E=-1.405116D+00  Symmetry=a'
              MO Center=  1.7D-01,  1.0D+00, -1.1D-35, r^2= 5.7D-01
   Bfn.  Coefficient  Atom+Function         Bfn.  Coefficient  Atom+Function  
  ----- ------------  ---------------      ----- ------------  ---------------
     3      0.470745  1 O  s                  2      0.420677  1 O  s          
    27     -0.212525  2 C  s                 70      0.196269  4 H  s          
    50      0.173933  3 C  s          
 
 Vector    5  Occ=2.000000D+00  E=-1.020369D+00  Symmetry=a'
              MO Center= -7.5D-02, -5.9D-01,  1.3D-31, r^2= 1.3D+00
   Bfn.  Coefficient  Atom+Function         Bfn.  Coefficient  Atom+Function  
  ----- ------------  ---------------      ----- ------------  ---------------
    48      0.301868  3 C  s                 25      0.279185  2 C  s          
    49      0.200446  3 C  s          
 
 Vector    6  Occ=2.000000D+00  E=-8.337392D-01  Symmetry=a'
              MO Center= -2.0D-02,  1.9D-01,  6.8D-18, r^2= 2.2D+00
   Bfn.  Coefficient  Atom+Function         Bfn.  Coefficient  Atom+Function  
  ----- ------------  ---------------      ----- ------------  ---------------
     5      0.302113  1 O  px                26     -0.268309  2 C  s          
    70      0.251210  4 H  s                 49      0.237380  3 C  s          
    25     -0.199596  2 C  s                 79     -0.198074  5 H  s          
    48      0.189263  3 C  s                 29     -0.179800  2 C  py         
 
 Vector    7  Occ=2.000000D+00  E=-6.821833D-01  Symmetry=a'
              MO Center=  1.9D-01, -3.3D-01, -4.6D-35, r^2= 2.6D+00
   Bfn.  Coefficient  Atom+Function         Bfn.  Coefficient  Atom+Function  
  ----- ------------  ---------------      ----- ------------  ---------------
     5      0.319002  1 O  px                50      0.276992  3 C  s          
    52      0.276822  3 C  py                27     -0.266027  2 C  s          
    70      0.229190  4 H  s                 88     -0.203890  6 H  s          
    26      0.194969  2 C  s                 29     -0.188712  2 C  py         
    89     -0.186426  6 H  s                 97     -0.187264  7 H  s          
 
 Vector    8  Occ=2.000000D+00  E=-6.634532D-01  Symmetry=a'
              MO Center= -2.1D-01,  5.2D-02, -5.4D-17, r^2= 2.2D+00
   Bfn.  Coefficient  Atom+Function         Bfn.  Coefficient  Atom+Function  
  ----- ------------  ---------------      ----- ------------  ---------------
     6      0.334876  1 O  py                28     -0.307556  2 C  px         
    79      0.236438  5 H  s                  9      0.219712  1 O  py         
    51     -0.201657  3 C  px                80      0.186158  5 H  s          
    97     -0.158455  7 H  s                 29     -0.154333  2 C  py         
    88      0.150248  6 H  s          
 
 Vector    9  Occ=2.000000D+00  E=-5.765400D-01  Symmetry=a"
              MO Center=  6.9D-02,  9.5D-01,  7.3D-18, r^2= 1.0D+00
   Bfn.  Coefficient  Atom+Function         Bfn.  Coefficient  Atom+Function  
  ----- ------------  ---------------      ----- ------------  ---------------
     7      0.561443  1 O  pz                10      0.411506  1 O  pz         
    30      0.212865  2 C  pz         
 
 Vector   10  Occ=2.000000D+00  E=-5.521037D-01  Symmetry=a'
              MO Center= -1.2D-02,  7.9D-02,  5.1D-17, r^2= 2.7D+00
   Bfn.  Coefficient  Atom+Function         Bfn.  Coefficient  Atom+Function  
  ----- ------------  ---------------      ----- ------------  ---------------
     6      0.375558  1 O  py                52      0.301512  3 C  py         
     9      0.271418  1 O  py                88     -0.250497  6 H  s          
    89     -0.234587  6 H  s                 29     -0.232157  2 C  py         
     5     -0.210009  1 O  px                 3      0.184878  1 O  s          
    70     -0.166206  4 H  s          
 
 Vector   11  Occ=2.000000D+00  E=-5.384950D-01  Symmetry=a'
              MO Center= -2.2D-02, -7.0D-01, -2.6D-31, r^2= 2.4D+00
   Bfn.  Coefficient  Atom+Function         Bfn.  Coefficient  Atom+Function  
  ----- ------------  ---------------      ----- ------------  ---------------
    51      0.341152  3 C  px                98      0.321080  7 H  s          
    97      0.308133  7 H  s                 80      0.295003  5 H  s          
    79      0.278040  5 H  s                 28     -0.269609  2 C  px         
    89     -0.256936  6 H  s                 88     -0.189713  6 H  s          
 
 Vector   12  Occ=2.000000D+00  E=-3.500920D-01  Symmetry=a"
              MO Center= -2.6D-02, -5.3D-01,  2.2D-16, r^2= 1.9D+00
   Bfn.  Coefficient  Atom+Function         Bfn.  Coefficient  Atom+Function  
  ----- ------------  ---------------      ----- ------------  ---------------
    53      0.403828  3 C  pz                30      0.317790  2 C  pz         
    56      0.286032  3 C  pz                 7     -0.270971  1 O  pz         
    33      0.222602  2 C  pz                10     -0.218375  1 O  pz         
 
 Vector   13  Occ=0.000000D+00  E= 3.694911D-02  Symmetry=a'
              MO Center=  1.8D+00, -3.3D-01,  2.6D-17, r^2= 1.5D+01
   Bfn.  Coefficient  Atom+Function         Bfn.  Coefficient  Atom+Function  
  ----- ------------  ---------------      ----- ------------  ---------------
    50      1.892868  3 C  s                 99     -1.861201  7 H  s          
    27      1.793296  2 C  s                 72     -1.079884  4 H  s          
    57      0.725426  3 C  px                98     -0.716161  7 H  s          
    81     -0.520213  5 H  s                 49      0.491334  3 C  s          
    89     -0.416243  6 H  s                 11      0.394669  1 O  px         
 
 Vector   14  Occ=0.000000D+00  E= 4.554203D-02  Symmetry=a'
              MO Center= -1.4D+00, -8.8D-01, -1.1D-16, r^2= 2.0D+01
   Bfn.  Coefficient  Atom+Function         Bfn.  Coefficient  Atom+Function  
  ----- ------------  ---------------      ----- ------------  ---------------
    50      4.761378  3 C  s                 81     -3.476785  5 H  s          
    27     -2.756370  2 C  s                 99      2.275473  7 H  s          
    34     -2.195509  2 C  px                90     -1.922402  6 H  s          
    57     -1.333968  3 C  px                72      1.248145  4 H  s          
    35      1.196465  2 C  py                89     -0.988409  6 H  s          
 
 Vector   15  Occ=0.000000D+00  E= 5.183347D-02  Symmetry=a'
              MO Center= -2.1D-01, -8.8D-01, -3.7D-17, r^2= 2.4D+01
   Bfn.  Coefficient  Atom+Function         Bfn.  Coefficient  Atom+Function  
  ----- ------------  ---------------      ----- ------------  ---------------
    81      4.078417  5 H  s                 90     -3.598489  6 H  s          
    50     -2.574560  3 C  s                 58     -2.553415  3 C  py         
    27      2.395194  2 C  s                 34      2.329520  2 C  px         
    35     -2.052811  2 C  py                99     -1.872499  7 H  s          
    72      1.752535  4 H  s                 11     -0.719116  1 O  px         
 
 Vector   16  Occ=0.000000D+00  E= 7.043825D-02  Symmetry=a'
              MO Center=  8.3D-01, -1.0D+00,  1.4D-17, r^2= 2.6D+01
   Bfn.  Coefficient  Atom+Function         Bfn.  Coefficient  Atom+Function  
  ----- ------------  ---------------      ----- ------------  ---------------
    99     -6.354931  7 H  s                 90      6.061191  6 H  s          
    81     -4.127251  5 H  s                 34     -3.387728  2 C  px         
    72      3.387274  4 H  s                 57      3.282913  3 C  px         
    50      2.725030  3 C  s                 58      2.278037  3 C  py         
    98     -1.173687  7 H  s                 80     -1.150462  5 H  s          
 
 Vector   17  Occ=0.000000D+00  E= 1.107913D-01  Symmetry=a"
              MO Center=  4.2D-01, -1.6D+00, -2.7D-16, r^2= 9.2D+00
   Bfn.  Coefficient  Atom+Function         Bfn.  Coefficient  Atom+Function  
  ----- ------------  ---------------      ----- ------------  ---------------
    59      2.008728  3 C  pz                36     -1.543549  2 C  pz         
    13      0.356493  1 O  pz                33     -0.334083  2 C  pz         
    30     -0.233597  2 C  pz         
 
 Vector   18  Occ=0.000000D+00  E= 1.188498D-01  Symmetry=a"
              MO Center= -1.0D+00,  1.3D-01, -3.9D-17, r^2= 1.0D+01
   Bfn.  Coefficient  Atom+Function         Bfn.  Coefficient  Atom+Function  
  ----- ------------  ---------------      ----- ------------  ---------------
    36      2.161420  2 C  pz                59     -0.732567  3 C  pz         
    13     -0.594725  1 O  pz                56     -0.182309  3 C  pz         
    87     -0.158437  5 H  pz         
 
 Vector   19  Occ=0.000000D+00  E= 1.216718D-01  Symmetry=a'
              MO Center= -8.4D-01,  2.0D-01,  8.6D-16, r^2= 1.5D+01
   Bfn.  Coefficient  Atom+Function         Bfn.  Coefficient  Atom+Function  
  ----- ------------  ---------------      ----- ------------  ---------------
    35     -4.280117  2 C  py                 4      4.258455  1 O  s          
    50     -2.813787  3 C  s                 27     -2.317857  2 C  s          
    72      1.698664  4 H  s                 58      1.582828  3 C  py         
    34     -1.210269  2 C  px                80     -1.051347  5 H  s          
    71     -1.031008  4 H  s                 57      0.918426  3 C  px         
 
 Vector   20  Occ=0.000000D+00  E= 1.400543D-01  Symmetry=a'
              MO Center=  4.4D-01, -1.2D+00, -3.1D-16, r^2= 1.8D+01
   Bfn.  Coefficient  Atom+Function         Bfn.  Coefficient  Atom+Function  
  ----- ------------  ---------------      ----- ------------  ---------------
    27     19.910338  2 C  s                 50    -19.404482  3 C  s          
    58     -8.294574  3 C  py                35     -7.192426  2 C  py         
    57      4.684611  3 C  px                81      4.485873  5 H  s          
    99     -4.239398  7 H  s                 90     -3.851991  6 H  s          
    34      3.064452  2 C  px                72      2.874583  4 H  s          
 
 Vector   21  Occ=0.000000D+00  E= 1.510742D-01  Symmetry=a'
              MO Center= -4.6D-01, -2.4D-02, -4.9D-16, r^2= 1.7D+01
   Bfn.  Coefficient  Atom+Function         Bfn.  Coefficient  Atom+Function  
  ----- ------------  ---------------      ----- ------------  ---------------
    27     24.094380  2 C  s                 50    -21.698396  3 C  s          
    34     10.018277  2 C  px                81      7.907203  5 H  s          
    35     -6.769007  2 C  py                58     -6.770805  3 C  py         
     4     -5.083260  1 O  s                 99     -3.549837  7 H  s          
    90     -3.255773  6 H  s                 57      2.543729  3 C  px         
 
 Vector   22  Occ=0.000000D+00  E= 1.748218D-01  Symmetry=a'
              MO Center= -8.4D-01, -1.7D+00, -1.6D-16, r^2= 1.3D+01
   Bfn.  Coefficient  Atom+Function         Bfn.  Coefficient  Atom+Function  
  ----- ------------  ---------------      ----- ------------  ---------------
    27      8.013279  2 C  s                 90     -6.203053  6 H  s          
    58     -4.254430  3 C  py                89     -3.873107  6 H  s          
    57     -3.687655  3 C  px                99      3.294803  7 H  s          
    50     -2.333211  3 C  s                 34      2.309011  2 C  px         
    80     -1.957208  5 H  s                  4     -1.647183  1 O  s          
 
 Vector   23  Occ=0.000000D+00  E= 1.824104D-01  Symmetry=a'
              MO Center=  7.9D-02, -1.7D-01, -2.2D-17, r^2= 1.5D+01
   Bfn.  Coefficient  Atom+Function         Bfn.  Coefficient  Atom+Function  
  ----- ------------  ---------------      ----- ------------  ---------------
    50     -6.979947  3 C  s                 34      6.597998  2 C  px         
    57     -5.055254  3 C  px                81      4.954783  5 H  s          
    99      4.836576  7 H  s                 90     -3.447302  6 H  s          
    98      3.343006  7 H  s                  4     -2.571837  1 O  s          
    58     -2.415437  3 C  py                80      2.042234  5 H  s          
 
 Vector   24  Occ=0.000000D+00  E= 2.029406D-01  Symmetry=a"
              MO Center=  1.2D-02, -4.7D-01, -1.7D-16, r^2= 7.3D+00
   Bfn.  Coefficient  Atom+Function         Bfn.  Coefficient  Atom+Function  
  ----- ------------  ---------------      ----- ------------  ---------------
    59      1.564129  3 C  pz                36     -1.271608  2 C  pz         
    33      0.357219  2 C  pz                30      0.346427  2 C  pz         
    53     -0.307008  3 C  pz                87      0.303187  5 H  pz         
    13     -0.300679  1 O  pz                56     -0.242879  3 C  pz         
   105     -0.221488  7 H  pz                96     -0.218714  6 H  pz         
 
 Vector   25  Occ=0.000000D+00  E= 2.154436D-01  Symmetry=a'
              MO Center=  1.3D+00,  1.7D-01,  5.1D-16, r^2= 1.3D+01
   Bfn.  Coefficient  Atom+Function         Bfn.  Coefficient  Atom+Function  
  ----- ------------  ---------------      ----- ------------  ---------------
    50    -20.660245  3 C  s                 27     19.662760  2 C  s          
    58     -5.547645  3 C  py                34      4.315763  2 C  px         
    98      3.755578  7 H  s                 99      3.664138  7 H  s          
    90     -3.550656  6 H  s                 35     -2.910567  2 C  py         
    81      2.551327  5 H  s                 72     -2.434508  4 H  s          
 
 Vector   26  Occ=0.000000D+00  E= 2.206030D-01  Symmetry=a'
              MO Center= -3.3D-01, -8.5D-01, -1.0D-16, r^2= 1.3D+01
   Bfn.  Coefficient  Atom+Function         Bfn.  Coefficient  Atom+Function  
  ----- ------------  ---------------      ----- ------------  ---------------
    27     27.671882  2 C  s                 50    -24.133881  3 C  s          
    35     -6.275148  2 C  py                57      5.794403  3 C  px         
     4     -5.121923  1 O  s                 99     -4.455969  7 H  s          
    80     -4.336282  5 H  s                 58     -3.832214  3 C  py         
    89      3.125835  6 H  s                 90      2.397368  6 H  s          
 
 Vector   27  Occ=0.000000D+00  E= 2.515858D-01  Symmetry=a'
              MO Center=  2.9D-01,  1.3D+00,  1.0D-16, r^2= 1.0D+01
   Bfn.  Coefficient  Atom+Function         Bfn.  Coefficient  Atom+Function  
  ----- ------------  ---------------      ----- ------------  ---------------
    27      4.708716  2 C  s                  4     -3.628003  1 O  s          
    12      3.592501  1 O  py                50     -2.736148  3 C  s          
    49      1.843690  3 C  s                 55      1.823682  3 C  py         
    32      1.743608  2 C  py                35     -1.633488  2 C  py         
    90      1.553643  6 H  s                 98      1.474613  7 H  s          
 
 Vector   28  Occ=0.000000D+00  E= 2.516428D-01  Symmetry=a"
              MO Center= -6.3D-02,  9.7D-01, -4.8D-17, r^2= 8.4D+00
   Bfn.  Coefficient  Atom+Function         Bfn.  Coefficient  Atom+Function  
  ----- ------------  ---------------      ----- ------------  ---------------
    13      2.222683  1 O  pz                36     -2.141759  2 C  pz         
    59      1.117531  3 C  pz                43     -0.331967  2 C  d -1       
    56     -0.310736  3 C  pz                10     -0.256640  1 O  pz         
    78     -0.219570  4 H  pz                 7     -0.204605  1 O  pz         
    96     -0.199151  6 H  pz         
 
 Vector   29  Occ=0.000000D+00  E= 2.972266D-01  Symmetry=a'
              MO Center=  2.6D-01, -8.0D-01, -4.8D-16, r^2= 7.8D+00
   Bfn.  Coefficient  Atom+Function         Bfn.  Coefficient  Atom+Function  
  ----- ------------  ---------------      ----- ------------  ---------------
    27     18.829341  2 C  s                 50    -17.373123  3 C  s          
    58     -5.187548  3 C  py                 4     -4.263412  1 O  s          
[...]
   13   -3.88081D+00 -7.21287D-01  0.00000D+00 -1.00702D+02  8.14623D+00  0.00000D+00 -2.36473D+00 -1.03583D+00  0.00000D+00  1.37618D+00
   14   -9.56266D+00 -1.20709D+00  0.00000D+00  9.82844D+00 -1.57528D+01  0.00000D+00  7.70563D+00  7.40024D-01  0.00000D+00 -3.65232D+00
   15    0.00000D+00  0.00000D+00  3.22394D-01  0.00000D+00  0.00000D+00 -1.16870D+01  0.00000D+00  0.00000D+00  1.57205D+00  0.00000D+00
   16    3.67996D-02  1.14184D+00  0.00000D+00  2.35891D+00  4.24876D+00  0.00000D+00 -4.10473D+01 -4.13829D+01  0.00000D+00 -3.18145D-01
   17    7.98343D-01 -7.79679D-01  0.00000D+00 -5.85381D+00 -4.74971D+00  0.00000D+00 -3.93853D+01 -7.81354D+01  0.00000D+00  1.16720D+00
   18    0.00000D+00  0.00000D+00  3.18000D+00  0.00000D+00  0.00000D+00 -1.32209D+00  0.00000D+00  0.00000D+00 -6.41586D+00  0.00000D+00
   19    8.05317D-01 -7.09619D-02  0.00000D+00 -3.67875D+00 -2.07942D+00  0.00000D+00 -1.00112D+02  5.49837D+00  0.00000D+00 -3.74499D-01
   20    9.81784D-02  8.84751D-01  0.00000D+00  8.26407D+00  3.55817D-01  0.00000D+00  4.26298D+00 -1.63999D+01  0.00000D+00 -9.99799D-01
   21    0.00000D+00  0.00000D+00 -1.76214D+00  0.00000D+00  0.00000D+00  1.57286D+00  0.00000D+00  0.00000D+00 -8.02801D+00  0.00000D+00


              11           12           13           14           15           16           17           18           19           20
   ----- ----- ----- ----- -----
   11    5.72436D+01
   12    0.00000D+00  6.38266D+00
   13   -2.57202D+00  0.00000D+00  3.68031D+02
   14   -5.36264D+00  0.00000D+00 -2.10366D+01  6.52711D+01
   15    0.00000D+00  4.02167D+00  0.00000D+00  0.00000D+00  2.48360D+01
   16    7.67120D-01  0.00000D+00  8.14501D-01 -1.76998D-01  0.00000D+00  1.41517D+02
   17    2.51930D-01  0.00000D+00  1.50450D-01  8.17646D-01  0.00000D+00  1.46375D+02  2.82313D+02
   18    0.00000D+00 -6.93972D-01  0.00000D+00  0.00000D+00 -4.99785D+00  0.00000D+00  0.00000D+00  1.89151D+01
   19    1.83264D+00  0.00000D+00  8.81883D-01  2.45816D+00  0.00000D+00 -8.66102D+00  5.23049D+00  0.00000D+00  3.63090D+02
   20   -5.86380D-01  0.00000D+00  1.79632D+00 -4.11392D+00  0.00000D+00 -2.33777D+01  5.72944D+00  0.00000D+00 -2.10361D+01  5.08082D+01
   21    0.00000D+00  1.40920D-01  0.00000D+00  0.00000D+00  9.75865D+00  0.00000D+00  0.00000D+00  8.09027D-01  0.00000D+00  0.00000D+00


              21
   ----- ----- ----- ----- -----
   21    1.85858D+01

 center of mass
 --------------
 x =  -0.01051807 y =   0.10370470 z =   0.00000000

 moments of inertia (a.u.)
 ------------------
         174.419775878628          -0.521698525591           0.000000000000
          -0.521698525591          30.473427523238           0.000000000000
           0.000000000000           0.000000000000         204.893203401866

 Rotational Constants
 --------------------
 A=   1.975620 cm-1  (  2.842413 K)
 B=   0.345142 cm-1  (  0.496571 K)
 C=   0.293812 cm-1  (  0.422721 K)


 Temperature                      =   298.15K
 frequency scaling parameter      =   1.0000

 Zero-Point correction to Energy  =   35.466 kcal/mol  (  0.056519 au)
 Thermal correction to Energy     =   37.764 kcal/mol  (  0.060180 au)
 Thermal correction to Enthalpy   =   38.356 kcal/mol  (  0.061124 au)

 Total Entropy                    =   61.226 cal/mol-K
   - Translational                =   37.256 cal/mol-K (mol. weight =  44.0262)
   - Rotational                   =   21.605 cal/mol-K (symmetry #  =        1)
   - Vibrational                  =    2.365 cal/mol-K

 Cv (constant volume heat capacity) =   11.573 cal/mol-K
   - Translational                  =    2.979 cal/mol-K
   - Rotational                     =    2.979 cal/mol-K
   - Vibrational                    =    5.614 cal/mol-K



          -------------------------------------------------
          NORMAL MODE EIGENVECTORS IN CARTESIAN COORDINATES
          -------------------------------------------------
             (Projected Frequencies expressed in cm-1)

                    1           2           3           4           5           6
 
 P.Frequency        0.00        0.00        0.00        0.00        0.00        0.00
 
           1     0.00000     0.00000     0.00000    -0.00789     0.07178     0.20300
           2     0.00000     0.00000     0.00000    -0.14392    -0.04835    -0.00254
           3    -0.00866     0.22043     0.06399     0.00000     0.00000     0.00000
           4     0.00000     0.00000     0.00000     0.02093    -0.07323     0.13049
           5     0.00000     0.00000     0.00000    -0.15724     0.01870     0.03099
           6     0.02864     0.00256     0.21055     0.00000     0.00000     0.00000
           7     0.00000     0.00000     0.00000     0.04832    -0.21107     0.06156
           8     0.00000     0.00000     0.00000    -0.14236    -0.05617    -0.00645
           9     0.24351    -0.01902     0.03365     0.00000     0.00000     0.00000
          10     0.00000     0.00000     0.00000    -0.00542     0.05935     0.19678
          11     0.00000     0.00000     0.00000    -0.12166    -0.16035    -0.05854
          12     0.14694     0.35935    -0.19208     0.00000     0.00000     0.00000
          13     0.00000     0.00000     0.00000     0.01911    -0.06407     0.13507
          14     0.00000     0.00000     0.00000    -0.18240     0.14534     0.09432
          15    -0.14310    -0.15884     0.49985     0.00000     0.00000     0.00000
          16     0.00000     0.00000     0.00000     0.06960    -0.31816     0.00801
          17     0.00000     0.00000     0.00000    -0.15581     0.01150     0.02739
          18     0.24757    -0.20420     0.18329     0.00000     0.00000     0.00000
          19     0.00000     0.00000     0.00000     0.04990    -0.21906     0.05757
          20     0.00000     0.00000     0.00000    -0.11715    -0.18304    -0.06989
          21     0.41456     0.14373    -0.25614     0.00000     0.00000     0.00000

                    7           8           9          10          11          12
 
 P.Frequency      440.55      481.94      706.12      819.86      947.22      979.88
 
           1     0.00000    -0.06288     0.00000     0.00000     0.03264     0.00000
           2     0.00000     0.09308     0.00000     0.00000     0.10570     0.00000
           3    -0.07042     0.00000    -0.06924    -0.00214     0.00000    -0.00217
           4     0.00000     0.13223     0.00000     0.00000    -0.01666     0.00000
           5     0.00000    -0.00750     0.00000     0.00000    -0.04269     0.00000
           6     0.04661     0.00000     0.15310     0.05533     0.00000    -0.09748
           7     0.00000    -0.02464     0.00000     0.00000    -0.06234     0.00000
           8     0.00000    -0.10636     0.00000     0.00000    -0.12443     0.00000
           9    -0.02798     0.00000    -0.02715    -0.14488     0.00000     0.00546
          10     0.00000    -0.03738     0.00000     0.00000     0.04693     0.00000
          11     0.00000     0.31858     0.00000     0.00000     0.19987     0.00000
          12     0.88815     0.00000     0.04182    -0.01975     0.00000     0.11691
          13     0.00000     0.12676     0.00000     0.00000    -0.00531     0.00000
          14     0.00000    -0.06266     0.00000     0.00000     0.16243     0.00000
          15     0.09432     0.00000    -0.14533    -0.06388     0.00000     0.81399
          16     0.00000    -0.32181     0.00000     0.00000     0.40252     0.00000
          17     0.00000     0.07671     0.00000     0.00000    -0.41871     0.00000
          18     0.15269     0.00000    -0.67834     0.57548     0.00000    -0.20252
          19     0.00000    -0.05064     0.00000     0.00000    -0.02150     0.00000
          20     0.00000    -0.45421     0.00000     0.00000     0.36882     0.00000
          21    -0.23944     0.00000     0.38111     0.60839     0.00000     0.40174

                   13          14          15          16          17          18
 
 P.Frequency     1109.19     1314.87     1347.70     1440.16     1689.97     3192.21
 
           1     0.04514     0.03194    -0.06432     0.01642     0.00391    -0.00022
           2     0.13017    -0.01291    -0.01150    -0.03355    -0.03522     0.00007
           3     0.00000     0.00000     0.00000     0.00000     0.00000     0.00000
           4    -0.11538    -0.12778     0.03658    -0.02133    -0.06566    -0.00300
           5    -0.05247    -0.05070     0.09143     0.07604     0.18910    -0.00771
           6     0.00000     0.00000     0.00000     0.00000     0.00000     0.00000
           7     0.06727     0.08724     0.03010    -0.03668     0.07580    -0.04524
           8    -0.03283    -0.00143    -0.04592     0.04900    -0.14858     0.04966
           9     0.00000     0.00000     0.00000     0.00000     0.00000     0.00000
          10    -0.01170     0.07683    -0.10831     0.03975     0.01365     0.00434
          11    -0.47854     0.50038    -0.49096     0.25325     0.11934     0.00306
          12     0.00000     0.00000     0.00000     0.00000     0.00000     0.00000
          13    -0.13577    -0.09524     0.06958    -0.05481    -0.12554     0.07729
          14    -0.27961     0.53658     0.59119    -0.36193    -0.21714    -0.00180
          15     0.00000     0.00000     0.00000     0.00000     0.00000     0.00000
          16    -0.04784    -0.06848     0.23457     0.50949    -0.19656    -0.29945
          17     0.02673     0.08611    -0.18278    -0.30443    -0.00499    -0.45469
          18     0.00000     0.00000     0.00000     0.00000     0.00000     0.00000
          19     0.05161     0.06266     0.03093    -0.06438     0.12561     0.79565
          20    -0.31871    -0.29738    -0.27676    -0.54323     0.17929    -0.04711
          21     0.00000     0.00000     0.00000     0.00000     0.00000     0.00000

                   19          20          21
 
 P.Frequency     3251.23     3309.42     3790.69
 
           1    -0.00182    -0.00058    -0.05994
           2     0.00050    -0.00066     0.00434
           3     0.00000     0.00000     0.00000
           4     0.08194     0.01630    -0.00329
           5    -0.01138    -0.00173     0.00160
           6     0.00000     0.00000     0.00000
           7    -0.01987     0.07474     0.00106
           8    -0.00046     0.05425     0.00028
           9     0.00000     0.00000     0.00000
          10     0.02250     0.00090     0.96244
          11    -0.00761    -0.00550    -0.08919
          12     0.00000     0.00000     0.00000
          13    -0.93242    -0.16276     0.02105
          14     0.06862     0.01254    -0.00291
          15     0.00000     0.00000     0.00000
          16     0.05307    -0.40965    -0.00023
          17     0.08293    -0.66182     0.00246
          18     0.00000     0.00000     0.00000
          19     0.14661    -0.50336    -0.00546
          20    -0.01079     0.03993    -0.00168
          21     0.00000     0.00000     0.00000



 ----------------------------------------------------------------------------
 Normal Eigenvalue ||    Projected Derivative Dipole Moments (debye/angs)
  Mode   [cm**-1]  ||      [d/dqX]             [d/dqY]           [d/dqZ]
 ------ ---------- || ------------------ ------------------ -----------------
    1        0.000 ||       0.000               0.000             0.184
    2        0.000 ||       0.000               0.000             0.068
    3        0.000 ||       0.000               0.000            -0.223
    4        0.000 ||       0.014               0.019             0.000
    5        0.000 ||      -0.069              -0.097             0.000
    6        0.000 ||      -0.035              -0.048             0.000
    7      440.546 ||       0.000               0.000             1.459
    8      481.936 ||       0.408               0.343             0.000
    9      706.124 ||       0.000               0.000            -0.192
   10      819.856 ||       0.000               0.000             1.118
   11      947.222 ||      -0.058              -0.584             0.000
   12      979.877 ||       0.000               0.000             1.019
   13     1109.193 ||      -0.557              -1.958             0.000
   14     1314.867 ||       0.102               0.232             0.000
   15     1347.699 ||      -0.023               0.369             0.000
   16     1440.157 ||       0.376               0.489             0.000
   17     1689.972 ||       0.009               1.892             0.000
   18     3192.209 ||      -0.250              -0.166             0.000
   19     3251.228 ||       0.283               0.111             0.000
   20     3309.419 ||       0.325               0.161             0.000
   21     3790.693 ||       0.880               0.506             0.000
 ----------------------------------------------------------------------------



  
  
 ----------------------------------------------------------------------------
 Normal Eigenvalue ||           Projected Infra Red Intensities
  Mode   [cm**-1]  || [atomic units] [(debye/angs)**2] [(KM/mol)] [arbitrary]
 ------ ---------- || -------------- ----------------- ---------- -----------
    1        0.000 ||    0.001469           0.034         1.432       0.480
    2        0.000 ||    0.000202           0.005         0.197       0.066
    3        0.000 ||    0.002164           0.050         2.110       0.707
    4        0.000 ||    0.000024           0.001         0.024       0.008
    5        0.000 ||    0.000611           0.014         0.596       0.199
    6        0.000 ||    0.000153           0.004         0.149       0.050
    7      440.546 ||    0.092207           2.127        89.888      30.107
    8      481.936 ||    0.012325           0.284        12.015       4.024
    9      706.124 ||    0.001595           0.037         1.555       0.521
   10      819.856 ||    0.054156           1.249        52.794      17.683
   11      947.222 ||    0.014932           0.344        14.556       4.876
   12      979.877 ||    0.044985           1.038        43.853      14.688
   13     1109.193 ||    0.179649           4.145       175.131      58.659
   14     1314.867 ||    0.002795           0.064         2.725       0.913
   15     1347.699 ||    0.005909           0.136         5.761       1.929
   16     1440.157 ||    0.016498           0.381        16.083       5.387
   17     1689.972 ||    0.155134           3.579       151.233      50.654
   18     3192.209 ||    0.003913           0.090         3.814       1.278
   19     3251.228 ||    0.004006           0.092         3.906       1.308
   20     3309.419 ||    0.005708           0.132         5.564       1.864
   21     3790.693 ||    0.044710           1.031        43.586      14.599
 ----------------------------------------------------------------------------



 vib:animation  F

 Task  times  cpu:      523.0s     wall:      536.6s
 
 
                                NWChem Input Module
                                -------------------
 
 
 Summary of allocated global arrays
-----------------------------------
  No active global arrays



                         GA Statistics for process    0
                         ------------------------------

       create   destroy   get      put      acc     scatter   gather  read&inc
calls: 4.03e+04 4.03e+04 2.19e+06 3.56e+05 6.39e+05    0        0     5.30e+04 
number of processes/call 1.19e+01 3.39e+01 1.46e+01 0.00e+00 0.00e+00
bytes total:             1.70e+09 1.38e+09 4.76e+08 0.00e+00 0.00e+00 4.24e+05
bytes remote:            1.05e+09 8.78e+08 3.53e+08 0.00e+00 0.00e+00 0.00e+00
Max memory consumed for GA by this process: 13903688 bytes
 
MA_summarize_allocated_blocks: starting scan ...
MA_summarize_allocated_blocks: scan completed: 0 heap blocks, 0 stack blocks
MA usage statistics:

	allocation statistics:
					      heap	     stack
					      ----	     -----
	current number of blocks	         0	         0
	maximum number of blocks	        25	        39
	current total bytes		         0	         0
	maximum total bytes		  31486760	  26244088
	maximum total K-bytes		     31487	     26245
	maximum total M-bytes		        32	        27
 
 
                                     CITATION
                                     --------
                Please cite the following reference when publishing
                           results obtained with NWChem:
 
          E. Apr, E. J. Bylaska, W. A. de Jong, N. Govind, K. Kowalski,
       T. P. Straatsma, M. Valiev, H. J. J. van Dam, Y. Alexeev, J. Anchell,
       V. Anisimov, F. W. Aquino, R. Atta-Fynn, J. Autschbach, N. P. Bauman,
     J. C. Becca, D. E. Bernholdt, K. Bhaskaran-Nair, S. Bogatko, P. Borowski,
        J. Boschen, J. Brabec, A. Bruner, E. Caut, Y. Chen, G. N. Chuev,
      C. J. Cramer, J. Daily, M. J. O. Deegan, T. H. Dunning Jr., M. Dupuis,
   K. G. Dyall, G. I. Fann, S. A. Fischer, A. Fonari, H. Frchtl, L. Gagliardi,
      J. Garza, N. Gawande, S. Ghosh, K. Glaesemann, A. W. Gtz, J. Hammond,
       V. Helms, E. D. Hermes, K. Hirao, S. Hirata, M. Jacquelin, L. Jensen,
   B. G. Johnson, H. Jnsson, R. A. Kendall, M. Klemm, R. Kobayashi, V. Konkov,
      S. Krishnamoorthy, M. Krishnan, Z. Lin, R. D. Lins, R. J. Littlefield,
      A. J. Logsdail, K. Lopata, W. Ma, A. V. Marenich, J. Martin del Campo,
   D. Mejia-Rodriguez, J. E. Moore, J. M. Mullin, T. Nakajima, D. R. Nascimento,
    J. A. Nichols, P. J. Nichols, J. Nieplocha, A. Otero-de-la-Roza, B. Palmer,
    A. Panyala, T. Pirojsirikul, B. Peng, R. Peverati, J. Pittner, L. Pollack,
   R. M. Richard, P. Sadayappan, G. C. Schatz, W. A. Shelton, D. W. Silverstein,
   D. M. A. Smith, T. A. Soares, D. Song, M. Swart, H. L. Taylor, G. S. Thomas,
            V. Tipparaju, D. G. Truhlar, K. Tsemekhman, T. Van Voorhis,
     . Vzquez-Mayagoitia, P. Verma, O. Villa, A. Vishnu, K. D. Vogiatzis,
        D. Wang, J. H. Weare, M. J. Williamson, T. L. Windus, K. Woliski,
        A. T. Wong, Q. Wu, C. Yang, Q. Yu, M. Zacharias, Z. Zhang, Y. Zhao,
                                and R. J. Harrison
                        "NWChem: Past, present, and future
                         J. Chem. Phys. 152, 184102 (2020)
                               doi:10.1063/5.0004997
 
                                      AUTHORS
                                      -------
     E. Apra, E. J. Bylaska, N. Govind, K. Kowalski, M. Valiev, W. A. de Jong,
      T. P. Straatsma, H. J. J. van Dam, D. Wang, T. L. Windus, N. P. Bauman,
       A. Panyala, J. Hammond, J. Autschbach, K. Bhaskaran-Nair, J. Brabec,
    K. Lopata, S. A. Fischer, S. Krishnamoorthy, M. Jacquelin, W. Ma, M. Klemm,
       O. Villa, Y. Chen, V. Anisimov, F. Aquino, S. Hirata, M. T. Hackler,
           Eric Hermes, L. Jensen, J. E. Moore, J. C. Becca, V. Konjkov,
            D. Mejia-Rodriguez, T. Risthaus, M. Malagoli, A. Marenich,
   A. Otero-de-la-Roza, J. Mullin, P. Nichols, R. Peverati, J. Pittner, Y. Zhao,
        P.-D. Fan, A. Fonari, M. J. Williamson, R. J. Harrison, J. R. Rehr,
      M. Dupuis, D. Silverstein, D. M. A. Smith, J. Nieplocha, V. Tipparaju,
      M. Krishnan, B. E. Van Kuiken, A. Vazquez-Mayagoitia, M. Swart, Q. Wu,
   T. Van Voorhis, A. A. Auer, M. Nooijen, L. D. Crosby, E. Brown, G. Cisneros,
     G. I. Fann, H. Fruchtl, J. Garza, K. Hirao, R. A. Kendall, J. A. Nichols,
       K. Tsemekhman, K. Wolinski, J. Anchell, D. E. Bernholdt, P. Borowski,
       T. Clark, D. Clerc, H. Dachsel, M. J. O. Deegan, K. Dyall, D. Elwood,
      E. Glendening, M. Gutowski, A. C. Hess, J. Jaffe, B. G. Johnson, J. Ju,
        R. Kobayashi, R. Kutteh, Z. Lin, R. Littlefield, X. Long, B. Meng,
      T. Nakajima, S. Niu, L. Pollack, M. Rosing, K. Glaesemann, G. Sandrone,
      M. Stave, H. Taylor, G. Thomas, J. H. van Lenthe, A. T. Wong, Z. Zhang.

 Total times  cpu:      664.4s     wall:      683.2s
