 argument  1 = 1R2.nw
 


============================== echo of input deck ==============================
echo
start 1R2
title "H,H,H Reference 2"
charge 0

geometry
 zmatrix
  O
  C  1  R1
  C  2  R2  1  A1
  H  1  R5  2  A4  3  D180
  H  2  R6  3  A5  4  D180
  H  3  R7  2  A6  1  D180
  H  3  R8  2  A7  1  D0
  variables
    R1  1.329
    R2  1.363
    A1  124.5
    R5  0.994
    A4  105.4
    R6  1.085
    A5  122.5
    R7  1.078
    A6  120.0
    R8  1.099
    A7  117.6
  constants
    D0  0.000
    D180 180.0
 end
end

basis spherical
 * library aug-cc-pVDZ
end

set lindep:n_dep 0

set cphf:maxsub 95
set cphf:maxiter 999
set int:acc_std 1d-16
set fock:densityscreen f

scf
 maxiter 99
 vectors input atomic
 thresh 1d-9
 tol2e 1d-15
end

mp2
 freeze atomic
 tight
end

driver
 clear
 maxiter 99
 tight
end

set "mp2:aotol2e fock" 1d-15
set mp2:aotol2e 1d-15
set mp2:backtol 1d-15


task mp2 optimize
task mp2 frequencies

================================================================================


                                         
                                         
 
 
             Northwest Computational Chemistry Package (NWChem) 7.0.0
             --------------------------------------------------------
 
 
                    Environmental Molecular Sciences Laboratory
                       Pacific Northwest National Laboratory
                                Richland, WA 99352
 
                              Copyright (c) 1994-2020
                       Pacific Northwest National Laboratory
                            Battelle Memorial Institute
 
             NWChem is an open-source computational chemistry package
                        distributed under the terms of the
                      Educational Community License (ECL) 2.0
             A copy of the license is included with this distribution
                              in the LICENSE.TXT file
 
                                  ACKNOWLEDGMENT
                                  --------------

            This software and its documentation were developed at the
            EMSL at Pacific Northwest National Laboratory, a multiprogram
            national laboratory, operated for the U.S. Department of Energy
            by Battelle under Contract Number DE-AC05-76RL01830. Support
            for this work was provided by the Department of Energy Office
            of Biological and Environmental Research, Office of Basic
            Energy Sciences, and the Office of Advanced Scientific Computing.


           Job information
           ---------------

    hostname        = compute-0-30.local
    program         = /scratch/nwchem.277679
    date            = Wed Mar 24 12:29:19 2021

    compiled        = Thu_Jun_25_16:07:03_2020
    source          = /home/edo/nwchem-7.0.1
    nwchem branch   = 7.0.1
    nwchem revision = de46fdf
    ga revision     = 5.7.1
    use scalapack   = T
    input           = 1R2.nw
    prefix          = 1R2.
    data base       = ./1R2.db
    status          = startup
    nproc           =       11
    time left       =     -1s



           Memory information
           ------------------

    heap     =   13107198 doubles =    100.0 Mbytes
    stack    =   13107195 doubles =    100.0 Mbytes
    global   =   26214400 doubles =    200.0 Mbytes (distinct from heap & stack)
    total    =   52428793 doubles =    400.0 Mbytes
    verify   = yes
    hardfail = no 


           Directory information
           ---------------------
 
  0 permanent = .
  0 scratch   = /scratch
 
 
 
 
                                NWChem Input Module
                                -------------------
 
 
                                 H,H,H Reference 2
                                 -----------------

 Scaling coordinates for geometry "geometry" by  1.889725989
 (inverse scale =  0.529177249)

 CS  symmetry detected
 
 
                             Geometry "geometry" -> ""
                             -------------------------
 
 Output coordinates in angstroms (scale by  1.889725989 to convert to a.u.)
 
  No.       Tag          Charge          X              Y              Z
 ---- ---------------- ---------- -------------- -------------- --------------
    1 O                    8.0000     0.26423151     1.13527347     0.00000000
    2 C                    6.0000    -0.39099466    -0.02097895     0.00000000
    3 C                    6.0000     0.20566264    -1.24644582     0.00000000
    4 H                    1.0000    -0.43937563     1.83739382     0.00000000
    5 H                    1.0000    -1.46893541     0.10258783     0.00000000
    6 H                    1.0000    -0.39776173    -2.13973359     0.00000000
    7 H                    1.0000     1.30421280    -1.27788715     0.00000000
 
      Atomic Mass 
      ----------- 
 
      O                 15.994910
      C                 12.000000
      H                  1.007825
 

 Effective nuclear repulsion energy (a.u.)      70.1469920057

            Nuclear Dipole moment (a.u.) 
            ----------------------------
        X                 Y               Z
 ---------------- ---------------- ----------------
     0.0000000000     0.0000000000     0.0000000000
 
      Symmetry information
      --------------------
 
 Group name             Cs        
 Group number              2
 Group order               2
 No. of unique centers     7
 
      Symmetry unique atoms
 
     1    2    3    4    5    6    7
 


                                Z-matrix (user)
                                -------- 

 Units are Angstrom for bonds and degrees for angles

  Constants are marked with an asterisk (*).

  Constrained variables are marked with a plus sign (+).

 
      Type          Name      I     J     K     L     M      Value
      ----------- --------  ----- ----- ----- ----- ----- ----------
    1 Stretch      R1          2     1                       1.32900
    2 Stretch      R2          3     2                       1.36300
    3 Bend         A1          3     2     1               124.50000
    4 Stretch      R5          4     1                       0.99400
    5 Bend         A4          4     1     2               105.40000
    6*Torsion      D180        4     1     2     3         180.00000
    7 Stretch      R6          5     2                       1.08500
    8 Bend         A5          5     2     3               122.50000
    9*Torsion      D180        5     2     3     4         180.00000
   10 Stretch      R7          6     3                       1.07800
   11 Bend         A6          6     3     2               120.00000
   12*Torsion      D180        6     3     2     1         180.00000
   13 Stretch      R8          7     3                       1.09900
   14 Bend         A7          7     3     2               117.60000
   15*Torsion      D0          7     3     2     1           0.00000
 
 
            XYZ format geometry
            -------------------
     7
 geometry
 O                     0.26423151     1.13527347     0.00000000
 C                    -0.39099466    -0.02097895     0.00000000
 C                     0.20566264    -1.24644582     0.00000000
 H                    -0.43937563     1.83739382     0.00000000
 H                    -1.46893541     0.10258783     0.00000000
 H                    -0.39776173    -2.13973359     0.00000000
 H                     1.30421280    -1.27788715     0.00000000
 
 ==============================================================================
                                internuclear distances
 ------------------------------------------------------------------------------
       center one      |      center two      | atomic units |  angstroms
 ------------------------------------------------------------------------------
    2 C                |   1 O                |     2.51145  |     1.32900
    3 C                |   2 C                |     2.57570  |     1.36300
    4 H                |   1 O                |     1.87839  |     0.99400
    5 H                |   2 C                |     2.05035  |     1.08500
    6 H                |   3 C                |     2.03712  |     1.07800
    7 H                |   3 C                |     2.07681  |     1.09900
 ------------------------------------------------------------------------------
                         number of included internuclear distances:          6
 ==============================================================================



 ==============================================================================
                                 internuclear angles
 ------------------------------------------------------------------------------
        center 1       |       center 2       |       center 3       |  degrees
 ------------------------------------------------------------------------------
    2 C                |   1 O                |   4 H                |   105.40
    1 O                |   2 C                |   3 C                |   124.50
    1 O                |   2 C                |   5 H                |   113.00
    3 C                |   2 C                |   5 H                |   122.50
    2 C                |   3 C                |   6 H                |   120.00
    2 C                |   3 C                |   7 H                |   117.60
    6 H                |   3 C                |   7 H                |   122.40
 ------------------------------------------------------------------------------
                            number of included internuclear angles:          7
 ==============================================================================





 Summary of "ao basis" -> "" (spherical)
 ------------------------------------------------------------------------------
       Tag                 Description            Shells   Functions and Types
 ---------------- ------------------------------  ------  ---------------------
 *                        aug-cc-pVDZ                 on all atoms 


 
  Deleted DRIVER restart files 
 
 
 
                           NWChem Geometry Optimization
                           ----------------------------
 
 
 
 
                                 H,H,H Reference 2
 
 
 maximum gradient threshold         (gmax) =   0.000015
 rms gradient threshold             (grms) =   0.000010
 maximum cartesian step threshold   (xmax) =   0.000060
 rms cartesian step threshold       (xrms) =   0.000040
 fixed trust radius                (trust) =   0.300000
 maximum step size to saddle      (sadstp) =   0.100000
 energy precision                  (eprec) =   1.0D-07
 maximum number of steps          (nptopt) =   99
 initial hessian option           (inhess) =    0
 line search option               (linopt) =    1
 hessian update option            (modupd) =    1
 saddle point option              (modsad) =    0
 initial eigen-mode to follow     (moddir) =    0
 initial variable to follow       (vardir) =    0
 follow first negative mode     (firstneg) =    T
 apply conjugacy                    (opcg) =    F
 source of zmatrix                         =   user    


          -------------------
          Energy Minimization
          -------------------

 
 Names of Z-matrix variables 
    1 R1           2 R2           3 A1           4 R5           5 A4      
    6 D180         7 R6           8 A5           9 D180        10 R7      
   11 A6          12 D180        13 R8          14 A7          15 D0      
 
 Variables with the same non-blank name are constrained to be equal
 
     variables named     D180 =     6    9   12 

 Number of frozen variables =    4
           Frozen variables =    6    9   12   15
 
 Using diagonal initial Hessian 
 Scaling for Hessian diagonals: bonds = 1.00  angles = 0.25  torsions = 0.10

          --------
          Step   0
          --------
 
 
                         Geometry "geometry" -> "geometry"
                         ---------------------------------
 
 Output coordinates in angstroms (scale by  1.889725989 to convert to a.u.)
 
  No.       Tag          Charge          X              Y              Z
 ---- ---------------- ---------- -------------- -------------- --------------
    1 O                    8.0000     0.26423151     1.13527347     0.00000000
    2 C                    6.0000    -0.39099466    -0.02097895     0.00000000
    3 C                    6.0000     0.20566264    -1.24644582     0.00000000
    4 H                    1.0000    -0.43937563     1.83739382     0.00000000
    5 H                    1.0000    -1.46893541     0.10258783     0.00000000
    6 H                    1.0000    -0.39776173    -2.13973359     0.00000000
    7 H                    1.0000     1.30421280    -1.27788715     0.00000000
 
      Atomic Mass 
      ----------- 
 
      O                 15.994910
      C                 12.000000
      H                  1.007825
 

 Effective nuclear repulsion energy (a.u.)      70.1469920057

            Nuclear Dipole moment (a.u.) 
            ----------------------------
        X                 Y               Z
 ---------------- ---------------- ----------------
     0.0000000000     0.0000000000     0.0000000000
 
      Symmetry information
      --------------------
 
 Group name             Cs        
 Group number              2
 Group order               2
 No. of unique centers     7
 
      Symmetry unique atoms
 
     1    2    3    4    5    6    7
 
                      Basis "ao basis" -> "ao basis" (spherical)
                      -----
  O (Oxygen)
  ----------
            Exponent  Coefficients 
       -------------- ---------------------------------------------------------
  1 S  1.17200000E+04  0.000710
  1 S  1.75900000E+03  0.005470
  1 S  4.00800000E+02  0.027837
  1 S  1.13700000E+02  0.104800
  1 S  3.70300000E+01  0.283062
  1 S  1.32700000E+01  0.448719
  1 S  5.02500000E+00  0.270952
  1 S  1.01300000E+00  0.015458
 
  2 S  1.17200000E+04 -0.000160
  2 S  1.75900000E+03 -0.001263
  2 S  4.00800000E+02 -0.006267
  2 S  1.13700000E+02 -0.025716
  2 S  3.70300000E+01 -0.070924
  2 S  1.32700000E+01 -0.165411
  2 S  5.02500000E+00 -0.116955
  2 S  1.01300000E+00  0.557368
 
  3 S  3.02300000E-01  1.000000
 
  4 S  7.89600000E-02  1.000000
 
  5 P  1.77000000E+01  0.043018
  5 P  3.85400000E+00  0.228913
  5 P  1.04600000E+00  0.508728
 
  6 P  2.75300000E-01  1.000000
 
  7 P  6.85600000E-02  1.000000
 
  8 D  1.18500000E+00  1.000000
 
  9 D  3.32000000E-01  1.000000
 
  C (Carbon)
  ----------
            Exponent  Coefficients 
       -------------- ---------------------------------------------------------
  1 S  6.66500000E+03  0.000692
  1 S  1.00000000E+03  0.005329
  1 S  2.28000000E+02  0.027077
  1 S  6.47100000E+01  0.101718
  1 S  2.10600000E+01  0.274740
  1 S  7.49500000E+00  0.448564
  1 S  2.79700000E+00  0.285074
  1 S  5.21500000E-01  0.015204
 
  2 S  6.66500000E+03 -0.000146
  2 S  1.00000000E+03 -0.001154
  2 S  2.28000000E+02 -0.005725
  2 S  6.47100000E+01 -0.023312
  2 S  2.10600000E+01 -0.063955
  2 S  7.49500000E+00 -0.149981
  2 S  2.79700000E+00 -0.127262
  2 S  5.21500000E-01  0.544529
 
  3 S  1.59600000E-01  1.000000
 
  4 S  4.69000000E-02  1.000000
 
  5 P  9.43900000E+00  0.038109
  5 P  2.00200000E+00  0.209480
  5 P  5.45600000E-01  0.508557
 
  6 P  1.51700000E-01  1.000000
 
  7 P  4.04100000E-02  1.000000
 
  8 D  5.50000000E-01  1.000000
 
  9 D  1.51000000E-01  1.000000
 
  H (Hydrogen)
  ------------
            Exponent  Coefficients 
       -------------- ---------------------------------------------------------
  1 S  1.30100000E+01  0.019685
  1 S  1.96200000E+00  0.137977
  1 S  4.44600000E-01  0.478148
 
  2 S  1.22000000E-01  1.000000
 
  3 S  2.97400000E-02  1.000000
 
  4 P  7.27000000E-01  1.000000
 
  5 P  1.41000000E-01  1.000000
 


 Summary of "ao basis" -> "ao basis" (spherical)
 ------------------------------------------------------------------------------
       Tag                 Description            Shells   Functions and Types
 ---------------- ------------------------------  ------  ---------------------
 O                        aug-cc-pVDZ                9       23   4s3p2d
 C                        aug-cc-pVDZ                9       23   4s3p2d
 H                        aug-cc-pVDZ                5        9   3s2p


                                 NWChem SCF Module
                                 -----------------
 
 
                                 H,H,H Reference 2
 
 

  ao basis        = "ao basis"
  functions       =   105
  atoms           =     7
  closed shells   =    12
  open shells     =     0
  charge          =   0.00
  wavefunction    = RHF 
  input vectors   = atomic
  output vectors  = ./1R2.movecs
  use symmetry    = T
  symmetry adapt  = T


 Summary of "ao basis" -> "ao basis" (spherical)
 ------------------------------------------------------------------------------
       Tag                 Description            Shells   Functions and Types
 ---------------- ------------------------------  ------  ---------------------
 O                        aug-cc-pVDZ                9       23   4s3p2d
 C                        aug-cc-pVDZ                9       23   4s3p2d
 H                        aug-cc-pVDZ                5        9   3s2p


      Symmetry analysis of basis
      --------------------------
 
        a'         76
        a"         29
 

int_init: setting std/high accuracies to  1.0D-16  1.0D-32

 Forming initial guess at       0.2s


 Forcing the number of linearly dependent vectors to be  0
 
      Superposition of Atomic Density Guess
      -------------------------------------
 
 Sum of atomic energies:        -152.09819709
 
      Non-variational initial energy
      ------------------------------

 Total energy =    -153.628431
 1-e energy   =    -344.155619
 2-e energy   =     120.380196
 HOMO         =      -0.277715
 LUMO         =       0.019853
 
 
      Symmetry analysis of molecular orbitals - initial
      -------------------------------------------------
 
  Numbering of irreducible representations: 
 
     1 a'          2 a"      
 
  Orbital symmetries:
 
     1 a'          2 a'          3 a'          4 a'          5 a'      
     6 a'          7 a'          8 a'          9 a"         10 a'      
    11 a'         12 a"         13 a'         14 a"         15 a'      
    16 a'         17 a'         18 a'         19 a"         20 a'      
    21 a'         22 a"      
 

 Starting SCF solution at       0.6s



 ----------------------------------------------
         Quadratically convergent ROHF

 Convergence threshold     :          1.000E-09
 Maximum no. of iterations :           99
 Final Fock-matrix accuracy:          1.000E-15
 ----------------------------------------------

 Warning: symmetry breaking in RHF:   1.261648641828734E-014

              iter       energy          gnorm     gmax       time
             ----- ------------------- --------- --------- --------
                 1     -152.8578903008  8.66D-01  1.59D-01      0.6
 Warning: symmetry breaking in RHF:   1.033999238373254E-014
                 2     -152.9037644025  2.81D-01  4.94D-02      1.2
 Warning: symmetry breaking in RHF:   1.005475548438386E-014
                 3     -152.9105058488  1.56D-02  4.98D-03      1.9
 Warning: symmetry breaking in RHF:   1.004043238651223E-014
                 4     -152.9105515295  8.66D-05  2.45D-05      3.5
 Warning: symmetry breaking in RHF:   1.004039192154315E-014
                 5     -152.9105515305  2.01D-09  2.62D-10      6.0
 Warning: symmetry breaking in RHF:   1.006031060799808E-014
                 6     -152.9105515305  6.65D-11  1.45D-11      7.0


       Final RHF  results 
       ------------------ 

         Total SCF energy =   -152.910551530520
      One-electron energy =   -346.591554072159
      Two-electron energy =    123.534010535983
 Nuclear repulsion energy =     70.146992005655

        Time for solution =      6.7s


 
       Symmetry analysis of molecular orbitals - final
       -----------------------------------------------
 
  Numbering of irreducible representations: 
 
     1 a'          2 a"      
 
  Orbital symmetries:
 
     1 a'          2 a'          3 a'          4 a'          5 a'      
     6 a'          7 a'          8 a'          9 a"         10 a'      
    11 a'         12 a"         13 a'         14 a'         15 a'      
    16 a'         17 a"         18 a"         19 a'         20 a'      
    21 a'         22 a'      
 
             Final eigenvalues
             -----------------

              1      
    1  -20.6104
    2  -11.3082
    3  -11.2212
    4   -1.4237
    5   -1.0124
    6   -0.7991
    7   -0.7491
    8   -0.6226
    9   -0.5890
   10   -0.5740
   11   -0.5169
   12   -0.3351
   13    0.0293
   14    0.0493
   15    0.0544
   16    0.0706
   17    0.1101
   18    0.1199
   19    0.1255
   20    0.1262
   21    0.1552
   22    0.1788
 
                       ROHF Final Molecular Orbital Analysis
                       -------------------------------------
 
 Vector    3  Occ=2.000000D+00  E=-1.122120D+01  Symmetry=a'
              MO Center=  2.1D-01, -1.2D+00, -3.1D-19, r^2= 2.7D-02
   Bfn.  Coefficient  Atom+Function         Bfn.  Coefficient  Atom+Function  
  ----- ------------  ---------------      ----- ------------  ---------------
    47      1.003614  3 C  s          
 
 Vector    4  Occ=2.000000D+00  E=-1.423735D+00  Symmetry=a'
              MO Center=  6.8D-02,  1.0D+00, -1.9D-31, r^2= 5.6D-01
   Bfn.  Coefficient  Atom+Function         Bfn.  Coefficient  Atom+Function  
  ----- ------------  ---------------      ----- ------------  ---------------
     3      0.464765  1 O  s                  2      0.416994  1 O  s          
    70      0.175341  4 H  s                 27     -0.163984  2 C  s          
 
 Vector    5  Occ=2.000000D+00  E=-1.012445D+00  Symmetry=a'
              MO Center= -7.2D-02, -5.3D-01, -2.8D-31, r^2= 1.4D+00
   Bfn.  Coefficient  Atom+Function         Bfn.  Coefficient  Atom+Function  
  ----- ------------  ---------------      ----- ------------  ---------------
    48      0.298008  3 C  s                 25      0.274799  2 C  s          
    49      0.176767  3 C  s          
 
 Vector    6  Occ=2.000000D+00  E=-7.991045D-01  Symmetry=a'
              MO Center= -5.0D-02, -7.1D-02, -3.0D-36, r^2= 2.6D+00
   Bfn.  Coefficient  Atom+Function         Bfn.  Coefficient  Atom+Function  
  ----- ------------  ---------------      ----- ------------  ---------------
    27      0.325709  2 C  s                 50     -0.309611  3 C  s          
    49      0.296677  3 C  s                  6      0.284746  1 O  py         
    26     -0.281417  2 C  s                 25     -0.217252  2 C  s          
    48      0.217760  3 C  s                 80     -0.203240  5 H  s          
    79     -0.198953  5 H  s                 29     -0.176546  2 C  py         
 
 Vector    7  Occ=2.000000D+00  E=-7.491392D-01  Symmetry=a'
              MO Center= -2.7D-01,  6.0D-01, -2.9D-16, r^2= 1.6D+00
   Bfn.  Coefficient  Atom+Function         Bfn.  Coefficient  Atom+Function  
  ----- ------------  ---------------      ----- ------------  ---------------
     6      0.311693  1 O  py                28     -0.288447  2 C  px         
    70      0.282608  4 H  s                 80      0.246498  5 H  s          
    79      0.236742  5 H  s                  5     -0.231848  1 O  px         
     3     -0.156908  1 O  s                  9      0.153918  1 O  py         
 
 Vector    8  Occ=2.000000D+00  E=-6.226288D-01  Symmetry=a'
              MO Center=  2.7D-01, -2.3D-01, -4.8D-32, r^2= 2.3D+00
   Bfn.  Coefficient  Atom+Function         Bfn.  Coefficient  Atom+Function  
  ----- ------------  ---------------      ----- ------------  ---------------
    29     -0.326772  2 C  py                 5      0.322816  1 O  px         
    52      0.255556  3 C  py                97     -0.214971  7 H  s          
     8      0.210960  1 O  px                51     -0.200051  3 C  px         
     6      0.188459  1 O  py                55      0.157693  3 C  py         
 
 Vector    9  Occ=2.000000D+00  E=-5.890288D-01  Symmetry=a"
              MO Center=  1.3D-01,  8.9D-01,  1.2D-16, r^2= 9.9D-01
   Bfn.  Coefficient  Atom+Function         Bfn.  Coefficient  Atom+Function  
  ----- ------------  ---------------      ----- ------------  ---------------
     7      0.559861  1 O  pz                10      0.409318  1 O  pz         
    30      0.221515  2 C  pz         
 
 Vector   10  Occ=2.000000D+00  E=-5.739560D-01  Symmetry=a'
              MO Center=  8.1D-02, -9.4D-01,  6.7D-18, r^2= 2.3D+00
   Bfn.  Coefficient  Atom+Function         Bfn.  Coefficient  Atom+Function  
  ----- ------------  ---------------      ----- ------------  ---------------
    88      0.343532  6 H  s                 89      0.325688  6 H  s          
    52     -0.311994  3 C  py                51     -0.238191  3 C  px         
     5      0.204611  1 O  px                97     -0.198225  7 H  s          
    70     -0.179913  4 H  s                 98     -0.174767  7 H  s          
 
 Vector   11  Occ=2.000000D+00  E=-5.168650D-01  Symmetry=a'
              MO Center= -4.0D-02, -1.4D-01,  6.5D-18, r^2= 2.5D+00
   Bfn.  Coefficient  Atom+Function         Bfn.  Coefficient  Atom+Function  
  ----- ------------  ---------------      ----- ------------  ---------------
    80      0.361236  5 H  s                  5      0.317807  1 O  px         
    79      0.295581  5 H  s                 28     -0.293480  2 C  px         
    51      0.275309  3 C  px                98      0.265981  7 H  s          
    97      0.252178  7 H  s                  8      0.207566  1 O  px         
    89     -0.202807  6 H  s          
 
 Vector   12  Occ=2.000000D+00  E=-3.350700D-01  Symmetry=a"
              MO Center= -4.5D-03, -5.6D-01,  1.9D-16, r^2= 1.9D+00
   Bfn.  Coefficient  Atom+Function         Bfn.  Coefficient  Atom+Function  
  ----- ------------  ---------------      ----- ------------  ---------------
    53      0.402656  3 C  pz                30      0.315864  2 C  pz         
    56      0.292741  3 C  pz                 7     -0.270165  1 O  pz         
    33      0.229079  2 C  pz                10     -0.220315  1 O  pz         
 
 Vector   13  Occ=0.000000D+00  E= 2.932801D-02  Symmetry=a'
              MO Center= -1.8D+00,  2.0D+00, -1.5D-15, r^2= 1.3D+01
   Bfn.  Coefficient  Atom+Function         Bfn.  Coefficient  Atom+Function  
  ----- ------------  ---------------      ----- ------------  ---------------
    50      3.408812  3 C  s                 81     -2.114475  5 H  s          
    72     -1.903748  4 H  s                 35      1.875182  2 C  py         
    34     -1.004388  2 C  px                 4     -0.789680  1 O  s          
    58      0.737436  3 C  py                80     -0.677406  5 H  s          
    49      0.645168  3 C  s                 57     -0.556267  3 C  px         
 
 Vector   14  Occ=0.000000D+00  E= 4.933471D-02  Symmetry=a'
              MO Center= -1.2D+00, -2.0D+00, -3.2D-17, r^2= 1.9D+01
   Bfn.  Coefficient  Atom+Function         Bfn.  Coefficient  Atom+Function  
  ----- ------------  ---------------      ----- ------------  ---------------
    90      3.712589  6 H  s                 72     -1.609409  4 H  s          
    58      1.429195  3 C  py                27     -1.212031  2 C  s          
    50     -1.168834  3 C  s                 89      1.157497  6 H  s          
    35      0.654104  2 C  py                57      0.650969  3 C  px         
    55      0.635294  3 C  py                26     -0.427636  2 C  s          
 
 Vector   15  Occ=0.000000D+00  E= 5.436629D-02  Symmetry=a'
              MO Center=  1.1D+00, -5.9D-01,  2.1D-17, r^2= 2.1D+01
   Bfn.  Coefficient  Atom+Function         Bfn.  Coefficient  Atom+Function  
  ----- ------------  ---------------      ----- ------------  ---------------
    81      3.739225  5 H  s                 99     -3.664784  7 H  s          
    72     -1.435084  4 H  s                 57      1.401566  3 C  px         
    34      1.334317  2 C  px                27      0.831234  2 C  s          
    98     -0.770893  7 H  s                 35     -0.576486  2 C  py         
    58     -0.547923  3 C  py                80      0.546285  5 H  s          
 
 Vector   16  Occ=0.000000D+00  E= 7.056665D-02  Symmetry=a'
              MO Center= -1.2D-01, -8.0D-01,  3.4D-17, r^2= 2.6D+01
   Bfn.  Coefficient  Atom+Function         Bfn.  Coefficient  Atom+Function  
  ----- ------------  ---------------      ----- ------------  ---------------
    90      6.188877  6 H  s                 81     -5.487765  5 H  s          
    99     -4.741771  7 H  s                 57      3.321691  3 C  px         
    72      2.867343  4 H  s                 34     -2.803031  2 C  px         
    58      2.160323  3 C  py                27      2.105138  2 C  s          
    80     -1.183625  5 H  s                 89      1.183045  6 H  s          
 
 Vector   17  Occ=0.000000D+00  E= 1.100546D-01  Symmetry=a"
              MO Center= -9.9D-01,  1.2D-01,  8.1D-16, r^2= 1.1D+01
   Bfn.  Coefficient  Atom+Function         Bfn.  Coefficient  Atom+Function  
  ----- ------------  ---------------      ----- ------------  ---------------
    36      2.604507  2 C  pz                59     -1.638389  3 C  pz         
    13     -0.686948  1 O  pz                56     -0.223506  3 C  pz         
 
 Vector   18  Occ=0.000000D+00  E= 1.199328D-01  Symmetry=a"
              MO Center=  3.1D-01, -1.5D+00, -2.1D-15, r^2= 9.6D+00
   Bfn.  Coefficient  Atom+Function         Bfn.  Coefficient  Atom+Function  
  ----- ------------  ---------------      ----- ------------  ---------------
    59      1.336083  3 C  pz                33     -0.297137  2 C  pz         
    30     -0.214829  2 C  pz                36     -0.170441  2 C  pz         
 
 Vector   19  Occ=0.000000D+00  E= 1.254554D-01  Symmetry=a'
              MO Center=  6.5D-01, -1.2D+00,  3.2D-15, r^2= 1.4D+01
   Bfn.  Coefficient  Atom+Function         Bfn.  Coefficient  Atom+Function  
  ----- ------------  ---------------      ----- ------------  ---------------
    27      4.671655  2 C  s                 58     -2.627321  3 C  py         
    57      2.336082  3 C  px                50     -2.264463  3 C  s          
    34     -2.090462  2 C  px                 4      1.255809  1 O  s          
    26      1.065990  2 C  s                 90     -0.990009  6 H  s          
    98     -0.982837  7 H  s                 80     -0.888692  5 H  s          
 
 Vector   20  Occ=0.000000D+00  E= 1.262322D-01  Symmetry=a'
              MO Center= -1.4D+00,  1.5D+00, -5.0D-17, r^2= 1.5D+01
   Bfn.  Coefficient  Atom+Function         Bfn.  Coefficient  Atom+Function  
  ----- ------------  ---------------      ----- ------------  ---------------
    50     22.874333  3 C  s                 27    -17.935327  2 C  s          
    35     10.510058  2 C  py                58      6.322938  3 C  py         
    34     -5.441996  2 C  px                81     -5.280520  5 H  s          
    90      3.521504  6 H  s                 72     -3.392825  4 H  s          
    57     -3.289102  3 C  px                99      2.382444  7 H  s          
 
 Vector   21  Occ=0.000000D+00  E= 1.552458D-01  Symmetry=a'
              MO Center=  2.9D-01, -5.8D-01, -9.8D-16, r^2= 1.7D+01
   Bfn.  Coefficient  Atom+Function         Bfn.  Coefficient  Atom+Function  
  ----- ------------  ---------------      ----- ------------  ---------------
    27     21.087257  2 C  s                 50    -14.161242  3 C  s          
    34      7.312987  2 C  px                58     -7.317231  3 C  py         
    81      6.610490  5 H  s                  4     -6.121650  1 O  s          
    90     -3.418121  6 H  s                 99     -3.402548  7 H  s          
    72     -2.339602  4 H  s                 35     -1.714056  2 C  py         
 
 Vector   22  Occ=0.000000D+00  E= 1.787967D-01  Symmetry=a'
              MO Center= -1.3D+00, -1.5D+00, -8.9D-16, r^2= 1.2D+01
   Bfn.  Coefficient  Atom+Function         Bfn.  Coefficient  Atom+Function  
  ----- ------------  ---------------      ----- ------------  ---------------
    27     10.598443  2 C  s                 90     -4.595916  6 H  s          
    50     -3.551510  3 C  s                 58     -3.287066  3 C  py         
    89     -3.256534  6 H  s                 35     -3.191964  2 C  py         
    80     -2.659516  5 H  s                 26      1.354344  2 C  s          
    81     -1.278822  5 H  s                 72      1.118194  4 H  s          
 
 Vector   23  Occ=0.000000D+00  E= 1.965040D-01  Symmetry=a'
              MO Center=  1.3D+00, -1.1D+00,  1.8D-15, r^2= 1.4D+01
   Bfn.  Coefficient  Atom+Function         Bfn.  Coefficient  Atom+Function  
  ----- ------------  ---------------      ----- ------------  ---------------
    90      6.407236  6 H  s                 57      6.209026  3 C  px         
    99     -5.985795  7 H  s                 58      5.387659  3 C  py         
    50      5.147032  3 C  s                 98     -4.470805  7 H  s          
    34     -4.007455  2 C  px                27     -3.472286  2 C  s          
    81     -3.229402  5 H  s                 35     -2.857882  2 C  py         
 
 Vector   24  Occ=0.000000D+00  E= 2.043767D-01  Symmetry=a"
              MO Center=  6.9D-02, -3.6D-01,  4.6D-16, r^2= 7.3D+00
   Bfn.  Coefficient  Atom+Function         Bfn.  Coefficient  Atom+Function  
  ----- ------------  ---------------      ----- ------------  ---------------
    59      1.379750  3 C  pz                36     -0.938049  2 C  pz         
    13     -0.619181  1 O  pz                33      0.360486  2 C  pz         
    87      0.338712  5 H  pz                30      0.328384  2 C  pz         
    53     -0.302303  3 C  pz                56     -0.243951  3 C  pz         
    43      0.211454  2 C  d -1              96     -0.203111  6 H  pz         
 
 Vector   25  Occ=0.000000D+00  E= 2.135106D-01  Symmetry=a'
              MO Center= -1.5D-02,  7.3D-01, -4.9D-17, r^2= 1.4D+01
   Bfn.  Coefficient  Atom+Function         Bfn.  Coefficient  Atom+Function  
  ----- ------------  ---------------      ----- ------------  ---------------
    27     25.214004  2 C  s                 50    -22.268223  3 C  s          
    35     -7.365058  2 C  py                57      5.940774  3 C  px         
     4     -3.813408  1 O  s                 89      3.824551  6 H  s          
    99     -3.660453  7 H  s                 32      3.453039  2 C  py         
    55      3.454750  3 C  py                12      3.331158  1 O  py         
 
 Vector   26  Occ=0.000000D+00  E= 2.256858D-01  Symmetry=a'
              MO Center= -5.7D-01, -4.4D-02,  1.5D-16, r^2= 1.3D+01
   Bfn.  Coefficient  Atom+Function         Bfn.  Coefficient  Atom+Function  
  ----- ------------  ---------------      ----- ------------  ---------------
    27     21.231192  2 C  s                 50    -17.052737  3 C  s          
     4     -5.667871  1 O  s                 80     -4.140044  5 H  s          
    58     -2.977915  3 C  py                81     -2.887746  5 H  s          
    57      2.846565  3 C  px                35     -2.684642  2 C  py         
    71      2.389902  4 H  s                 89      2.281586  6 H  s          
 
 Vector   27  Occ=0.000000D+00  E= 2.363950D-01  Symmetry=a'
              MO Center=  4.0D-01,  2.0D-01, -1.5D-16, r^2= 1.2D+01
   Bfn.  Coefficient  Atom+Function         Bfn.  Coefficient  Atom+Function  
  ----- ------------  ---------------      ----- ------------  ---------------
    50     16.235963  3 C  s                 27    -11.063837  2 C  s          
    35      6.134459  2 C  py                 4     -4.304898  1 O  s          
    34     -3.824766  2 C  px                71      3.402976  4 H  s          
    81     -3.144982  5 H  s                 11      2.943505  1 O  px         
    58      2.624704  3 C  py                98     -2.400270  7 H  s          
 
 Vector   28  Occ=0.000000D+00  E= 2.525423D-01  Symmetry=a"
              MO Center=  2.9D-01,  6.8D-01, -1.4D-15, r^2= 8.1D+00
   Bfn.  Coefficient  Atom+Function         Bfn.  Coefficient  Atom+Function  
  ----- ------------  ---------------      ----- ------------  ---------------
    13      2.163728  1 O  pz                36     -2.006732  2 C  pz         
    59      1.083370  3 C  pz                78     -0.323366  4 H  pz         
    45      0.316216  2 C  d  1              10     -0.231883  1 O  pz         
    96     -0.218946  6 H  pz                 7     -0.204624  1 O  pz         
    30      0.175036  2 C  pz                87     -0.172143  5 H  pz         
 
 Vector   29  Occ=0.000000D+00  E= 2.992427D-01  Symmetry=a'
              MO Center= -2.9D-01,  7.5D-01, -1.0D-16, r^2= 1.1D+01
   Bfn.  Coefficient  Atom+Function         Bfn.  Coefficient  Atom+Function  
  ----- ------------  ---------------      ----- ------------  ---------------
    50     26.047094  3 C  s                 27    -21.303064  2 C  s          
    35      9.627092  2 C  py                58      6.247113  3 C  py         
    34     -5.738259  2 C  px                81     -3.777674  5 H  s          
    57     -3.201074  3 C  px                72     -2.757288  4 H  s          
    49      2.597218  3 C  s                 90      2.334057  6 H  s          
 
 Vector   30  Occ=0.000000D+00  E= 3.048859D-01  Symmetry=a'
              MO Center=  1.2D-01, -7.3D-01, -5.9D-16, r^2= 8.0D+00
   Bfn.  Coefficient  Atom+Function         Bfn.  Coefficient  Atom+Function  
  ----- ------------  ---------------      ----- ------------  ---------------
    50    -16.759916  3 C  s                 27     15.550533  2 C  s          
    58     -4.332951  3 C  py                98      3.644402  7 H  s          
    26     -3.118534  2 C  s                 35     -2.841711  2 C  py         
    34      2.815543  2 C  px                80     -2.804671  5 H  s          
    89      2.793241  6 H  s                 55      2.195780  3 C  py         
 
 Vector   31  Occ=0.000000D+00  E= 3.518666D-01  Symmetry=a"
              MO Center= -4.0D-01, -1.9D-01,  1.6D-16, r^2= 7.6D+00
   Bfn.  Coefficient  Atom+Function         Bfn.  Coefficient  Atom+Function  
  ----- ------------  ---------------      ----- ------------  ---------------
    36      1.198106  2 C  pz                96     -0.967297  6 H  pz         
    78     -0.765161  4 H  pz               105      0.682276  7 H  pz         
    59     -0.547487  3 C  pz                87     -0.497519  5 H  pz         
    13     -0.486113  1 O  pz                68      0.402212  3 C  d  1       
    43      0.346184  2 C  d -1              33      0.263451  2 C  pz         
 
 Vector   32  Occ=0.000000D+00  E= 3.656443D-01  Symmetry=a'
              MO Center= -6.0D-01,  2.5D-01,  1.5D-15, r^2= 8.1D+00
   Bfn.  Coefficient  Atom+Function         Bfn.  Coefficient  Atom+Function  
  ----- ------------  ---------------      ----- ------------  ---------------
    34      5.580894  2 C  px                81      4.121276  5 H  s          
    50     -3.315365  3 C  s                 27      3.036120  2 C  s          
    80      3.019301  5 H  s                  4     -2.776937  1 O  s          
    11     -1.865986  1 O  px                72     -1.732122  4 H  s          
    12      1.458117  1 O  py                58     -1.461578  3 C  py         
 
 Vector   33  Occ=0.000000D+00  E= 3.747138D-01  Symmetry=a'
              MO Center= -1.2D-01, -7.2D-01,  9.3D-16, r^2= 8.7D+00
   Bfn.  Coefficient  Atom+Function         Bfn.  Coefficient  Atom+Function  
  ----- ------------  ---------------      ----- ------------  ---------------
    27      4.497126  2 C  s                 58     -4.387903  3 C  py         
    90     -3.769649  6 H  s                  4     -3.384465  1 O  s          
    34      3.383728  2 C  px                57     -3.347843  3 C  px         
    89     -3.111810  6 H  s                 50     -2.343939  3 C  s          
    81      2.310594  5 H  s                 71      2.044210  4 H  s          
 
 Vector   34  Occ=0.000000D+00  E= 3.990942D-01  Symmetry=a"
              MO Center=  9.5D-02, -4.7D-01, -2.2D-16, r^2= 7.6D+00
   Bfn.  Coefficient  Atom+Function         Bfn.  Coefficient  Atom+Function  
  ----- ------------  ---------------      ----- ------------  ---------------
   105      1.335390  7 H  pz                87      1.252556  5 H  pz         
    96     -1.047952  6 H  pz                78      0.739884  4 H  pz         
    45     -0.719029  2 C  d  1              13     -0.656923  1 O  pz         
    68      0.636312  3 C  d  1              66     -0.520442  3 C  d -1       
    33     -0.315253  2 C  pz                10     -0.298804  1 O  pz         
 
 Vector   35  Occ=0.000000D+00  E= 4.063441D-01  Symmetry=a'
              MO Center=  7.2D-02, -4.1D-01, -3.2D-16, r^2= 9.4D+00
   Bfn.  Coefficient  Atom+Function         Bfn.  Coefficient  Atom+Function  
  ----- ------------  ---------------      ----- ------------  ---------------
    27     13.587621  2 C  s                 50    -13.133048  3 C  s          
     4     -5.206929  1 O  s                 98      4.672701  7 H  s          
    49      4.451736  3 C  s                 55      4.451659  3 C  py         
    35     -4.098400  2 C  py                26     -3.738671  2 C  s          
    31     -3.294019  2 C  px                34      3.016654  2 C  px         
 
 Vector   36  Occ=0.000000D+00  E= 4.226127D-01  Symmetry=a'
              MO Center= -2.3D-01, -1.7D-01, -4.6D-16, r^2= 9.4D+00
   Bfn.  Coefficient  Atom+Function         Bfn.  Coefficient  Atom+Function  
  ----- ------------  ---------------      ----- ------------  ---------------
    27     -8.244911  2 C  s                  4      7.653637  1 O  s          
    50      4.834138  3 C  s                 89     -4.696337  6 H  s          
    32     -4.180678  2 C  py                71     -3.650610  4 H  s          
    55     -3.445959  3 C  py                80      2.998738  5 H  s          
    90     -2.398776  6 H  s                 81      2.317677  5 H  s          
 
 Vector   37  Occ=0.000000D+00  E= 4.460794D-01  Symmetry=a'
              MO Center=  2.4D-01, -4.5D-01, -1.2D-16, r^2= 9.1D+00
   Bfn.  Coefficient  Atom+Function         Bfn.  Coefficient  Atom+Function  
  ----- ------------  ---------------      ----- ------------  ---------------
    27     20.711080  2 C  s                 50    -11.635300  3 C  s          
     4    -11.252865  1 O  s                 49      4.832614  3 C  s          
    57      3.811940  3 C  px                71      3.393558  4 H  s          
    58     -3.078878  3 C  py                12      2.950387  1 O  py         
    99     -2.927580  7 H  s                 35     -2.791852  2 C  py         
 
 Vector   38  Occ=0.000000D+00  E= 4.533705D-01  Symmetry=a"
              MO Center= -7.3D-01,  3.6D-01, -4.5D-17, r^2= 6.9D+00
   Bfn.  Coefficient  Atom+Function         Bfn.  Coefficient  Atom+Function  
  ----- ------------  ---------------      ----- ------------  ---------------
    87      1.459885  5 H  pz                78     -1.249316  4 H  pz         
    13      1.148132  1 O  pz                33     -0.765336  2 C  pz         
    56     -0.741049  3 C  pz               105      0.711535  7 H  pz         
    96      0.641565  6 H  pz                36     -0.570735  2 C  pz         
    45     -0.464451  2 C  d  1              59     -0.340076  3 C  pz         
 
 Vector   39  Occ=0.000000D+00  E= 4.978003D-01  Symmetry=a'
              MO Center=  8.8D-02, -9.6D-01,  2.0D-15, r^2= 8.4D+00
   Bfn.  Coefficient  Atom+Function         Bfn.  Coefficient  Atom+Function  
  ----- ------------  ---------------      ----- ------------  ---------------
    89      4.838675  6 H  s                 57      4.576098  3 C  px         
    90      3.807731  6 H  s                 99     -3.584533  7 H  s          
    50     -3.240340  3 C  s                 55      2.955456  3 C  py         
    27      2.849183  2 C  s                 26     -2.760763  2 C  s          
    58      1.945039  3 C  py                54      1.907458  3 C  px         
 
 Vector   40  Occ=0.000000D+00  E= 5.254472D-01  Symmetry=a'
              MO Center= -2.5D-01, -2.2D-02,  8.9D-17, r^2= 7.5D+00
   Bfn.  Coefficient  Atom+Function         Bfn.  Coefficient  Atom+Function  
  ----- ------------  ---------------      ----- ------------  ---------------
    80      8.930609  5 H  s                  4     -4.761270  1 O  s          
    26     -3.888213  2 C  s                 98      3.183120  7 H  s          
    34      3.043989  2 C  px                81      2.788564  5 H  s          
    27     -2.762880  2 C  s                 35      2.771186  2 C  py         
    57     -2.514524  3 C  px                85      2.332720  5 H  px         
 

 center of mass
 --------------
 x =   0.04260836 y =   0.06268001 z =   0.00000000

 moments of inertia (a.u.)
 ------------------
         174.583780016621          -0.000000000000           0.000000000000
          -0.000000000000          27.423607668190           0.000000000000
           0.000000000000           0.000000000000         202.007387684811
 
  Mulliken analysis of the total density
  --------------------------------------

    Atom       Charge   Shell Charges
 -----------   ------   -------------------------------------------------------
    1 O    8     8.69   2.00  0.82  0.99  0.17  2.83  1.75  0.09  0.02  0.02
    2 C    6     5.05   2.01  0.67  0.31 -0.19  1.92  0.18  0.09  0.15 -0.08
    3 C    6     5.69   2.01  0.64  0.44 -0.10  2.00  0.66  0.07  0.05 -0.09
    4 H    1     0.76   0.70 -0.00 -0.01  0.08 -0.00
    5 H    1     1.38   0.78  0.59  0.02  0.03 -0.03
    6 H    1     1.24   0.77  0.47  0.00  0.03 -0.03
    7 H    1     1.19   0.76  0.43  0.02  0.03 -0.04
 
       Multipole analysis of the density wrt the origin
       ------------------------------------------------
 
     L   x y z        total         open         nuclear
     -   - - -        -----         ----         -------
     0   0 0 0     -0.000000      0.000000     24.000000
 
     1   1 0 0     -0.734851      0.000000      0.000000
     1   0 1 0      0.403441      0.000000      0.000000
     1   0 0 1     -0.000000      0.000000      0.000000
 
     2   2 0 0    -12.839867      0.000000     21.210685
     2   1 1 0     -2.195506      0.000000     -3.080405
     2   1 0 1      0.000000      0.000000      0.000000
     2   0 2 0    -11.610129      0.000000    104.393517
     2   0 1 1      0.000000      0.000000      0.000000
     2   0 0 2    -16.069547      0.000000      0.000000
 
                   NWChem MP2 Semi-direct Energy/Gradient Module
                   ---------------------------------------------
 
 
                                 H,H,H Reference 2
 
 

int_init: setting std/high accuracies to  1.0D-16  1.0D-32
  Basis functions       =    105
  Molecular orbitals    =    105
  Frozen core           =      3
  Frozen virtuals       =      0
  Active alpha occupied =      9
  Active beta occupied  =      9
  Active alpha virtual  =     93
  Active beta virtual   =     93
  Use MO symmetry       = T
  Use skeleton AO sym   = T

  AO/Fock/Back tols     =   1.0D-15  1.0D-15  1.0D-15

 GA uses MA = F    GA memory limited = T

 Available: 
  local mem=  2.29D+07
 global mem=  2.62D+07
 local disk=  0.00D+00

int_init: setting std/high accuracies to  1.0D-16  1.0D-32
  mp2_memr nvloc                      9
  nvloc new                      9
   1 passes of   9:        5242880                      55081                   1916069.
   1 passes of   9: M     22933417           G       26208418           F      17690537.
 
 Semi-direct pass number   1 of   1  for RHF alpha+beta  at        7.5s

int_init: setting std/high accuracies to  1.0D-16  1.0D-32
  vrange nnbf                   5565
  mp2_eaftype                     10  avail_ma_in_mb                    199
 EAF : mp2_eaftype filesize          10     775764.
  mp2_eaf for mointskh                      10
Node 0 wrote      3.6 Mb in      0.0 s     Agg I/O rate:  4717.0 Mb/s
 Done moints_semi at        8.3s
  mp2_eaftype                     10  avail_ma_in_mb                    189
 EAF : mp2_eaftype filesize          10     775764.
  mp2_eaf for kh                     10
  mp2_eaftype                     10  avail_ma_in_mb                    189
 EAF : mp2_eaftype filesize          10     135594.
  mp2_eaf for ta tb                     10
  mp2_eaf for ta                      10
  mp2_eaf for tb                      10
 Done maket at        8.3s
 Done pijab at        8.3s
 Done wijab at        8.3s
 Done lai at        8.4s

int_init: setting std/high accuracies to  1.0D-16  1.0D-32
  mp2_eaftype                     10  avail_ma_in_mb                    169
 EAF : mp2_eaftype filesize          10     843412.
  mp2_eaf for 2pdm                      10
 Done nonsep at       11.0s
 Done multipass loop at       11.0s


          -------------------------------------------
          SCF energy                -152.910551530520
          Correlation energy          -0.483347455382
          Singlet pairs               -0.302941992089
          Triplet pairs               -0.180405463293
          Total MP2 energy          -153.393898985903
          -------------------------------------------



          ---------------------------------------------------
                    Spin Component Scaled (SCS) MP2
          Same spin pairs                     -0.120270308862
          Same spin scaling factor             0.333333333333
          Opposite spin pairs                 -0.363077146520
          Opposite spin scaling fact.          1.200000000000
          SCS-MP2 correlation energy          -0.475782678778
          Total SCS-MP2 energy              -153.386334209299
          ---------------------------------------------------


int_init: setting std/high accuracies to  1.0D-16  1.0D-32
                                NWChem CPHF Module
                                ------------------
 
 

int_init: setting std/high accuracies to  1.0D-16  1.0D-32
    scftype = RHF 
    nclosed =   12
      nopen =    0
  variables =     1116
  tolerance =   1.0D-06
  max. iter =  999

 Warning: symmetry breaking in RHF:   1.003517388886866E-014
 SCF residual:   6.653026231357307E-011

            ----- linear solve (tol: 1.0E-06 prod-acc: 3.7E-14) -----

               iter nbas    rnorm     rnorm-scal   ratio     time
               ---- ---- ----------- ----------- --------- -------
                  1    1  3.9283E-02  3.1840E-01    0.0000    11.3
                  2    2  1.0569E-02  8.5669E-02    0.2691    11.6
                  3    3  3.0024E-03  2.4335E-02    0.2841    11.8
                  4    4  1.0182E-03  8.2532E-03    0.3391    12.1
                  5    5  2.7392E-04  2.2202E-03    0.2690    12.4
                  6    6  8.1984E-05  6.6451E-04    0.2993    12.6
                  7    7  2.1452E-05  1.7388E-04    0.2617    12.9
                  8    8  5.3563E-06  4.3414E-05    0.2497    13.1
                  9    9  1.1761E-06  9.5325E-06    0.2196    13.4
                 10   10  2.8600E-07  2.3181E-06    0.2432    13.6
                 11   11  8.2801E-08  6.7113E-07    0.2895    13.9

 CPHF converged to   6.7D-07 in   11 iters


int_init: setting std/high accuracies to  1.0D-16  1.0D-32
                Dipole Moments (a.u.)
                --------------
         Nuclear       SCF       SCF+MP2
       ----------- ----------- -----------
 X       0.000000   -0.734851   -0.669592
 Y       0.000000    0.403441    0.404965
 Z       0.000000   -0.000000    0.000000
 

 MP2 RHF      natural orbital occupation numbers


              1      
    1    2.0000
    2    2.0000
    3    2.0000
    4    1.9863
    5    1.9807
    6    1.9730
    7    1.9674
    8    1.9662
    9    1.9644
   10    1.9617
   11    1.9575
   12    1.9327
   13    0.0508
   14    0.0288
   15    0.0254
   16    0.0207
   17    0.0169
   18    0.0166
   19    0.0157
   20    0.0148
   21    0.0124
   22    0.0113
   23    0.0092
   24    0.0087
   25    0.0081
   26    0.0079
   27    0.0064
   28    0.0059
   29    0.0057
   30    0.0056
   31    0.0048
   32    0.0037
   33    0.0029
   34    0.0027
   35    0.0026
   36    0.0020
   37    0.0016
   38    0.0015
   39    0.0015
   40    0.0014
   41    0.0012
   42    0.0011
   43    0.0009
   44    0.0008
   45    0.0008
   46    0.0008
   47    0.0007
   48    0.0006
   49    0.0006
   50    0.0006
   51    0.0006
   52    0.0005
   53    0.0005
   54    0.0005
   55    0.0004
   56    0.0004
   57    0.0004
   58    0.0003
   59    0.0003
   60    0.0003
   61    0.0003
   62    0.0002
   63    0.0002
   64    0.0002
   65    0.0002
   66    0.0002
   67    0.0001
   68    0.0001
   69    0.0001
   70    0.0001
   71    0.0001
   72    0.0001
   73    0.0001
   74    0.0001
   75    0.0001
   76    0.0001
   77    0.0000
   78    0.0000
   79    0.0000
   80    0.0000
   81    0.0000
   82    0.0000
   83    0.0000
   84    0.0000
   85    0.0000
   86    0.0000
   87    0.0000
   88    0.0000
   89    0.0000
   90    0.0000
   91    0.0000
   92    0.0000
   93    0.0000
   94    0.0000
   95    0.0000
   96    0.0000
   97    0.0000
   98    0.0000
   99    0.0000
  100   -0.0000
  101   -0.0000
  102   -0.0000
  103   -0.0000
  104   -0.0001
  105   -0.0003
 
  MP2 natural orbitals output to ./1R2.mp2nos
 

int_init: setting std/high accuracies to  1.0D-16  1.0D-32
  Using symmetry

int_init: setting std/high accuracies to  1.0D-16  1.0D-32


                         mp2 ENERGY GRADIENTS

    atom               coordinates                        gradient
                 x          y          z           x          y          z
   1 O       0.499325   2.145356   0.000000   -0.001368  -0.052888   0.000000
   2 C      -0.738873  -0.039644   0.000000    0.014430   0.049063   0.000000
   3 C       0.388646  -2.355441   0.000000   -0.006307  -0.027637   0.000000
   4 H      -0.830300   3.472171   0.000000   -0.024561   0.012904   0.000000
   5 H      -2.775885   0.193863   0.000000    0.009852   0.007186   0.000000
   6 H      -0.751661  -4.043510   0.000000    0.003251   0.006371   0.000000
   7 H       2.464605  -2.414857   0.000000    0.004703   0.005002   0.000000
 
                 ----------------------------------------
                 |  Time  |  1-e(secs)   |  2-e(secs)   |
                 ----------------------------------------
                 |  CPU   |       0.00   |       1.19   |
                 ----------------------------------------
                 |  WALL  |       0.00   |       1.19   |
                 ----------------------------------------
 -----------------------
 Performance information
 -----------------------

 Timer overhead =  1.00D-07 seconds/call

               Nr. of calls         CPU time (s)                 Wall time (s)                GFlops
             ---------------    -------------------     ------------------------------   -------------------
Name         Min   Avg   Max    Min     Avg     Max     Min     Avg     Max   Mx/calls   Min     Max     Sum
mp2: moin     1     1     1   0.67    0.68    0.69     0.73    0.73    0.73    0.73      0.0     0.0     0.0   
mp2: make     1     1     1   2.50E-2 2.65E-2 2.80E-2  2.79E-2 2.82E-2 2.84E-2 2.84E-2   0.0     0.0     0.0   
mp2: pija     1     1     1   3.00E-3 3.54E-3 4.00E-3  3.50E-3 3.51E-3 3.64E-3 3.64E-3   0.0     0.0     0.0   
mp2: wija     1     1     1   3.00E-3 3.64E-3 4.00E-3  3.75E-3 3.82E-3 3.83E-3 3.83E-3   0.0     0.0     0.0   
mp2: lai      1     1     1   7.70E-2 7.95E-2 8.10E-2  8.01E-2 8.02E-2 8.02E-2 8.02E-2   0.0     0.0     0.0   
mp2: back     1     1     1   5.00E-2 5.20E-2 5.30E-2  5.28E-2 5.28E-2 5.28E-2 5.28E-2   0.0     0.0     0.0   
mp2: nons     1     1     1    2.1     2.3     2.5      2.1     2.3     2.5     2.5      0.0     0.0     0.0   
mp2: laif     1     1     1   0.28    0.28    0.29     0.29    0.29    0.29    0.29      0.0     0.0     0.0   
mp2: cphf     1     1     1    3.1     3.1     3.2      3.2     3.2     3.2     3.2      0.0     0.0     0.0   
mp2: wijf     1     1     1   0.28    0.28    0.28     0.28    0.28    0.28    0.28      0.0     0.0     0.0   
mp2: sep      1     1     1    1.2     1.2     1.2      1.2     1.2     1.2     1.2      0.0     0.0     0.0   
mp2: tota     1     1     1    8.3     8.4     8.4      8.5     8.5     8.5     8.5      0.0     0.0     0.0   

 The average no. of pstat calls per process was 1.20D+01
 with a timing overhead of 1.20D-06s


@ Step       Energy      Delta E   Gmax     Grms     Xrms     Xmax   Walltime
@ ---- ---------------- -------- -------- -------- -------- -------- --------
@    0    -153.39389899  0.0D+00  0.04757  0.01565  0.00000  0.00000     16.0
                                                                    



                                Z-matrix (user)
                                -------- 

 Units are Angstrom for bonds and degrees for angles

  Constants are marked with an asterisk (*).

  Constrained variables are marked with a plus sign (+).

 
      Type          Name      I     J     K     L     M      Value     Gradient
      ----------- --------  ----- ----- ----- ----- ----- ---------- ----------
    1 Stretch      R1          2     1                       1.32900   -0.04757
    2 Stretch      R2          3     2                       1.36300    0.01534
    3 Bend         A1          3     2     1               124.50000    0.01195
    4 Stretch      R5          4     1                       0.99400    0.02650
    5 Bend         A4          4     1     2               105.40000   -0.00817
    6*Torsion      D180        4     1     2     3         180.00000    0.00000
    7 Stretch      R6          5     2                       1.08500   -0.00897
    8 Bend         A5          5     2     3               122.50000    0.00896
    9*Torsion      D180        5     2     3     4         180.00000   -0.00000
   10 Stretch      R7          6     3                       1.07800   -0.00710
   11 Bend         A6          6     3     2               120.00000   -0.00094
   12*Torsion      D180        6     3     2     1         180.00000   -0.00000
   13 Stretch      R8          7     3                       1.09900    0.00456
   14 Bend         A7          7     3     2               117.60000   -0.00564
   15*Torsion      D0          7     3     2     1           0.00000   -0.00000
 
                                 NWChem SCF Module
                                 -----------------
 
 
                                 H,H,H Reference 2
 
 

  ao basis        = "ao basis"
  functions       =   105
  atoms           =     7
  closed shells   =    12
  open shells     =     0
  charge          =   0.00
  wavefunction    = RHF 
  input vectors   = ./1R2.movecs
  output vectors  = ./1R2.movecs
  use symmetry    = T
  symmetry adapt  = T


 Summary of "ao basis" -> "ao basis" (spherical)
 ------------------------------------------------------------------------------
       Tag                 Description            Shells   Functions and Types
 ---------------- ------------------------------  ------  ---------------------
 O                        aug-cc-pVDZ                9       23   4s3p2d
 C                        aug-cc-pVDZ                9       23   4s3p2d
 H                        aug-cc-pVDZ                5        9   3s2p


      Symmetry analysis of basis
      --------------------------
 
        a'         76
        a"         29
 

int_init: setting std/high accuracies to  1.0D-16  1.0D-32

 Forming initial guess at      16.1s


 Forcing the number of linearly dependent vectors to be  0

 Loading old vectors from job with title :

H,H,H Reference 2

 
      Symmetry analysis of molecular orbitals - initial
      -------------------------------------------------
 
  Numbering of irreducible representations: 
 
     1 a'          2 a"      
 
  Orbital symmetries:
 
     1 a'          2 a'          3 a'          4 a'          5 a'      
     6 a'          7 a'          8 a'          9 a"         10 a'      
    11 a'         12 a"         13 a'         14 a'         15 a'      
    16 a'         17 a"         18 a"         19 a'         20 a'      
    21 a'         22 a'      
 

 Starting SCF solution at      16.1s



 ----------------------------------------------
         Quadratically convergent ROHF

 Convergence threshold     :          1.000E-09
 Maximum no. of iterations :           99
 Final Fock-matrix accuracy:          1.000E-15
 ----------------------------------------------

 Warning: symmetry breaking in RHF:   1.014511553235210E-014

              iter       energy          gnorm     gmax       time
             ----- ------------------- --------- --------- --------
                 1     -152.9025861454  3.79D-01  8.18D-02     15.7
 Warning: symmetry breaking in RHF:   1.033158880283499E-014
                 2     -152.9136341711  2.14D-02  4.24D-03     16.5
 Warning: symmetry breaking in RHF:   1.032206975619573E-014
                 3     -152.9136969368  3.07D-04  6.63D-05     17.8
 Warning: symmetry breaking in RHF:   1.032099394049491E-014
                 4     -152.9136969528  8.10D-08  1.42D-08     19.8
 Warning: symmetry breaking in RHF:   1.032099399858042E-014
                 5     -152.9136969528  5.85D-11  1.61D-11     21.6


       Final RHF  results 
       ------------------ 

         Total SCF energy =   -152.913696952774
      One-electron energy =   -345.570790879128
      Two-electron energy =    123.071049923453
 Nuclear repulsion energy =     69.586044002902

        Time for solution =      6.1s


 
       Symmetry analysis of molecular orbitals - final
       -----------------------------------------------
 
  Numbering of irreducible representations: 
 
     1 a'          2 a"      
 
  Orbital symmetries:
 
     1 a'          2 a'          3 a'          4 a'          5 a'      
     6 a'          7 a'          8 a'          9 a"         10 a'      
    11 a'         12 a"         13 a'         14 a'         15 a'      
    16 a'         17 a"         18 a"         19 a'         20 a'      
    21 a'         22 a'      
 
             Final eigenvalues
             -----------------

              1      
    1  -20.6014
    2  -11.3084
    3  -11.2240
    4   -1.4003
    5   -1.0229
    6   -0.7930
    7   -0.7401
    8   -0.6148
    9   -0.5731
   10   -0.5700
   11   -0.5224
   12   -0.3440
   13    0.0323
   14    0.0485
   15    0.0536
   16    0.0701
   17    0.1098
   18    0.1182
   19    0.1257
   20    0.1305
   21    0.1550
   22    0.1773
 
                       ROHF Final Molecular Orbital Analysis
                       -------------------------------------
 
 Vector    3  Occ=2.000000D+00  E=-1.122400D+01  Symmetry=a'
              MO Center=  1.9D-01, -1.2D+00, -3.8D-19, r^2= 2.8D-02
   Bfn.  Coefficient  Atom+Function         Bfn.  Coefficient  Atom+Function  
  ----- ------------  ---------------      ----- ------------  ---------------
    47      1.003589  3 C  s          
 
 Vector    4  Occ=2.000000D+00  E=-1.400297D+00  Symmetry=a'
              MO Center=  9.7D-02,  1.1D+00,  5.8D-36, r^2= 5.8D-01
   Bfn.  Coefficient  Atom+Function         Bfn.  Coefficient  Atom+Function  
  ----- ------------  ---------------      ----- ------------  ---------------
     3      0.468843  1 O  s                  2      0.421138  1 O  s          
    70      0.203258  4 H  s          
 
 Vector    5  Occ=2.000000D+00  E=-1.022900D+00  Symmetry=a'
              MO Center= -1.1D-01, -5.1D-01, -4.5D-18, r^2= 1.4D+00
   Bfn.  Coefficient  Atom+Function         Bfn.  Coefficient  Atom+Function  
  ----- ------------  ---------------      ----- ------------  ---------------
    48      0.296998  3 C  s                 25      0.281619  2 C  s          
    49      0.189533  3 C  s          
 
 Vector    6  Occ=2.000000D+00  E=-7.929507D-01  Symmetry=a'
              MO Center= -2.3D-02, -2.2D-01,  1.2D-31, r^2= 2.6D+00
   Bfn.  Coefficient  Atom+Function         Bfn.  Coefficient  Atom+Function  
  ----- ------------  ---------------      ----- ------------  ---------------
    26      0.341899  2 C  s                 27     -0.323492  2 C  s          
    49     -0.311712  3 C  s                 50      0.310868  3 C  s          
     6     -0.280490  1 O  py                48     -0.224713  3 C  s          
    25      0.216418  2 C  s                 88     -0.185463  6 H  s          
    70     -0.181313  4 H  s                 97     -0.179119  7 H  s          
 
 Vector    7  Occ=2.000000D+00  E=-7.400522D-01  Symmetry=a'
              MO Center= -2.9D-01,  4.9D-01, -2.4D-16, r^2= 1.8D+00
   Bfn.  Coefficient  Atom+Function         Bfn.  Coefficient  Atom+Function  
  ----- ------------  ---------------      ----- ------------  ---------------
     6      0.317557  1 O  py                28     -0.285377  2 C  px         
    70      0.276953  4 H  s                 79      0.252811  5 H  s          
    80      0.212721  5 H  s                  5     -0.195071  1 O  px         
     3     -0.161315  1 O  s          
 
 Vector    8  Occ=2.000000D+00  E=-6.148244D-01  Symmetry=a'
              MO Center=  2.4D-01, -1.1D-01, -7.9D-17, r^2= 2.2D+00
   Bfn.  Coefficient  Atom+Function         Bfn.  Coefficient  Atom+Function  
  ----- ------------  ---------------      ----- ------------  ---------------
     5      0.340720  1 O  px                29     -0.332910  2 C  py         
    52      0.251045  3 C  py                 8      0.235651  1 O  px         
    51     -0.209943  3 C  px                97     -0.207384  7 H  s          
     6      0.160432  1 O  py         
 
 Vector    9  Occ=2.000000D+00  E=-5.730840D-01  Symmetry=a"
              MO Center=  1.5D-01,  9.1D-01,  1.6D-16, r^2= 1.0D+00
   Bfn.  Coefficient  Atom+Function         Bfn.  Coefficient  Atom+Function  
  ----- ------------  ---------------      ----- ------------  ---------------
     7      0.562564  1 O  pz                10      0.412800  1 O  pz         
    30      0.210890  2 C  pz         
 
 Vector   10  Occ=2.000000D+00  E=-5.700385D-01  Symmetry=a'
              MO Center=  6.0D-02, -7.3D-01,  3.3D-17, r^2= 2.5D+00
   Bfn.  Coefficient  Atom+Function         Bfn.  Coefficient  Atom+Function  
  ----- ------------  ---------------      ----- ------------  ---------------
    88     -0.326917  6 H  s                 52      0.322760  3 C  py         
    89     -0.295292  6 H  s                  5     -0.239961  1 O  px         
    70      0.198459  4 H  s                 51      0.194260  3 C  px         
     3     -0.169006  1 O  s                 97      0.169268  7 H  s          
     8     -0.157738  1 O  px                98      0.155278  7 H  s          
 
 Vector   11  Occ=2.000000D+00  E=-5.223532D-01  Symmetry=a'
              MO Center= -3.5D-02, -2.6D-01,  6.4D-18, r^2= 2.6D+00
   Bfn.  Coefficient  Atom+Function         Bfn.  Coefficient  Atom+Function  
  ----- ------------  ---------------      ----- ------------  ---------------
    80      0.315535  5 H  s                  5      0.305826  1 O  px         
    51      0.293478  3 C  px                28     -0.282240  2 C  px         
    79      0.279454  5 H  s                 98      0.274747  7 H  s          
    97      0.263022  7 H  s                 89     -0.241045  6 H  s          
     8      0.205631  1 O  px         
 
 Vector   12  Occ=2.000000D+00  E=-3.440349D-01  Symmetry=a"
              MO Center= -4.7D-02, -5.0D-01,  3.7D-16, r^2= 1.9D+00
   Bfn.  Coefficient  Atom+Function         Bfn.  Coefficient  Atom+Function  
  ----- ------------  ---------------      ----- ------------  ---------------
    53      0.394101  3 C  pz                30      0.331985  2 C  pz         
    56      0.282175  3 C  pz                 7     -0.273577  1 O  pz         
    33      0.234149  2 C  pz                10     -0.219744  1 O  pz         
 
 Vector   13  Occ=0.000000D+00  E= 3.234476D-02  Symmetry=a'
              MO Center= -1.8D+00,  1.7D+00,  4.8D-17, r^2= 1.4D+01
   Bfn.  Coefficient  Atom+Function         Bfn.  Coefficient  Atom+Function  
  ----- ------------  ---------------      ----- ------------  ---------------
    50      2.630283  3 C  s                 81     -2.078014  5 H  s          
    72     -1.763676  4 H  s                 35      1.356996  2 C  py         
    34     -0.812763  2 C  px                27      0.726656  2 C  s          
    80     -0.704353  5 H  s                 49      0.645248  3 C  s          
     4     -0.555956  1 O  s                 12      0.544284  1 O  py         
 
 Vector   14  Occ=0.000000D+00  E= 4.847463D-02  Symmetry=a'
              MO Center= -1.1D+00, -1.7D+00,  4.2D-16, r^2= 2.0D+01
   Bfn.  Coefficient  Atom+Function         Bfn.  Coefficient  Atom+Function  
  ----- ------------  ---------------      ----- ------------  ---------------
    90      3.616393  6 H  s                 72     -1.665312  4 H  s          
    58      1.430081  3 C  py                50     -1.230799  3 C  s          
    89      1.070183  6 H  s                 27     -1.024755  2 C  s          
    55      0.632459  3 C  py                35      0.559592  2 C  py         
    57      0.559120  3 C  px                12      0.509317  1 O  py         
 
 Vector   15  Occ=0.000000D+00  E= 5.355404D-02  Symmetry=a'
              MO Center=  8.9D-01, -6.5D-01, -2.6D-18, r^2= 2.2D+01
   Bfn.  Coefficient  Atom+Function         Bfn.  Coefficient  Atom+Function  
  ----- ------------  ---------------      ----- ------------  ---------------
    81      3.743725  5 H  s                 99     -3.413122  7 H  s          
    34      1.491056  2 C  px                72     -1.280097  4 H  s          
    57      1.251910  3 C  px                27      0.869457  2 C  s          
    98     -0.736347  7 H  s                 58     -0.705085  3 C  py         
    80      0.614624  5 H  s                 49      0.450768  3 C  s          
 
 Vector   16  Occ=0.000000D+00  E= 7.005086D-02  Symmetry=a'
              MO Center=  1.3D-01, -9.3D-01,  4.0D-17, r^2= 2.6D+01
   Bfn.  Coefficient  Atom+Function         Bfn.  Coefficient  Atom+Function  
  ----- ------------  ---------------      ----- ------------  ---------------
    90      6.348092  6 H  s                 99     -5.174273  7 H  s          
    81     -4.905749  5 H  s                 57      3.453419  3 C  px         
    34     -2.762164  2 C  px                72      2.546276  4 H  s          
    58      2.321203  3 C  py                27      2.006483  2 C  s          
    35     -1.526546  2 C  py                89      1.250557  6 H  s          
 
 Vector   17  Occ=0.000000D+00  E= 1.097544D-01  Symmetry=a"
              MO Center= -8.1D-01, -1.3D-01, -3.8D-17, r^2= 1.1D+01
   Bfn.  Coefficient  Atom+Function         Bfn.  Coefficient  Atom+Function  
  ----- ------------  ---------------      ----- ------------  ---------------
    36      2.505400  2 C  pz                59     -1.799926  3 C  pz         
    13     -0.601825  1 O  pz                56     -0.233710  3 C  pz         
    33      0.169377  2 C  pz         
 
 Vector   18  Occ=0.000000D+00  E= 1.181725D-01  Symmetry=a"
              MO Center=  5.6D-02, -1.2D+00, -2.4D-15, r^2= 1.0D+01
   Bfn.  Coefficient  Atom+Function         Bfn.  Coefficient  Atom+Function  
  ----- ------------  ---------------      ----- ------------  ---------------
    59      1.011080  3 C  pz                36      0.326871  2 C  pz         
    33     -0.253187  2 C  pz                13     -0.223144  1 O  pz         
    30     -0.192345  2 C  pz         
 
 Vector   19  Occ=0.000000D+00  E= 1.257309D-01  Symmetry=a'
              MO Center= -6.0D-01,  5.8D-02,  2.5D-15, r^2= 1.5D+01
   Bfn.  Coefficient  Atom+Function         Bfn.  Coefficient  Atom+Function  
  ----- ------------  ---------------      ----- ------------  ---------------
    50      8.497210  3 C  s                 35      4.544023  2 C  py         
    27     -4.341137  2 C  s                 34     -3.886096  2 C  px         
    81     -2.781406  5 H  s                 98     -1.247227  7 H  s          
    72     -1.161516  4 H  s                 26      0.893153  2 C  s          
    12     -0.825218  1 O  py                55     -0.697524  3 C  py         
 
 Vector   20  Occ=0.000000D+00  E= 1.304718D-01  Symmetry=a'
              MO Center= -2.5D-01,  1.6D-01,  1.2D-15, r^2= 2.0D+01
   Bfn.  Coefficient  Atom+Function         Bfn.  Coefficient  Atom+Function  
  ----- ------------  ---------------      ----- ------------  ---------------
    50     20.237693  3 C  s                 27    -17.688378  2 C  s          
    35      8.619225  2 C  py                58      6.614502  3 C  py         
    57     -4.473715  3 C  px                81     -4.047980  5 H  s          
    90      3.602087  6 H  s                 34     -3.499758  2 C  px         
    72     -3.136352  4 H  s                 99      2.578629  7 H  s          
 
 Vector   21  Occ=0.000000D+00  E= 1.550155D-01  Symmetry=a'
              MO Center=  1.0D-01, -5.5D-01, -1.5D-15, r^2= 1.7D+01
   Bfn.  Coefficient  Atom+Function         Bfn.  Coefficient  Atom+Function  
  ----- ------------  ---------------      ----- ------------  ---------------
    27     20.666860  2 C  s                 50    -14.370570  3 C  s          
    34      7.768558  2 C  px                58     -7.202035  3 C  py         
    81      6.703047  5 H  s                  4     -5.996584  1 O  s          
    99     -3.484197  7 H  s                 90     -3.408816  6 H  s          
    72     -1.970261  4 H  s                 57      1.929603  3 C  px         
 
 Vector   22  Occ=0.000000D+00  E= 1.772733D-01  Symmetry=a'
              MO Center= -1.3D+00, -1.6D+00, -1.5D-15, r^2= 1.2D+01
   Bfn.  Coefficient  Atom+Function         Bfn.  Coefficient  Atom+Function  
  ----- ------------  ---------------      ----- ------------  ---------------
    27     11.220507  2 C  s                 90     -4.594583  6 H  s          
    50     -3.537742  3 C  s                 58     -3.548681  3 C  py         
    89     -3.051689  6 H  s                 35     -2.701011  2 C  py         
    80     -2.687850  5 H  s                 26      1.180239  2 C  s          
    81     -1.146495  5 H  s                 99      0.933190  7 H  s          
 
 Vector   23  Occ=0.000000D+00  E= 1.988152D-01  Symmetry=a'
              MO Center=  1.2D+00, -1.3D+00,  1.4D-15, r^2= 1.4D+01
   Bfn.  Coefficient  Atom+Function         Bfn.  Coefficient  Atom+Function  
  ----- ------------  ---------------      ----- ------------  ---------------
    57      7.136220  3 C  px                90      6.960927  6 H  s          
    99     -6.731269  7 H  s                 58      5.559065  3 C  py         
    34     -4.754525  2 C  px                98     -4.048192  7 H  s          
    35     -3.849726  2 C  py                81     -3.707557  5 H  s          
    50      3.531054  3 C  s                  4      2.023975  1 O  s          
 
 Vector   24  Occ=0.000000D+00  E= 2.045010D-01  Symmetry=a"
              MO Center=  3.6D-02, -4.0D-01,  1.5D-16, r^2= 7.4D+00
   Bfn.  Coefficient  Atom+Function         Bfn.  Coefficient  Atom+Function  
  ----- ------------  ---------------      ----- ------------  ---------------
    59      1.481295  3 C  pz                36     -1.088129  2 C  pz         
    13     -0.562169  1 O  pz                87      0.346496  5 H  pz         
    33      0.336392  2 C  pz                30      0.322736  2 C  pz         
    53     -0.306607  3 C  pz                56     -0.238208  3 C  pz         
    43      0.228199  2 C  d -1              96     -0.206508  6 H  pz         
 
 Vector   25  Occ=0.000000D+00  E= 2.083393D-01  Symmetry=a'
              MO Center= -5.1D-02,  1.1D+00,  2.1D-16, r^2= 1.3D+01
   Bfn.  Coefficient  Atom+Function         Bfn.  Coefficient  Atom+Function  
  ----- ------------  ---------------      ----- ------------  ---------------
    27     22.135468  2 C  s                 50    -20.600947  3 C  s          
    35     -5.916035  2 C  py                57      4.737304  3 C  px         
    98      3.590709  7 H  s                 89      3.466802  6 H  s          
    12      3.159384  1 O  py                55      3.015466  3 C  py         
    58     -2.995548  3 C  py                32      2.965618  2 C  py         
 
 Vector   26  Occ=0.000000D+00  E= 2.243234D-01  Symmetry=a'
              MO Center= -5.2D-01,  9.7D-02,  2.0D-17, r^2= 1.4D+01
   Bfn.  Coefficient  Atom+Function         Bfn.  Coefficient  Atom+Function  
  ----- ------------  ---------------      ----- ------------  ---------------
    27     25.277753  2 C  s                 50    -20.584433  3 C  s          
     4     -6.867858  1 O  s                 80     -4.105239  5 H  s          
    58     -3.999800  3 C  py                35     -3.473537  2 C  py         
    57      3.470981  3 C  px                71      2.985462  4 H  s          
    89      2.698054  6 H  s                 81     -2.046424  5 H  s          
 
 Vector   27  Occ=0.000000D+00  E= 2.366139D-01  Symmetry=a'
              MO Center=  5.8D-01,  4.4D-02, -4.0D-16, r^2= 1.1D+01
   Bfn.  Coefficient  Atom+Function         Bfn.  Coefficient  Atom+Function  
  ----- ------------  ---------------      ----- ------------  ---------------
    50     13.991119  3 C  s                 27     -9.579631  2 C  s          
    35      5.242638  2 C  py                 4     -4.082089  1 O  s          
    34     -2.847331  2 C  px                71      2.830612  4 H  s          
    11      2.802204  1 O  px                81     -2.031834  5 H  s          
    58      1.960748  3 C  py                49      1.840060  3 C  s          
 
 Vector   28  Occ=0.000000D+00  E= 2.483397D-01  Symmetry=a"
              MO Center=  3.2D-01,  6.9D-01,  6.3D-16, r^2= 8.1D+00
   Bfn.  Coefficient  Atom+Function         Bfn.  Coefficient  Atom+Function  
  ----- ------------  ---------------      ----- ------------  ---------------
    13      2.092151  1 O  pz                36     -1.837095  2 C  pz         
    59      0.986064  3 C  pz                45      0.351595  2 C  d  1       
    78     -0.344886  4 H  pz                87     -0.228010  5 H  pz         
    96     -0.228171  6 H  pz                10     -0.214492  1 O  pz         
     7     -0.196839  1 O  pz                30      0.167569  2 C  pz         
 
 Vector   29  Occ=0.000000D+00  E= 3.061426D-01  Symmetry=a'
              MO Center=  1.8D-01, -6.1D-01, -8.4D-16, r^2= 9.1D+00
   Bfn.  Coefficient  Atom+Function         Bfn.  Coefficient  Atom+Function  
  ----- ------------  ---------------      ----- ------------  ---------------
    50     24.407474  3 C  s                 27    -21.887104  2 C  s          
    58      6.179389  3 C  py                35      5.328938  2 C  py         
    34     -5.037299  2 C  px                89     -3.235772  6 H  s          
    81     -3.170220  5 H  s                 98     -2.874218  7 H  s          
    26      2.383653  2 C  s                 80      2.283902  5 H  s          
 
 Vector   30  Occ=0.000000D+00  E= 3.156518D-01  Symmetry=a'
              MO Center= -2.7D-01,  3.1D-01, -1.2D-16, r^2= 9.6D+00
[...]
   13   -3.03416D+00 -1.12670D+00  0.00000D+00 -9.82791D+01  8.12641D+00  0.00000D+00 -2.68334D+00 -1.20928D+00  0.00000D+00  5.61990D-01
   14   -8.78735D+00 -2.23934D+00  0.00000D+00  8.56101D+00 -1.71132D+01  0.00000D+00  8.03397D+00  7.94410D-01  0.00000D+00 -2.56216D+00
   15    0.00000D+00  0.00000D+00  1.31189D+00  0.00000D+00  0.00000D+00 -1.08486D+01  0.00000D+00  0.00000D+00  1.55584D+00  0.00000D+00
   16   -1.82190D-01  9.28136D-01  0.00000D+00  2.17346D+00  4.35871D+00  0.00000D+00 -4.18231D+01 -4.16314D+01  0.00000D+00  4.61068D-01
   17    1.28153D+00 -7.83281D-01  0.00000D+00 -6.03529D+00 -4.41268D+00  0.00000D+00 -3.93504D+01 -7.76862D+01  0.00000D+00 -9.98938D-01
   18    0.00000D+00  0.00000D+00  2.18786D+00  0.00000D+00  0.00000D+00 -1.18177D+00  0.00000D+00  0.00000D+00 -6.48880D+00  0.00000D+00
   19    2.22310D-01 -1.22105D-01  0.00000D+00 -3.31291D+00 -1.53941D+00  0.00000D+00 -1.02192D+02  5.09689D+00  0.00000D+00  3.57731D-01
   20   -3.72959D-01  6.57331D-01  0.00000D+00  8.51634D+00  7.85897D-01  0.00000D+00  3.45174D+00 -1.61940D+01  0.00000D+00 -1.56679D-01
   21    0.00000D+00  0.00000D+00 -1.66246D+00  0.00000D+00  0.00000D+00  1.88311D+00  0.00000D+00  0.00000D+00 -8.65773D+00  0.00000D+00


              11           12           13           14           15           16           17           18           19           20
   ----- ----- ----- ----- -----
   11    3.32403D+02
   12    0.00000D+00  3.10586D+00
   13    1.41992D-01  0.00000D+00  3.58382D+02
   14    3.00233D+00  0.00000D+00 -2.18361D+01  6.57679D+01
   15    0.00000D+00 -8.75887D-02  0.00000D+00  0.00000D+00  2.21546D+01
   16    8.80910D-01  0.00000D+00  8.91849D-01 -2.13907D-01  0.00000D+00  1.43510D+02
   17   -9.36481D-01  0.00000D+00  1.55559D-01  8.80345D-01  0.00000D+00  1.47356D+02  2.80979D+02
   18    0.00000D+00  2.80710D+00  0.00000D+00  0.00000D+00 -5.31430D+00  0.00000D+00  0.00000D+00  1.95058D+01
   19   -4.29341D-01  0.00000D+00  6.35733D-01  2.35619D+00  0.00000D+00 -7.32137D+00  4.99083D+00  0.00000D+00  3.69502D+02
   20    5.73386D-01  0.00000D+00  2.15863D+00 -4.41948D+00  0.00000D+00 -2.31067D+01  5.49077D+00  0.00000D+00 -1.87068D+01  4.89043D+01
   21    0.00000D+00 -9.13090D-01  0.00000D+00  0.00000D+00  1.00869D+01  0.00000D+00  0.00000D+00  7.53714D-01  0.00000D+00  0.00000D+00


              21
   ----- ----- ----- ----- -----
   21    2.00721D+01

 center of mass
 --------------
 x =   0.02730643 y =   0.07761392 z =   0.00000000

 moments of inertia (a.u.)
 ------------------
         175.425533677873          -1.366118999094           0.000000000000
          -1.366118999094          29.113982578457           0.000000000000
           0.000000000000           0.000000000000         204.539516256330

 Rotational Constants
 --------------------
 A=   2.068647 cm-1  (  2.976255 K)
 B=   0.343142 cm-1  (  0.493693 K)
 C=   0.294321 cm-1  (  0.423452 K)


 Temperature                      =   298.15K
 frequency scaling parameter      =   1.0000

 Zero-Point correction to Energy  =   35.253 kcal/mol  (  0.056179 au)
 Thermal correction to Energy     =   37.675 kcal/mol  (  0.060038 au)
 Thermal correction to Enthalpy   =   38.267 kcal/mol  (  0.060982 au)

 Total Entropy                    =   62.003 cal/mol-K
   - Translational                =   37.256 cal/mol-K (mol. weight =  44.0262)
   - Rotational                   =   21.563 cal/mol-K (symmetry #  =        1)
   - Vibrational                  =    3.184 cal/mol-K

 Cv (constant volume heat capacity) =   11.949 cal/mol-K
   - Translational                  =    2.979 cal/mol-K
   - Rotational                     =    2.979 cal/mol-K
   - Vibrational                    =    5.990 cal/mol-K



          -------------------------------------------------
          NORMAL MODE EIGENVECTORS IN CARTESIAN COORDINATES
          -------------------------------------------------
             (Projected Frequencies expressed in cm-1)

                    1           2           3           4           5           6
 
 P.Frequency       -0.00       -0.00        0.00        0.00        0.00        0.00
 
           1    -0.08579     0.00000     0.00000    -0.04279     0.00000     0.18758
           2    -0.09683     0.00000     0.00000    -0.08098     0.00000    -0.08875
           3     0.00000    -0.00418     0.23395     0.00000     0.02025     0.00000
           4     0.01271     0.00000     0.00000    -0.11964     0.00000     0.09138
           5    -0.15406     0.00000     0.00000    -0.03634     0.00000    -0.03286
           6     0.00000     0.21230     0.03514     0.00000     0.02247     0.00000
           7     0.11062     0.00000     0.00000    -0.19601     0.00000    -0.00425
           8    -0.10145     0.00000     0.00000    -0.07738     0.00000    -0.08424
           9     0.00000     0.04208    -0.01975     0.00000     0.24143     0.00000
          10    -0.14593     0.00000     0.00000     0.00412     0.00000     0.24632
          11    -0.14910     0.00000     0.00000    -0.04020     0.00000    -0.03770
          12     0.00000     0.17064     0.24166     0.00000    -0.15376     0.00000
          13     0.00653     0.00000     0.00000    -0.11481     0.00000     0.09742
          14    -0.24423     0.00000     0.00000     0.03400     0.00000     0.05522
          15     0.00000     0.52877    -0.07460     0.00000    -0.16331     0.00000
          16     0.18629     0.00000     0.00000    -0.25504     0.00000    -0.07816
          17    -0.15003     0.00000     0.00000    -0.03948     0.00000    -0.03679
          18     0.00000     0.22465    -0.17851     0.00000     0.23399     0.00000
          19     0.11530     0.00000     0.00000    -0.19966     0.00000    -0.00882
          20    -0.01149     0.00000     0.00000    -0.14755     0.00000    -0.17210
          21     0.00000    -0.27387     0.09161     0.00000     0.42502     0.00000

                    7           8           9          10          11          12
 
 P.Frequency      266.59      469.85      710.44      839.38      946.31      952.96
 
           1     0.00000    -0.05249     0.00000     0.00000     0.04669     0.00000
           2     0.00000     0.11063     0.00000     0.00000     0.11740     0.00000
           3    -0.06874     0.00000     0.05073     0.00725     0.00000     0.00267
           4     0.00000     0.13534     0.00000     0.00000    -0.01561     0.00000
           5     0.00000    -0.00310     0.00000     0.00000    -0.04385     0.00000
           6    -0.01304     0.00000    -0.15705    -0.06789     0.00000    -0.08413
           7     0.00000    -0.02690     0.00000     0.00000    -0.06669     0.00000
           8     0.00000    -0.10312     0.00000     0.00000    -0.12059     0.00000
           9     0.03512     0.00000     0.02547     0.14474     0.00000    -0.00736
          10     0.00000    -0.22160     0.00000     0.00000    -0.10907     0.00000
          11     0.00000    -0.03525     0.00000     0.00000    -0.00987     0.00000
          12     0.91553     0.00000     0.20530    -0.01938     0.00000    -0.01899
          13     0.00000     0.12910     0.00000     0.00000    -0.00619     0.00000
          14     0.00000    -0.06521     0.00000     0.00000     0.14140     0.00000
          15    -0.13424     0.00000     0.20969     0.14348     0.00000     0.77319
          16     0.00000    -0.31748     0.00000     0.00000     0.38485     0.00000
          17     0.00000     0.07876     0.00000     0.00000    -0.40912     0.00000
          18    -0.12366     0.00000     0.67519    -0.57989     0.00000    -0.21840
          19     0.00000    -0.04819     0.00000     0.00000    -0.03058     0.00000
          20     0.00000    -0.46929     0.00000     0.00000     0.37226     0.00000
          21     0.17039     0.00000    -0.32864    -0.57431     0.00000     0.51119

                   13          14          15          16          17          18
 
 P.Frequency     1129.92     1282.70     1340.04     1429.12     1712.94     3201.56
 
           1     0.03929    -0.09938     0.00048     0.01479     0.01144     0.00062
           2     0.08762    -0.04163    -0.00524    -0.01990    -0.02411    -0.00035
           3     0.00000     0.00000     0.00000     0.00000     0.00000     0.00000
           4    -0.14104     0.07073    -0.07815    -0.00078    -0.06294    -0.05047
           5    -0.06383     0.07786     0.01125     0.08534     0.19367     0.00127
           6     0.00000     0.00000     0.00000     0.00000     0.00000     0.00000
           7     0.07290    -0.00536     0.08041    -0.04552     0.07447    -0.02242
           8    -0.03517    -0.06312    -0.01902     0.05374    -0.14467     0.04102
           9     0.00000     0.00000     0.00000     0.00000     0.00000     0.00000
          10     0.35225     0.52194    -0.17259    -0.11870    -0.13076    -0.00731
          11     0.36675     0.47770    -0.15473    -0.13188    -0.14144     0.00445
          12     0.00000     0.00000     0.00000     0.00000     0.00000     0.00000
          13    -0.16166     0.08267    -0.02870    -0.03448    -0.12704     0.61404
          14    -0.27354     0.22119     0.77733    -0.35554    -0.21046    -0.04476
          15     0.00000     0.00000     0.00000     0.00000     0.00000     0.00000
          16    -0.05936     0.18834     0.10201     0.53817    -0.18261    -0.28487
          17     0.03406    -0.18975    -0.04603    -0.32711    -0.01065    -0.43297
          18     0.00000     0.00000     0.00000     0.00000     0.00000     0.00000
          19     0.05669     0.00596     0.06470    -0.06841     0.12148     0.53622
          20    -0.33923    -0.02401    -0.40098    -0.52567     0.16176    -0.02460
          21     0.00000     0.00000     0.00000     0.00000     0.00000     0.00000

                   19          20          21
 
 P.Frequency     3216.36     3322.42     3850.75
 
           1    -0.00122    -0.00041     0.03788
           2     0.00012    -0.00056    -0.04766
           3     0.00000     0.00000     0.00000
           4     0.06598     0.00863     0.00310
           5    -0.01454    -0.00044     0.00051
           6     0.00000     0.00000     0.00000
           7    -0.03185     0.08091    -0.00018
           8     0.03649     0.04867     0.00058
           9     0.00000     0.00000     0.00000
          10     0.00976     0.00155    -0.62579
          11    -0.00074    -0.00183     0.73591
          12     0.00000     0.00000     0.00000
          13    -0.71983    -0.08020    -0.00822
          14     0.05793     0.00675     0.00634
          15     0.00000     0.00000     0.00000
          16    -0.19135    -0.38385     0.00047
          17    -0.29374    -0.61082     0.00050
          18     0.00000     0.00000     0.00000
          19     0.51450    -0.59718    -0.00236
          20    -0.02669     0.04061     0.00076
          21     0.00000     0.00000     0.00000



 ----------------------------------------------------------------------------
 Normal Eigenvalue ||    Projected Derivative Dipole Moments (debye/angs)
  Mode   [cm**-1]  ||      [d/dqX]             [d/dqY]           [d/dqZ]
 ------ ---------- || ------------------ ------------------ -----------------
    1       -0.000 ||      -0.061              -0.137             0.000
    2       -0.000 ||       0.000               0.000             0.474
    3        0.000 ||       0.000               0.000            -0.102
    4        0.000 ||       0.048               0.107             0.000
    5        0.000 ||       0.000               0.000            -0.343
    6        0.000 ||       0.060               0.134             0.000
    7      266.586 ||       0.000               0.000             1.489
    8      469.847 ||      -0.046              -0.295             0.000
    9      710.444 ||       0.000               0.000             0.717
   10      839.382 ||       0.000               0.000             1.066
   11      946.313 ||      -0.236              -1.084             0.000
   12      952.961 ||       0.000               0.000             0.901
   13     1129.920 ||       0.159              -0.667             0.000
   14     1282.700 ||       0.794               1.942             0.000
   15     1340.039 ||      -0.184              -0.309             0.000
   16     1429.121 ||       0.041               0.016             0.000
   17     1712.935 ||      -0.187               1.542             0.000
   18     3201.561 ||      -0.354              -0.144             0.000
   19     3216.356 ||       0.369               0.057             0.000
   20     3322.415 ||       0.242               0.118             0.000
   21     3850.751 ||      -0.539               1.392             0.000
 ----------------------------------------------------------------------------



  
  
 ----------------------------------------------------------------------------
 Normal Eigenvalue ||           Projected Infra Red Intensities
  Mode   [cm**-1]  || [atomic units] [(debye/angs)**2] [(KM/mol)] [arbitrary]
 ------ ---------- || -------------- ----------------- ---------- -----------
    1       -0.000 ||    0.000979           0.023         0.954       0.289
    2       -0.000 ||    0.009747           0.225         9.502       2.878
    3        0.000 ||    0.000452           0.010         0.441       0.134
    4        0.000 ||    0.000596           0.014         0.581       0.176
    5        0.000 ||    0.005113           0.118         4.984       1.509
    6        0.000 ||    0.000934           0.022         0.910       0.276
    7      266.586 ||    0.096112           2.217        93.694      28.375
    8      469.847 ||    0.003858           0.089         3.761       1.139
    9      710.444 ||    0.022299           0.514        21.738       6.583
   10      839.382 ||    0.049278           1.137        48.038      14.548
   11      946.313 ||    0.053320           1.230        51.979      15.741
   12      952.961 ||    0.035225           0.813        34.339      10.399
   13     1129.920 ||    0.020347           0.469        19.835       6.007
   14     1282.700 ||    0.190715           4.400       185.919      56.304
   15     1340.039 ||    0.005611           0.129         5.470       1.657
   16     1429.121 ||    0.000083           0.002         0.081       0.025
   17     1712.935 ||    0.104548           2.412       101.918      30.865
   18     3201.561 ||    0.006341           0.146         6.181       1.872
   19     3216.356 ||    0.006051           0.140         5.899       1.786
   20     3322.415 ||    0.003143           0.073         3.064       0.928
   21     3850.751 ||    0.096570           2.228        94.141      28.510
 ----------------------------------------------------------------------------



 vib:animation  F

 Task  times  cpu:      516.6s     wall:      531.0s
 
 
                                NWChem Input Module
                                -------------------
 
 
 Summary of allocated global arrays
-----------------------------------
  No active global arrays



                         GA Statistics for process    0
                         ------------------------------

       create   destroy   get      put      acc     scatter   gather  read&inc
calls: 3.97e+04 3.97e+04 2.21e+06 3.55e+05 6.38e+05    0        0     5.29e+04 
number of processes/call 1.18e+01 3.39e+01 1.46e+01 0.00e+00 0.00e+00
bytes total:             1.68e+09 1.37e+09 4.68e+08 0.00e+00 0.00e+00 4.23e+05
bytes remote:            1.03e+09 8.73e+08 3.47e+08 0.00e+00 0.00e+00 0.00e+00
Max memory consumed for GA by this process: 13903688 bytes
 
MA_summarize_allocated_blocks: starting scan ...
MA_summarize_allocated_blocks: scan completed: 0 heap blocks, 0 stack blocks
MA usage statistics:

	allocation statistics:
					      heap	     stack
					      ----	     -----
	current number of blocks	         0	         0
	maximum number of blocks	        25	        39
	current total bytes		         0	         0
	maximum total bytes		  31486760	  26244088
	maximum total K-bytes		     31487	     26245
	maximum total M-bytes		        32	        27
 
 
                                     CITATION
                                     --------
                Please cite the following reference when publishing
                           results obtained with NWChem:
 
          E. Apr, E. J. Bylaska, W. A. de Jong, N. Govind, K. Kowalski,
       T. P. Straatsma, M. Valiev, H. J. J. van Dam, Y. Alexeev, J. Anchell,
       V. Anisimov, F. W. Aquino, R. Atta-Fynn, J. Autschbach, N. P. Bauman,
     J. C. Becca, D. E. Bernholdt, K. Bhaskaran-Nair, S. Bogatko, P. Borowski,
        J. Boschen, J. Brabec, A. Bruner, E. Caut, Y. Chen, G. N. Chuev,
      C. J. Cramer, J. Daily, M. J. O. Deegan, T. H. Dunning Jr., M. Dupuis,
   K. G. Dyall, G. I. Fann, S. A. Fischer, A. Fonari, H. Frchtl, L. Gagliardi,
      J. Garza, N. Gawande, S. Ghosh, K. Glaesemann, A. W. Gtz, J. Hammond,
       V. Helms, E. D. Hermes, K. Hirao, S. Hirata, M. Jacquelin, L. Jensen,
   B. G. Johnson, H. Jnsson, R. A. Kendall, M. Klemm, R. Kobayashi, V. Konkov,
      S. Krishnamoorthy, M. Krishnan, Z. Lin, R. D. Lins, R. J. Littlefield,
      A. J. Logsdail, K. Lopata, W. Ma, A. V. Marenich, J. Martin del Campo,
   D. Mejia-Rodriguez, J. E. Moore, J. M. Mullin, T. Nakajima, D. R. Nascimento,
    J. A. Nichols, P. J. Nichols, J. Nieplocha, A. Otero-de-la-Roza, B. Palmer,
    A. Panyala, T. Pirojsirikul, B. Peng, R. Peverati, J. Pittner, L. Pollack,
   R. M. Richard, P. Sadayappan, G. C. Schatz, W. A. Shelton, D. W. Silverstein,
   D. M. A. Smith, T. A. Soares, D. Song, M. Swart, H. L. Taylor, G. S. Thomas,
            V. Tipparaju, D. G. Truhlar, K. Tsemekhman, T. Van Voorhis,
     . Vzquez-Mayagoitia, P. Verma, O. Villa, A. Vishnu, K. D. Vogiatzis,
        D. Wang, J. H. Weare, M. J. Williamson, T. L. Windus, K. Woliski,
        A. T. Wong, Q. Wu, C. Yang, Q. Yu, M. Zacharias, Z. Zhang, Y. Zhao,
                                and R. J. Harrison
                        "NWChem: Past, present, and future
                         J. Chem. Phys. 152, 184102 (2020)
                               doi:10.1063/5.0004997
 
                                      AUTHORS
                                      -------
     E. Apra, E. J. Bylaska, N. Govind, K. Kowalski, M. Valiev, W. A. de Jong,
      T. P. Straatsma, H. J. J. van Dam, D. Wang, T. L. Windus, N. P. Bauman,
       A. Panyala, J. Hammond, J. Autschbach, K. Bhaskaran-Nair, J. Brabec,
    K. Lopata, S. A. Fischer, S. Krishnamoorthy, M. Jacquelin, W. Ma, M. Klemm,
       O. Villa, Y. Chen, V. Anisimov, F. Aquino, S. Hirata, M. T. Hackler,
           Eric Hermes, L. Jensen, J. E. Moore, J. C. Becca, V. Konjkov,
            D. Mejia-Rodriguez, T. Risthaus, M. Malagoli, A. Marenich,
   A. Otero-de-la-Roza, J. Mullin, P. Nichols, R. Peverati, J. Pittner, Y. Zhao,
        P.-D. Fan, A. Fonari, M. J. Williamson, R. J. Harrison, J. R. Rehr,
      M. Dupuis, D. Silverstein, D. M. A. Smith, J. Nieplocha, V. Tipparaju,
      M. Krishnan, B. E. Van Kuiken, A. Vazquez-Mayagoitia, M. Swart, Q. Wu,
   T. Van Voorhis, A. A. Auer, M. Nooijen, L. D. Crosby, E. Brown, G. Cisneros,
     G. I. Fann, H. Fruchtl, J. Garza, K. Hirao, R. A. Kendall, J. A. Nichols,
       K. Tsemekhman, K. Wolinski, J. Anchell, D. E. Bernholdt, P. Borowski,
       T. Clark, D. Clerc, H. Dachsel, M. J. O. Deegan, K. Dyall, D. Elwood,
      E. Glendening, M. Gutowski, A. C. Hess, J. Jaffe, B. G. Johnson, J. Ju,
        R. Kobayashi, R. Kutteh, Z. Lin, R. Littlefield, X. Long, B. Meng,
      T. Nakajima, S. Niu, L. Pollack, M. Rosing, K. Glaesemann, G. Sandrone,
      M. Stave, H. Taylor, G. Thomas, J. H. van Lenthe, A. T. Wong, Z. Zhang.

 Total times  cpu:      651.7s     wall:      671.2s
