 Entering Gaussian System, Link 0=g16
 Input=2.gjf
 Output=2.log
 Initial command:
 /sw/contrib/gaussian/g16/A03/g16/l1.exe "/gscratch/scrubbed/gds001/Gau-7631.inp" -scrdir="/gscratch/scrubbed/gds001/"
 Entering Link 1 = /sw/contrib/gaussian/g16/A03/g16/l1.exe PID=      7632.
  
 Copyright (c) 1988,1990,1992,1993,1995,1998,2003,2009,2016,
            Gaussian, Inc.  All Rights Reserved.
  
 This is part of the Gaussian(R) 16 program.  It is based on
 the Gaussian(R) 09 system (copyright 2009, Gaussian, Inc.),
 the Gaussian(R) 03 system (copyright 2003, Gaussian, Inc.),
 the Gaussian(R) 98 system (copyright 1998, Gaussian, Inc.),
 the Gaussian(R) 94 system (copyright 1995, Gaussian, Inc.),
 the Gaussian 92(TM) system (copyright 1992, Gaussian, Inc.),
 the Gaussian 90(TM) system (copyright 1990, Gaussian, Inc.),
 the Gaussian 88(TM) system (copyright 1988, Gaussian, Inc.),
 the Gaussian 86(TM) system (copyright 1986, Carnegie Mellon
 University), and the Gaussian 82(TM) system (copyright 1983,
 Carnegie Mellon University). Gaussian is a federally registered
 trademark of Gaussian, Inc.
  
 This software contains proprietary and confidential information,
 including trade secrets, belonging to Gaussian, Inc.
  
 This software is provided under written license and may be
 used, copied, transmitted, or stored only in accord with that
 written license.
  
 The following legend is applicable only to US Government
 contracts under FAR:
  
                    RESTRICTED RIGHTS LEGEND
  
 Use, reproduction and disclosure by the US Government is
 subject to restrictions as set forth in subparagraphs (a)
 and (c) of the Commercial Computer Software - Restricted
 Rights clause in FAR 52.227-19.
  
 Gaussian, Inc.
 340 Quinnipiac St., Bldg. 40, Wallingford CT 06492
  
  
 ---------------------------------------------------------------
 Warning -- This program may not be used in any manner that
 competes with the business of Gaussian, Inc. or will provide
 assistance to any competitor of Gaussian, Inc.  The licensee
 of this program is prohibited from giving any competitor of
 Gaussian, Inc. access to this program.  By using this program,
 the user acknowledges that Gaussian, Inc. is engaged in the
 business of creating and licensing software in the field of
 computational chemistry and represents and warrants to the
 licensee that it is not a competitor of Gaussian, Inc. and that
 it will not use this program in any manner prohibited above.
 ---------------------------------------------------------------
  

 Cite this work as:
 Gaussian 16, Revision A.03,
 M. J. Frisch, G. W. Trucks, H. B. Schlegel, G. E. Scuseria, 
 M. A. Robb, J. R. Cheeseman, G. Scalmani, V. Barone, 
 G. A. Petersson, H. Nakatsuji, X. Li, M. Caricato, A. V. Marenich, 
 J. Bloino, B. G. Janesko, R. Gomperts, B. Mennucci, H. P. Hratchian, 
 J. V. Ortiz, A. F. Izmaylov, J. L. Sonnenberg, D. Williams-Young, 
 F. Ding, F. Lipparini, F. Egidi, J. Goings, B. Peng, A. Petrone, 
 T. Henderson, D. Ranasinghe, V. G. Zakrzewski, J. Gao, N. Rega, 
 G. Zheng, W. Liang, M. Hada, M. Ehara, K. Toyota, R. Fukuda, 
 J. Hasegawa, M. Ishida, T. Nakajima, Y. Honda, O. Kitao, H. Nakai, 
 T. Vreven, K. Throssell, J. A. Montgomery, Jr., J. E. Peralta, 
 F. Ogliaro, M. J. Bearpark, J. J. Heyd, E. N. Brothers, K. N. Kudin, 
 V. N. Staroverov, T. A. Keith, R. Kobayashi, J. Normand, 
 K. Raghavachari, A. P. Rendell, J. C. Burant, S. S. Iyengar, 
 J. Tomasi, M. Cossi, J. M. Millam, M. Klene, C. Adamo, R. Cammi, 
 J. W. Ochterski, R. L. Martin, K. Morokuma, O. Farkas, 
 J. B. Foresman, and D. J. Fox, Gaussian, Inc., Wallingford CT, 2016.
 
 ******************************************
 Gaussian 16:  ES64L-G16RevA.03 25-Dec-2016
                27-Oct-2020 
 ******************************************
 %nprocshared=28
 Will use up to   28 processors via shared memory.
 %mem=41GB
 %chk=2.chk
 -------------------------------------------------------
 # MP2/6-31G** Opt=(Recalc=50) Freq=(vibrot, anharmonic)
 -------------------------------------------------------
 1/10=4,18=20,19=15,38=1,71=50,80=1/1,3;
 2/9=110,12=2,17=6,18=5,40=1/2;
 3/5=1,6=6,7=101,11=9,25=1,30=1,71=2,140=1/1,2,3;
 4//1;
 5/5=2,38=5/2;
 8/6=3,8=1,10=2,19=11,30=-1/1;
 9/15=3,16=-3/6;
 11/6=1,8=1,15=11,17=12,24=-1,27=1,28=-2,29=300,32=6,42=3/1,2,10;
 10/6=2,21=1/2;
 8/6=4,8=1,10=2,19=11,30=-1/11,4;
 10/5=1,20=4/2;
 11/12=2,14=11,16=1,17=2,28=-2,42=3/2,10,12;
 6/7=2,8=2,9=2,10=2/1;
 7/10=1,12=2,25=1,44=2/1,2,3,16;
 1/10=4,18=20,19=15,71=50,80=1/3(3);
 2/9=110/2;
 7/9=1,25=1,44=-1/16;
 99//99;
 2/9=110/2;
 3/5=1,6=6,7=101,11=9,25=1,30=1,71=2,140=1/1,2,3;
 4/5=5,16=3,69=1/1;
 5/5=2,38=5/2;
 8/6=3,8=1,10=2,19=11,30=-1/1;
 9/15=3,16=-3/6;
 11/6=1,8=1,15=11,17=12,24=-1,27=1,28=-2,29=300,32=6,42=3/1,2,10;
 10/6=2,21=1/2;
 8/6=4,8=1,10=2,19=11,30=-1/11,4;
 10/5=1,20=4/2;
 11/12=2,14=11,16=1,17=2,28=-2,42=3/2,10,12;
 7/10=1,12=2,25=1,44=2/1,2,3,16;
 1/18=20,19=15,71=50,80=1/3(-12);
 2/9=110/2;
 6/7=2,8=2,9=2,10=2/1;
 7/9=1,25=1,44=-1/16;
 99//99;
 -------
 Me,H,Me
 -------
 Symbolic Z-matrix:
 Charge =  0 Multiplicity = 1
 C                    -2.19133   3.88067  0. 
 C                    -2.28124   2.54008  0. 
 C                    -1.07854   1.66293   0. 
 O                    -0.98919   4.56059  0. 
 O                     0.05217   2.15102   0. 
 C                    -1.29738   0.17425   0. 
 C                    -3.39158   4.77602  0. 
 H                    -3.2467    2.04837   0. 
 H                    -0.25968   3.89958  0. 
 H                    -4.32858   4.20961  0. 
 H                    -3.38507   5.41618  -0.88803 
 H                    -3.38507   5.41618   0.88803 
 H                    -2.36178  -0.07486   0. 
 H                    -0.8413   -0.25487   0.89606 
 H                    -0.8413   -0.25487  -0.89606 
 

 GradGradGradGradGradGradGradGradGradGradGradGradGradGradGradGradGradGrad
 Berny optimization.
 Initialization pass.
                           ----------------------------
                           !    Initial Parameters    !
                           ! (Angstroms and Degrees)  !
 --------------------------                            --------------------------
 ! Name  Definition              Value          Derivative Info.                !
 --------------------------------------------------------------------------------
 ! R1    R(1,2)                  1.3436         calculate D2E/DX2 analytically  !
 ! R2    R(1,4)                  1.3811         calculate D2E/DX2 analytically  !
 ! R3    R(1,7)                  1.4974         calculate D2E/DX2 analytically  !
 ! R4    R(2,3)                  1.4886         calculate D2E/DX2 analytically  !
 ! R5    R(2,8)                  1.0835         calculate D2E/DX2 analytically  !
 ! R6    R(3,5)                  1.2316         calculate D2E/DX2 analytically  !
 ! R7    R(3,6)                  1.5047         calculate D2E/DX2 analytically  !
 ! R8    R(4,9)                  0.9844         calculate D2E/DX2 analytically  !
 ! R9    R(6,13)                 1.0932         calculate D2E/DX2 analytically  !
 ! R10   R(6,14)                 1.0932         calculate D2E/DX2 analytically  !
 ! R11   R(6,15)                 1.0932         calculate D2E/DX2 analytically  !
 ! R12   R(7,10)                 1.0949         calculate D2E/DX2 analytically  !
 ! R13   R(7,11)                 1.0947         calculate D2E/DX2 analytically  !
 ! R14   R(7,12)                 1.0947         calculate D2E/DX2 analytically  !
 ! A1    A(2,1,4)              123.3291         calculate D2E/DX2 analytically  !
 ! A2    A(2,1,7)              122.8849         calculate D2E/DX2 analytically  !
 ! A3    A(4,1,7)              113.786          calculate D2E/DX2 analytically  !
 ! A4    A(1,2,3)              122.2672         calculate D2E/DX2 analytically  !
 ! A5    A(1,2,8)              120.8267         calculate D2E/DX2 analytically  !
 ! A6    A(3,2,8)              116.9061         calculate D2E/DX2 analytically  !
 ! A7    A(2,3,5)              120.5478         calculate D2E/DX2 analytically  !
 ! A8    A(2,3,6)              117.7414         calculate D2E/DX2 analytically  !
 ! A9    A(5,3,6)              121.7108         calculate D2E/DX2 analytically  !
 ! A10   A(1,4,9)              108.3285         calculate D2E/DX2 analytically  !
 ! A11   A(3,6,13)             111.535          calculate D2E/DX2 analytically  !
 ! A12   A(3,6,14)             109.1282         calculate D2E/DX2 analytically  !
 ! A13   A(3,6,15)             109.1282         calculate D2E/DX2 analytically  !
 ! A14   A(13,6,14)            108.4679         calculate D2E/DX2 analytically  !
 ! A15   A(13,6,15)            108.4679         calculate D2E/DX2 analytically  !
 ! A16   A(14,6,15)            110.1038         calculate D2E/DX2 analytically  !
 ! A17   A(1,7,10)             112.1256         calculate D2E/DX2 analytically  !
 ! A18   A(1,7,11)             110.1748         calculate D2E/DX2 analytically  !
 ! A19   A(1,7,12)             110.1748         calculate D2E/DX2 analytically  !
 ! A20   A(10,7,11)            107.9144         calculate D2E/DX2 analytically  !
 ! A21   A(10,7,12)            107.9144         calculate D2E/DX2 analytically  !
 ! A22   A(11,7,12)            108.4231         calculate D2E/DX2 analytically  !
 ! D1    D(4,1,2,3)              0.0            calculate D2E/DX2 analytically  !
 ! D2    D(4,1,2,8)            180.0            calculate D2E/DX2 analytically  !
 ! D3    D(7,1,2,3)            180.0            calculate D2E/DX2 analytically  !
 ! D4    D(7,1,2,8)              0.0            calculate D2E/DX2 analytically  !
 ! D5    D(2,1,4,9)              0.0            calculate D2E/DX2 analytically  !
 ! D6    D(7,1,4,9)            180.0            calculate D2E/DX2 analytically  !
 ! D7    D(2,1,7,10)             0.0            calculate D2E/DX2 analytically  !
 ! D8    D(2,1,7,11)          -120.2079         calculate D2E/DX2 analytically  !
 ! D9    D(2,1,7,12)           120.208          calculate D2E/DX2 analytically  !
 ! D10   D(4,1,7,10)          -180.0            calculate D2E/DX2 analytically  !
 ! D11   D(4,1,7,11)            59.7921         calculate D2E/DX2 analytically  !
 ! D12   D(4,1,7,12)           -59.792          calculate D2E/DX2 analytically  !
 ! D13   D(1,2,3,5)              0.0            calculate D2E/DX2 analytically  !
 ! D14   D(1,2,3,6)            180.0            calculate D2E/DX2 analytically  !
 ! D15   D(8,2,3,5)           -180.0            calculate D2E/DX2 analytically  !
 ! D16   D(8,2,3,6)              0.0            calculate D2E/DX2 analytically  !
 ! D17   D(2,3,6,13)             0.0            calculate D2E/DX2 analytically  !
 ! D18   D(2,3,6,14)          -119.8223         calculate D2E/DX2 analytically  !
 ! D19   D(2,3,6,15)           119.8224         calculate D2E/DX2 analytically  !
 ! D20   D(5,3,6,13)          -180.0            calculate D2E/DX2 analytically  !
 ! D21   D(5,3,6,14)            60.1777         calculate D2E/DX2 analytically  !
 ! D22   D(5,3,6,15)           -60.1776         calculate D2E/DX2 analytically  !
 --------------------------------------------------------------------------------
 Trust Radius=3.00D-01 FncErr=1.00D-07 GrdErr=1.00D-07 EigMax=2.50D+02 EigMin=1.00D-04
 Number of steps in this run=     68 maximum allowed number of steps=    100.
 GradGradGradGradGradGradGradGradGradGradGradGradGradGradGradGradGradGrad

                          Input orientation:                          
 ---------------------------------------------------------------------
 Center     Atomic      Atomic             Coordinates (Angstroms)
 Number     Number       Type             X           Y           Z
 ---------------------------------------------------------------------
      1          6           0       -2.191328    3.880668   -0.000000
      2          6           0       -2.281236    2.540083   -0.000000
      3          6           0       -1.078540    1.662931    0.000000
      4          8           0       -0.989192    4.560587   -0.000000
      5          8           0        0.052171    2.151017    0.000000
      6          6           0       -1.297379    0.174246    0.000001
      7          6           0       -3.391579    4.776019   -0.000000
      8          1           0       -3.246705    2.048369    0.000000
      9          1           0       -0.259677    3.899583   -0.000000
     10          1           0       -4.328580    4.209609   -0.000000
     11          1           0       -3.385074    5.416181   -0.888030
     12          1           0       -3.385074    5.416182    0.888029
     13          1           0       -2.361778   -0.074863    0.000000
     14          1           0       -0.841297   -0.254869    0.896062
     15          1           0       -0.841296   -0.254870   -0.896060
 ---------------------------------------------------------------------
                    Distance matrix (angstroms):
                    1          2          3          4          5
     1  C    0.000000
     2  C    1.343596   0.000000
     3  C    2.481261   1.488581   0.000000
     4  O    1.381094   2.398294   2.899034   0.000000
     5  O    2.832839   2.365620   1.231558   2.624970   0.000000
     6  C    3.812704   2.562257   1.504684   4.397155   2.393514
     7  C    1.497417   2.496452   3.878333   2.412027   4.330133
     8  H    2.114507   1.083473   2.202158   3.377515   3.300472
     9  H    1.931743   2.436174   2.381838   0.984438   1.776157
    10  H    2.162418   2.641767   4.128963   3.357782   4.840328
    11  H    2.138090   3.206087   4.493950   2.694603   4.823333
    12  H    2.138090   3.206087   4.493950   2.694603   4.823333
    13  H    3.959202   2.616186   2.160238   4.834397   3.283548
    14  H    4.441641   3.269267   2.130063   4.900349   2.718363
    15  H    4.441642   3.269268   2.130063   4.900349   2.718363
                    6          7          8          9         10
     6  C    0.000000
     7  C    5.055887   0.000000
     8  H    2.704109   2.731495   0.000000
     9  H    3.867165   3.252223   3.514162   0.000000
    10  H    5.047013   1.094893   2.416902   4.080697   0.000000
    11  H    5.711826   1.094736   3.485671   3.585634   1.770485
    12  H    5.711826   1.094736   3.485671   3.585634   1.770485
    13  H    1.093161   4.958986   2.300263   4.496115   4.714341
    14  H    1.093195   5.711103   3.448741   4.289602   5.735472
    15  H    1.093195   5.711104   3.448742   4.289602   5.735473
                   11         12         13         14         15
    11  H    0.000000
    12  H    1.776059   0.000000
    13  H    5.655731   5.655732   0.000000
    14  H    6.466421   6.215439   1.774032   0.000000
    15  H    6.215439   6.466421   1.774032   1.792122   0.000000
 Stoichiometry    C5H8O2
 Framework group  C1[X(C5H8O2)]
 Deg. of freedom    39
 Full point group                 C1      NOp   1
 Largest Abelian subgroup         C1      NOp   1
 Largest concise Abelian subgroup C1      NOp   1
                         Standard orientation:                         
 ---------------------------------------------------------------------
 Center     Atomic      Atomic             Coordinates (Angstroms)
 Number     Number       Type             X           Y           Z
 ---------------------------------------------------------------------
      1          6           0       -1.200207   -0.088525   -0.000000
      2          6           0       -0.012283   -0.716289    0.000000
      3          6           0        1.278443    0.025264    0.000000
      4          8           0       -1.331972    1.286269   -0.000000
      5          8           0        1.292832    1.256738    0.000000
      6          6           0        2.549168   -0.780546    0.000001
      7          6           0       -2.506561   -0.820438   -0.000000
      8          1           0        0.043898   -1.798304    0.000000
      9          1           0       -0.431273    1.683584   -0.000000
     10          1           0       -2.370565   -1.906852   -0.000000
     11          1           0       -3.088651   -0.553940   -0.888030
     12          1           0       -3.088651   -0.553939    0.888029
     13          1           0        2.343482   -1.854182    0.000000
     14          1           0        3.126763   -0.538608    0.896062
     15          1           0        3.126764   -0.538608   -0.896060
 ---------------------------------------------------------------------
 Rotational constants (GHZ):           5.5739688           1.6907013           1.3189468
 Standard basis: 6-31G(d,p) (6D, 7F)
 There are   145 symmetry adapted cartesian basis functions of A   symmetry.
 There are   145 symmetry adapted basis functions of A   symmetry.
   145 basis functions,   252 primitive gaussians,   145 cartesian basis functions
    27 alpha electrons       27 beta electrons
       nuclear repulsion energy       295.2406875812 Hartrees.
 NAtoms=   15 NActive=   15 NUniq=   15 SFac= 1.00D+00 NAtFMM=   60 NAOKFM=F Big=F
 Integral buffers will be    131072 words long.
 Raffenetti 1 integral format.
 Two-electron integral symmetry is turned on.
 One-electron integrals computed using PRISM.
 NBasis=   145 RedAO= T EigKep=  1.64D-03  NBF=   145
 NBsUse=   145 1.00D-06 EigRej= -1.00D+00 NBFU=   145
 ExpMin= 1.61D-01 ExpMax= 5.48D+03 ExpMxC= 8.25D+02 IAcc=3 IRadAn=         5 AccDes= 0.00D+00
 Harris functional with IExCor=  205 and IRadAn=       5 diagonalized for initial guess.
 HarFok:  IExCor=  205 AccDes= 0.00D+00 IRadAn=         5 IDoV= 1 UseB2=F ITyADJ=14
 ICtDFT=  3500011 ScaDFX=  1.000000  1.000000  1.000000  1.000000
 FoFCou: FMM=F IPFlag=           0 FMFlag=      100000 FMFlg1=           0
         NFxFlg=           0 DoJE=T BraDBF=F KetDBF=T FulRan=T
         wScrn=  0.000000 ICntrl=       500 IOpCl=  0 I1Cent=   200000004 NGrid=           0
         NMat0=    1 NMatS0=      1 NMatT0=    0 NMatD0=    1 NMtDS0=    0 NMtDT0=    0
 Petite list used in FoFCou.
 Requested convergence on RMS density matrix=1.00D-08 within 128 cycles.
 Requested convergence on MAX density matrix=1.00D-06.
 Requested convergence on             energy=1.00D-06.
 No special actions if energy rises.
 Integral accuracy reduced to 1.0D-05 until final iterations.
 Initial convergence to 1.0D-05 achieved.  Increase integral accuracy.
 SCF Done:  E(RHF) =  -343.734603126     A.U. after   15 cycles
            NFock= 15  Conv=0.56D-08     -V/T= 2.0027
 ExpMin= 1.61D-01 ExpMax= 5.48D+03 ExpMxC= 8.25D+02 IAcc=3 IRadAn=         5 AccDes= 0.00D+00
 HarFok:  IExCor=  205 AccDes= 0.00D+00 IRadAn=         5 IDoV=-2 UseB2=F ITyADJ=14
 ICtDFT= 12500011 ScaDFX=  1.000000  1.000000  1.000000  1.000000
 Range of M.O.s used for correlation:     8   145
 NBasis=   145 NAE=    27 NBE=    27 NFC=     7 NFV=     0
 NROrb=    138 NOA=    20 NOB=    20 NVA=   118 NVB=   118
 Disk-based method using ON**2 memory for 20 occupieds at a time.
 Permanent disk used for amplitudes=    12573549 words.
 Estimated scratch disk usage=   110484657 words.
 Actual    scratch disk usage=   103668913 words.
 JobTyp=1 Pass  1:  I=   8 to  27 NPSUse= 28 ParTrn=T ParDer=T DoDerP=T.
 (rs|ai) integrals will be sorted in core.
 Spin components of T(2) and E(2):
     alpha-alpha T2 =       0.4250987092D-01 E2=     -0.1323265449D+00
     alpha-beta  T2 =       0.2440289713D+00 E2=     -0.7797974649D+00
     beta-beta   T2 =       0.4250987092D-01 E2=     -0.1323265449D+00
 ANorm=    0.1152843751D+01
 E2 =    -0.1044450555D+01 EUMP2 =    -0.34477905368069D+03
 G2DrvN: will do    16 centers at a time, making    1 passes.
 Calling FoFCou, ICntrl=  3107 FMM=F I1Cent=   0 AccDes= 0.00D+00.
 End of G2Drv F.D. properties file   721 does not exist.
 End of G2Drv F.D. properties file   722 does not exist.
 End of G2Drv F.D. properties file   788 does not exist.
          IDoAtm=111111111111111
          Differentiating once with respect to electric field.
                with respect to dipole field.
          Differentiating once with respect to nuclear coordinates.
 Keep R1 ints in memory in canonical form, NReq=62009339.
          There are    48 degrees of freedom in the 1st order CPHF.  IDoFFX=6 NUNeed=    48.
     45 vectors produced by pass  0 Test12= 6.64D-15 2.08D-09 XBig12= 2.03D+01 3.13D+00.
 AX will form    45 AO Fock derivatives at one time.
     45 vectors produced by pass  1 Test12= 6.64D-15 2.08D-09 XBig12= 8.11D-01 1.87D-01.
     45 vectors produced by pass  2 Test12= 6.64D-15 2.08D-09 XBig12= 2.25D-02 4.34D-02.
     45 vectors produced by pass  3 Test12= 6.64D-15 2.08D-09 XBig12= 2.44D-04 3.21D-03.
     45 vectors produced by pass  4 Test12= 6.64D-15 2.08D-09 XBig12= 1.75D-06 2.67D-04.
     45 vectors produced by pass  5 Test12= 6.64D-15 2.08D-09 XBig12= 8.43D-09 1.01D-05.
     34 vectors produced by pass  6 Test12= 6.64D-15 2.08D-09 XBig12= 3.32D-11 7.93D-07.
      6 vectors produced by pass  7 Test12= 6.64D-15 2.08D-09 XBig12= 1.49D-13 4.47D-08.
      2 vectors produced by pass  8 Test12= 6.64D-15 2.08D-09 XBig12= 6.52D-16 3.04D-09.
 InvSVY:  IOpt=1 It=  1 EMax= 3.55D-15
 Solved reduced A of dimension   312 with    48 vectors.
 End of Minotr F.D. properties file   721 does not exist.
 End of Minotr F.D. properties file   722 does not exist.
 End of Minotr F.D. properties file   788 does not exist.
 MDV=  5502926848.
 Form MO integral derivatives with frozen-active canonical formalism.
 Discarding MO integrals.
 Reordered first order wavefunction length =     20301192
 In DefCFB: NBatch=  1 ICI= 27 ICA=118 LFMax= 59
            Large arrays: LIAPS=   267942600 LIARS=    48506850 words.
 Semi-Direct transformation.
 ModeAB=           4 MOrb=            27 LenV=    5502305143
 LASXX=     35746569 LTotXX=    35746569 LenRXX=    72267201
 LTotAB=    36520632 MaxLAS=    38754585 LenRXY=           0
 NonZer=   108013770 LenScr=   162529280 LnRSAI=    38754585
 LnScr1=    58195968 LExtra=           0 Total=    331747034
 MaxDsk=          -1 SrtSym=           T ITran=            4
 JobTyp=0 Pass  1:  I=   1 to  27.
 (rs|ai) integrals will be sorted in core.
 SymMOI:  orbitals are not symmetric.
 Spin components of T(2) and E(2):
     alpha-alpha T2 =       0.4250987092D-01 E2=     -0.1323265449D+00
     alpha-beta  T2 =       0.2440289713D+00 E2=     -0.7797974649D+00
     beta-beta   T2 =       0.4250987092D-01 E2=     -0.1323265449D+00
 ANorm=    0.1630367267D+01
 E2 =    -0.1044450555D+01 EUMP2 =    -0.34477905368069D+03
          IDoAtm=111111111111111
          Differentiating once with respect to electric field.
                with respect to dipole field.
          Differentiating once with respect to nuclear coordinates.
          There are     1 degrees of freedom in the 1st order CPHF.  IDoFFX=0 NUNeed=     1.
 LinEq1:  Iter=  0 NonCon=     1 RMS=5.34D-03 Max=1.43D-01 NDo=     1
 LinEq1:  Iter=  1 NonCon=     1 RMS=1.87D-03 Max=3.80D-02 NDo=     1
 LinEq1:  Iter=  2 NonCon=     1 RMS=6.29D-04 Max=1.40D-02 NDo=     1
 LinEq1:  Iter=  3 NonCon=     1 RMS=2.56D-04 Max=3.46D-03 NDo=     1
 LinEq1:  Iter=  4 NonCon=     1 RMS=7.90D-05 Max=1.17D-03 NDo=     1
 LinEq1:  Iter=  5 NonCon=     1 RMS=3.50D-05 Max=1.08D-03 NDo=     1
 LinEq1:  Iter=  6 NonCon=     1 RMS=1.10D-05 Max=2.70D-04 NDo=     1
 LinEq1:  Iter=  7 NonCon=     1 RMS=2.79D-06 Max=4.53D-05 NDo=     1
 LinEq1:  Iter=  8 NonCon=     1 RMS=1.17D-06 Max=2.58D-05 NDo=     1
 LinEq1:  Iter=  9 NonCon=     1 RMS=2.84D-07 Max=2.78D-06 NDo=     1
 LinEq1:  Iter= 10 NonCon=     1 RMS=9.58D-08 Max=1.46D-06 NDo=     1
 LinEq1:  Iter= 11 NonCon=     1 RMS=2.69D-08 Max=5.93D-07 NDo=     1
 LinEq1:  Iter= 12 NonCon=     1 RMS=5.84D-09 Max=7.23D-08 NDo=     1
 LinEq1:  Iter= 13 NonCon=     1 RMS=1.31D-09 Max=1.69D-08 NDo=     1
 LinEq1:  Iter= 14 NonCon=     1 RMS=3.27D-10 Max=3.05D-09 NDo=     1
 LinEq1:  Iter= 15 NonCon=     0 RMS=9.64D-11 Max=8.11D-10 NDo=     1
 Linear equations converged to 1.000D-10 1.000D-09 after    15 iterations.
 End of Minotr F.D. properties file   721 does not exist.
 End of Minotr F.D. properties file   722 does not exist.
 End of Minotr F.D. properties file   788 does not exist.
 Symmetrizing basis deriv contribution to polar:
 IMax=3 JMax=2 DiffMx= 0.00D+00
 G2DrvN: will do    16 centers at a time, making    1 passes.
 Calling FoFCou, ICntrl=  3107 FMM=F I1Cent=   0 AccDes= 0.00D+00.
 End of G2Drv F.D. properties file   721 does not exist.
 End of G2Drv F.D. properties file   722 does not exist.
 End of G2Drv F.D. properties file   788 does not exist.
 R2 and R3 integrals will be kept in memory, NReq=   113608805.
 DD1Dir will call FoFMem   1 times, MxPair=       756
 NAB=   378 NAA=     0 NBB=     0.
 Discarding MO integrals.

 **********************************************************************

            Population analysis using the SCF density.

 **********************************************************************

 Orbital symmetries:
       Occupied  (A) (A) (A) (A) (A) (A) (A) (A) (A) (A) (A) (A)
                 (A) (A) (A) (A) (A) (A) (A) (A) (A) (A) (A) (A)
                 (A) (A) (A)
       Virtual   (A) (A) (A) (A) (A) (A) (A) (A) (A) (A) (A) (A)
                 (A) (A) (A) (A) (A) (A) (A) (A) (A) (A) (A) (A)
                 (A) (A) (A) (A) (A) (A) (A) (A) (A) (A) (A) (A)
                 (A) (A) (A) (A) (A) (A) (A) (A) (A) (A) (A) (A)
                 (A) (A) (A) (A) (A) (A) (A) (A) (A) (A) (A) (A)
                 (A) (A) (A) (A) (A) (A) (A) (A) (A) (A) (A) (A)
                 (A) (A) (A) (A) (A) (A) (A) (A) (A) (A) (A) (A)
                 (A) (A) (A) (A) (A) (A) (A) (A) (A) (A) (A) (A)
                 (A) (A) (A) (A) (A) (A) (A) (A) (A) (A) (A) (A)
                 (A) (A) (A) (A) (A) (A) (A) (A) (A) (A)
 The electronic state is 1-A.
 Alpha  occ. eigenvalues --  -20.58707 -20.54987 -11.34172 -11.33444 -11.24335
 Alpha  occ. eigenvalues --  -11.23827 -11.22067  -1.39771  -1.36970  -1.07899
 Alpha  occ. eigenvalues --   -1.02140  -0.96442  -0.80935  -0.76667  -0.67913
 Alpha  occ. eigenvalues --   -0.66426  -0.61660  -0.60302  -0.59966  -0.58175
 Alpha  occ. eigenvalues --   -0.56319  -0.54329  -0.53605  -0.53398  -0.49995
 Alpha  occ. eigenvalues --   -0.41288  -0.35073
 Alpha virt. eigenvalues --    0.10697   0.23167   0.25339   0.25671   0.26619
 Alpha virt. eigenvalues --    0.30039   0.32215   0.32633   0.33238   0.35964
 Alpha virt. eigenvalues --    0.39127   0.40214   0.45030   0.51098   0.60204
 Alpha virt. eigenvalues --    0.62190   0.71261   0.73556   0.75766   0.76057
 Alpha virt. eigenvalues --    0.77012   0.80106   0.80175   0.84679   0.87281
 Alpha virt. eigenvalues --    0.91011   0.93164   0.93403   0.94075   0.96733
 Alpha virt. eigenvalues --    1.04864   1.07626   1.08981   1.09696   1.12195
 Alpha virt. eigenvalues --    1.13799   1.15978   1.16958   1.18514   1.22323
 Alpha virt. eigenvalues --    1.24686   1.29927   1.30237   1.31801   1.36494
 Alpha virt. eigenvalues --    1.42869   1.45098   1.49643   1.51573   1.52751
 Alpha virt. eigenvalues --    1.63753   1.64186   1.69155   1.72146   1.80407
 Alpha virt. eigenvalues --    1.88260   1.91354   1.99789   2.00083   2.01114
 Alpha virt. eigenvalues --    2.04053   2.06169   2.09558   2.11411   2.13063
 Alpha virt. eigenvalues --    2.19334   2.22508   2.31429   2.32229   2.32822
 Alpha virt. eigenvalues --    2.33993   2.36250   2.36999   2.37412   2.39249
 Alpha virt. eigenvalues --    2.43674   2.47350   2.50742   2.53697   2.57806
 Alpha virt. eigenvalues --    2.67541   2.69886   2.73035   2.75990   2.81209
 Alpha virt. eigenvalues --    2.81677   2.86792   2.90334   2.90413   2.95014
 Alpha virt. eigenvalues --    2.97075   3.02393   3.03459   3.08882   3.11486
 Alpha virt. eigenvalues --    3.14851   3.18717   3.21015   3.25768   3.26268
 Alpha virt. eigenvalues --    3.38805   3.48340   3.50816   3.54892   3.57061
 Alpha virt. eigenvalues --    3.77775   3.78205   3.79619   3.81514   3.91181
 Alpha virt. eigenvalues --    3.97321   4.42301   4.51808   4.64082   4.81630
 Alpha virt. eigenvalues --    4.82463   4.99888   5.07693
          Condensed to atoms (all electrons):
               1          2          3          4          5          6
     1  C    4.465111   0.586441  -0.052745   0.308566   0.002858   0.004592
     2  C    0.586441   5.296354   0.402657  -0.060276  -0.082116  -0.086271
     3  C   -0.052745   0.402657   4.382823  -0.001753   0.500280   0.345477
     4  O    0.308566  -0.060276  -0.001753   8.209716  -0.026708  -0.000072
     5  O    0.002858  -0.082116   0.500280  -0.026708   8.269622  -0.062842
     6  C    0.004592  -0.086271   0.345477  -0.000072  -0.062842   5.023008
     7  C    0.357342  -0.054458   0.002319  -0.055905   0.000083  -0.000084
     8  H   -0.020845   0.384432  -0.024284   0.001951   0.002368   0.000320
     9  H   -0.020026  -0.007611  -0.003930   0.298229   0.042133   0.000769
    10  H   -0.040373   0.000729   0.000212   0.002266   0.000002  -0.000003
    11  H   -0.034858  -0.000357  -0.000097   0.001192   0.000008   0.000002
    12  H   -0.034858  -0.000357  -0.000097   0.001192   0.000008   0.000002
    13  H    0.000256   0.003693  -0.041534   0.000005   0.002747   0.393633
    14  H   -0.000171   0.002163  -0.028945   0.000003   0.000058   0.391582
    15  H   -0.000171   0.002163  -0.028945   0.000003   0.000058   0.391582
               7          8          9         10         11         12
     1  C    0.357342  -0.020845  -0.020026  -0.040373  -0.034858  -0.034858
     2  C   -0.054458   0.384432  -0.007611   0.000729  -0.000357  -0.000357
     3  C    0.002319  -0.024284  -0.003930   0.000212  -0.000097  -0.000097
     4  O   -0.055905   0.001951   0.298229   0.002266   0.001192   0.001192
     5  O    0.000083   0.002368   0.042133   0.000002   0.000008   0.000008
     6  C   -0.000084   0.000320   0.000769  -0.000003   0.000002   0.000002
     7  C    4.930642  -0.002106   0.003307   0.402035   0.393566   0.393566
     8  H   -0.002106   0.512806   0.000013   0.000317   0.000110   0.000110
     9  H    0.003307   0.000013   0.265781  -0.000109  -0.000073  -0.000073
    10  H    0.402035   0.000317  -0.000109   0.552609  -0.026042  -0.026042
    11  H    0.393566   0.000110  -0.000073  -0.026042   0.537304  -0.025501
    12  H    0.393566   0.000110  -0.000073  -0.026042  -0.025501   0.537304
    13  H   -0.000008  -0.000849  -0.000034  -0.000000  -0.000000  -0.000000
    14  H    0.000001   0.000004  -0.000015   0.000000  -0.000000   0.000000
    15  H    0.000001   0.000004  -0.000015   0.000000   0.000000  -0.000000
              13         14         15
     1  C    0.000256  -0.000171  -0.000171
     2  C    0.003693   0.002163   0.002163
     3  C   -0.041534  -0.028945  -0.028945
     4  O    0.000005   0.000003   0.000003
     5  O    0.002747   0.000058   0.000058
     6  C    0.393633   0.391582   0.391582
     7  C   -0.000008   0.000001   0.000001
     8  H   -0.000849   0.000004   0.000004
     9  H   -0.000034  -0.000015  -0.000015
    10  H   -0.000000   0.000000   0.000000
    11  H   -0.000000  -0.000000   0.000000
    12  H   -0.000000   0.000000  -0.000000
    13  H    0.567646  -0.025946  -0.025946
    14  H   -0.025946   0.516445  -0.015770
    15  H   -0.025946  -0.015770   0.516445
 Mulliken charges:
               1
     1  C    0.478880
     2  C   -0.387187
     3  C    0.548560
     4  O   -0.678410
     5  O   -0.648558
     6  C   -0.401695
     7  C   -0.370301
     8  H    0.145648
     9  H    0.421655
    10  H    0.134398
    11  H    0.154746
    12  H    0.154746
    13  H    0.126338
    14  H    0.160590
    15  H    0.160590
 Sum of Mulliken charges =  -0.00000
 Mulliken charges with hydrogens summed into heavy atoms:
               1
     1  C    0.478880
     2  C   -0.241539
     3  C    0.548560
     4  O   -0.256755
     5  O   -0.648558
     6  C    0.045822
     7  C    0.073589
 APT charges:
               1
     1  C    0.712393
     2  C   -0.632687
     3  C    0.921341
     4  O   -0.685976
     5  O   -0.661574
     6  C   -0.091480
     7  C    0.002385
     8  H    0.036282
     9  H    0.360194
    10  H    0.005261
    11  H    0.000681
    12  H    0.000681
    13  H   -0.001422
    14  H    0.016960
    15  H    0.016960
 Sum of APT charges =  -0.00000
 APT charges with hydrogens summed into heavy atoms:
               1
     1  C    0.712393
     2  C   -0.596405
     3  C    0.921341
     4  O   -0.325782
     5  O   -0.661574
     6  C   -0.058981
     7  C    0.009009
 Electronic spatial extent (au):  <R**2>=            902.9768
 Charge=             -0.0000 electrons
 Dipole moment (field-independent basis, Debye):
    X=             -0.0653    Y=             -3.5097    Z=              0.0000  Tot=              3.5103
 Quadrupole moment (field-independent basis, Debye-Ang):
   XX=            -38.3534   YY=            -44.2329   ZZ=            -42.3527
   XY=             -0.6471   XZ=              0.0000   YZ=             -0.0000
 Traceless Quadrupole moment (field-independent basis, Debye-Ang):
   XX=              3.2929   YY=             -2.5866   ZZ=             -0.7064
   XY=             -0.6471   XZ=              0.0000   YZ=             -0.0000
 Octapole moment (field-independent basis, Debye-Ang**2):
  XXX=              0.2414  YYY=              3.9129  ZZZ=              0.0000  XYY=             -2.0814
  XXY=            -12.3451  XXZ=              0.0000  XZZ=              0.9776  YZZ=              4.4085
  YYZ=             -0.0000  XYZ=             -0.0000
 Hexadecapole moment (field-independent basis, Debye-Ang**3):
 XXXX=           -809.8170 YYYY=           -247.5005 ZZZZ=            -52.8337 XXXY=              2.7894
 XXXZ=             -0.0001 YYYX=             -2.7089 YYYZ=              0.0000 ZZZX=             -0.0001
 ZZZY=              0.0000 XXYY=           -203.6004 XXZZ=           -139.3314 YYZZ=            -55.7752
 XXYZ=              0.0000 YYXZ=             -0.0000 ZZXY=             -0.2252
 N-N= 2.952406875812D+02 E-N=-1.396541567982D+03  KE= 3.428071768870D+02
  Exact polarizability:  83.084  -2.078  58.833   0.000  -0.000  35.632
 Approx polarizability:  58.716  -2.501  54.562   0.000  -0.000  35.592
 Calling FoFJK, ICntrl=  10100127 FMM=F ISym2X=0 I1Cent= 0 IOpClX= 0 NMat=1 NMatS=1 NMatT=0.
 ***** Axes restored to original set *****
 -------------------------------------------------------------------
 Center     Atomic                   Forces (Hartrees/Bohr)
 Number     Number              X              Y              Z
 -------------------------------------------------------------------
      1        6           0.022034248    0.024135535   -0.000000001
      2        6           0.011879274   -0.035984659   -0.000000002
      3        6          -0.034088235    0.016864609    0.000000023
      4        8          -0.027359443   -0.004577501    0.000000001
      5        8           0.022703516    0.001469416   -0.000000009
      6        6          -0.004155203   -0.004812483   -0.000000020
      7        6          -0.001541154    0.004745251    0.000000000
      8        1           0.000637604    0.005369027   -0.000000001
      9        1          -0.006956590   -0.005874243   -0.000000000
     10        1           0.006656102   -0.000505552   -0.000000002
     11        1           0.001721742   -0.000657898    0.003836600
     12        1           0.001721742   -0.000657901   -0.003836600
     13        1           0.003973551    0.000839990    0.000000005
     14        1           0.001386424   -0.000176796   -0.004671775
     15        1           0.001386423   -0.000176794    0.004671781
 -------------------------------------------------------------------
 Cartesian Forces:  Max     0.035984659 RMS     0.011115421
 FormGI is forming the generalized inverse of G from B-inverse, IUseBI=4.

 GradGradGradGradGradGradGradGradGradGradGradGradGradGradGradGradGradGrad
 Berny optimization.
 Internal  Forces:  Max     0.035014904 RMS     0.007286261
 Search for a local minimum.
 Step number   1 out of a maximum of   68
 All quantities printed in internal units (Hartrees-Bohrs-Radians)
 Mixed Optimization -- RFO/linear search
 Second derivative matrix not updated -- analytic derivatives used.
 ITU=  0
     Eigenvalues ---   -0.00124   0.00137   0.00958   0.01260   0.02055
     Eigenvalues ---    0.02666   0.03595   0.05845   0.05917   0.05925
     Eigenvalues ---    0.05987   0.07472   0.11779   0.12745   0.12866
     Eigenvalues ---    0.13991   0.14152   0.14674   0.14727   0.17446
     Eigenvalues ---    0.19488   0.20932   0.22133   0.23924   0.30247
     Eigenvalues ---    0.31179   0.34256   0.35108   0.35262   0.35525
     Eigenvalues ---    0.35577   0.35682   0.35753   0.36863   0.37862
     Eigenvalues ---    0.48639   0.53828   0.74970   0.83879
 RFO step:  Lambda=-1.01082654D-02 EMin=-1.23558955D-03
 Linear search not attempted -- first point.
 Iteration  1 RMS(Cart)=  0.10371059 RMS(Int)=  0.03568727
 Iteration  2 RMS(Cart)=  0.04646633 RMS(Int)=  0.00214882
 Iteration  3 RMS(Cart)=  0.00218381 RMS(Int)=  0.00014991
 Iteration  4 RMS(Cart)=  0.00000319 RMS(Int)=  0.00014988
 Iteration  5 RMS(Cart)=  0.00000000 RMS(Int)=  0.00014988
 Variable       Old X    -DE/DX   Delta X   Delta X   Delta X     New X
                                 (Linear)    (Quad)   (Total)
    R1        2.53903   0.01632   0.00000   0.04315   0.04315   2.58218
    R2        2.60989  -0.03501   0.00000  -0.09978  -0.09978   2.51011
    R3        2.82971  -0.00511   0.00000  -0.01021  -0.01021   2.81950
    R4        2.81301  -0.01536   0.00000  -0.08974  -0.08974   2.72327
    R5        2.04747  -0.00300   0.00000  -0.00944  -0.00944   2.03803
    R6        2.32731   0.02143   0.00000   0.04074   0.04074   2.36804
    R7        2.84344   0.00390   0.00000   0.00957   0.00957   2.85301
    R8        1.86032  -0.00121   0.00000   0.02254   0.02254   1.88286
    R9        2.06577  -0.00406   0.00000  -0.01113  -0.01113   2.05464
   R10        2.06584  -0.00318   0.00000  -0.00556  -0.00556   2.06028
   R11        2.06584  -0.00318   0.00000  -0.01075  -0.01075   2.05509
   R12        2.06905  -0.00543   0.00000  -0.01565  -0.01565   2.05340
   R13        2.06875  -0.00349   0.00000  -0.01006  -0.01006   2.05870
   R14        2.06875  -0.00349   0.00000  -0.01002  -0.01002   2.05873
    A1        2.15250  -0.00338   0.00000  -0.01581  -0.01581   2.13669
    A2        2.14475   0.01033   0.00000   0.02407   0.02407   2.16882
    A3        1.98594  -0.00695   0.00000  -0.00826  -0.00826   1.97768
    A4        2.13397  -0.00404   0.00000  -0.03123  -0.03123   2.10274
    A5        2.10882  -0.00258   0.00000  -0.02249  -0.02249   2.08633
    A6        2.04040   0.00662   0.00000   0.05372   0.05372   2.09412
    A7        2.10396   0.00813   0.00000   0.02668   0.02657   2.13052
    A8        2.05497   0.00154   0.00000   0.02689   0.02679   2.08176
    A9        2.12425  -0.00967   0.00000  -0.05356  -0.05365   2.07060
   A10        1.89069  -0.01679   0.00000  -0.06111  -0.06111   1.82958
   A11        1.94665   0.00079   0.00000   0.01456   0.01440   1.96105
   A12        1.90465   0.00075   0.00000  -0.00788  -0.00797   1.89668
   A13        1.90465   0.00075   0.00000   0.00329   0.00304   1.90769
   A14        1.89312   0.00060   0.00000   0.00339   0.00338   1.89651
   A15        1.89312   0.00060   0.00000   0.02528   0.02498   1.91811
   A16        1.92167  -0.00359   0.00000  -0.03947  -0.03966   1.88202
   A17        1.95696  -0.00479   0.00000  -0.01492  -0.01494   1.94202
   A18        1.92291  -0.00010   0.00000  -0.00986  -0.00997   1.91294
   A19        1.92291  -0.00010   0.00000  -0.01001  -0.01012   1.91280
   A20        1.88346   0.00309   0.00000   0.02404   0.02403   1.90749
   A21        1.88346   0.00309   0.00000   0.02402   0.02401   1.90747
   A22        1.89234  -0.00099   0.00000  -0.01209  -0.01229   1.88005
    D1       -0.00000   0.00000   0.00000   0.00368   0.00365   0.00365
    D2        3.14159   0.00000   0.00000   0.00094   0.00097  -3.14062
    D3        3.14159   0.00000   0.00000   0.00152   0.00149  -3.14010
    D4        0.00000   0.00000   0.00000  -0.00122  -0.00119  -0.00119
    D5       -0.00000   0.00000   0.00000  -0.00176  -0.00174  -0.00174
    D6        3.14159   0.00000   0.00000   0.00023   0.00021  -3.14139
    D7        0.00000  -0.00000   0.00000   0.00176   0.00176   0.00176
    D8       -2.09802  -0.00067   0.00000  -0.01207  -0.01198  -2.11001
    D9        2.09802   0.00067   0.00000   0.01545   0.01538   2.11341
   D10       -3.14159  -0.00000   0.00000  -0.00022  -0.00022   3.14137
   D11        1.04357  -0.00067   0.00000  -0.01404  -0.01397   1.02960
   D12       -1.04357   0.00067   0.00000   0.01348   0.01340  -1.03017
   D13        0.00000  -0.00000   0.00000  -0.00332  -0.00298  -0.00298
   D14        3.14159   0.00000   0.00000  -0.02920  -0.02959   3.11200
   D15       -3.14159  -0.00000   0.00000  -0.00069  -0.00029   3.14130
   D16       -0.00000   0.00000   0.00000  -0.02656  -0.02690  -0.02690
   D17        0.00000  -0.00000   0.00000   0.30686   0.30649   0.30649
   D18       -2.09129  -0.00173   0.00000   0.29868   0.29851  -1.79279
   D19        2.09129   0.00173   0.00000   0.34957   0.34936   2.44066
   D20       -3.14159   0.00000   0.00000   0.28067   0.28080  -2.86079
   D21        1.05030  -0.00173   0.00000   0.27249   0.27282   1.32312
   D22       -1.05030   0.00173   0.00000   0.32338   0.32367  -0.72663
         Item               Value     Threshold  Converged?
 Maximum Force            0.035015     0.000450     NO 
 RMS     Force            0.007286     0.000300     NO 
 Maximum Displacement     0.519769     0.001800     NO 
 RMS     Displacement     0.142838     0.001200     NO 
 Predicted change in Energy=-5.621939D-03
 GradGradGradGradGradGradGradGradGradGradGradGradGradGradGradGradGradGrad

                          Input orientation:                          
 ---------------------------------------------------------------------
 Center     Atomic      Atomic             Coordinates (Angstroms)
 Number     Number       Type             X           Y           Z
 ---------------------------------------------------------------------
      1          6           0       -2.209753    3.873638   -0.005690
      2          6           0       -2.313445    2.511148   -0.003047
      3          6           0       -1.131386    1.688055   -0.047870
      4          8           0       -1.038659    4.498671   -0.052900
      5          8           0        0.020358    2.179678   -0.093550
      6          6           0       -1.275696    0.185834   -0.004849
      7          6           0       -3.374603    4.804823    0.040428
      8          1           0       -3.288643    2.052213    0.035424
      9          1           0       -0.360979    3.768757   -0.079827
     10          1           0       -4.313808    4.259659    0.078087
     11          1           0       -3.365450    5.445556   -0.840595
     12          1           0       -3.295258    5.446050    0.917580
     13          1           0       -2.284516   -0.139867   -0.246421
     14          1           0       -1.028479   -0.159952    0.999129
     15          1           0       -0.566246   -0.263392   -0.695899
 ---------------------------------------------------------------------
                    Distance matrix (angstroms):
                    1          2          3          4          5
     1  C    0.000000
     2  C    1.366433   0.000000
     3  C    2.437504   1.441094   0.000000
     4  O    1.328290   2.361738   2.812149   0.000000
     5  O    2.801896   2.358962   1.253114   2.549686   0.000000
     6  C    3.804257   2.546373   1.509750   4.319613   2.379714
     7  C    1.492015   2.527626   3.841101   2.357769   4.293612
     8  H    2.117377   1.078478   2.189362   3.324964   3.313966
     9  H    1.853230   2.323703   2.218979   0.996368   1.634252
    10  H    2.140812   2.658068   4.093509   3.286470   4.810486
    11  H    2.122175   3.227840   4.442776   2.632681   4.763164
    12  H    2.122081   3.228802   4.442630   2.632793   4.762865
    13  H    4.021413   2.662320   2.170353   4.806833   3.273546
    14  H    4.321449   3.128941   2.126483   4.775943   2.787091
    15  H    4.504722   3.351242   2.132480   4.828443   2.583703
                    6          7          8          9         10
     6  C    0.000000
     7  C    5.073709   0.000000
     8  H    2.745350   2.753957   0.000000
     9  H    3.698604   3.189016   3.395736   0.000000
    10  H    5.082623   1.086613   2.434256   3.986324   0.000000
    11  H    5.721033   1.089415   3.505437   3.523814   1.774743
    12  H    5.709587   1.089433   3.506619   3.523936   1.774744
    13  H    1.087270   5.071541   2.427534   4.359483   4.855837
    14  H    1.090255   5.574262   3.306167   4.128493   5.583427
    15  H    1.087507   5.840878   3.648055   4.084104   5.924632
                   11         12         13         14         15
    11  H    0.000000
    12  H    1.759576   0.000000
    13  H    5.720001   5.794736   0.000000
    14  H    6.345686   6.047495   1.769019   0.000000
    15  H    6.359918   6.530586   1.780377   1.759966   0.000000
 Stoichiometry    C5H8O2
 Framework group  C1[X(C5H8O2)]
 Deg. of freedom    39
 Full point group                 C1      NOp   1
 Largest Abelian subgroup         C1      NOp   1
 Largest concise Abelian subgroup C1      NOp   1
                         Standard orientation:                         
 ---------------------------------------------------------------------
 Center     Atomic      Atomic             Coordinates (Angstroms)
 Number     Number       Type             X           Y           Z
 ---------------------------------------------------------------------
      1          6           0       -1.196539   -0.086463   -0.000387
      2          6           0        0.002389   -0.741848   -0.013843
      3          6           0        1.239483   -0.002694   -0.014711
      4          8           0       -1.283609    1.238942    0.008246
      5          8           0        1.266010    1.250113   -0.006522
      6          6           0        2.548626   -0.754304    0.009229
      7          6           0       -2.525067   -0.765511    0.003439
      8          1           0        0.018817   -1.820174   -0.021347
      9          1           0       -0.339222    1.556536    0.004317
     10          1           0       -2.415234   -1.846533   -0.004061
     11          1           0       -3.096415   -0.455725   -0.870871
     12          1           0       -3.085501   -0.466841    0.888636
     13          1           0        2.432590   -1.796409   -0.278359
     14          1           0        2.955491   -0.714550    1.019940
     15          1           0        3.256921   -0.263830   -0.654417
 ---------------------------------------------------------------------
 Rotational constants (GHZ):           5.8506694           1.7079254           1.3439894
 Standard basis: 6-31G(d,p) (6D, 7F)
 There are   145 symmetry adapted cartesian basis functions of A   symmetry.
 There are   145 symmetry adapted basis functions of A   symmetry.
   145 basis functions,   252 primitive gaussians,   145 cartesian basis functions
    27 alpha electrons       27 beta electrons
       nuclear repulsion energy       298.1216769517 Hartrees.
 NAtoms=   15 NActive=   15 NUniq=   15 SFac= 1.00D+00 NAtFMM=   60 NAOKFM=F Big=F
 Integral buffers will be    131072 words long.
 Raffenetti 1 integral format.
 Two-electron integral symmetry is turned on.
 One-electron integrals computed using PRISM.
 NBasis=   145 RedAO= T EigKep=  1.62D-03  NBF=   145
 NBsUse=   145 1.00D-06 EigRej= -1.00D+00 NBFU=   145
 Initial guess from the checkpoint file:  "2.chk"
 B after Tr=    -0.000000    0.000000    0.000000
         Rot=    0.999969   -0.007525    0.001509    0.001870 Ang=  -0.91 deg.
 ExpMin= 1.61D-01 ExpMax= 5.48D+03 ExpMxC= 8.25D+02 IAcc=2 IRadAn=         4 AccDes= 0.00D+00
 Harris functional with IExCor=  205 and IRadAn=       4 diagonalized for initial guess.
 HarFok:  IExCor=  205 AccDes= 0.00D+00 IRadAn=         4 IDoV= 1 UseB2=F ITyADJ=14
 ICtDFT=  3500011 ScaDFX=  1.000000  1.000000  1.000000  1.000000
 FoFCou: FMM=F IPFlag=           0 FMFlag=      100000 FMFlg1=           0
         NFxFlg=           0 DoJE=T BraDBF=F KetDBF=T FulRan=T
         wScrn=  0.000000 ICntrl=       500 IOpCl=  0 I1Cent=   200000004 NGrid=           0
         NMat0=    1 NMatS0=      1 NMatT0=    0 NMatD0=    1 NMtDS0=    0 NMtDT0=    0
 Petite list used in FoFCou.
 Requested convergence on RMS density matrix=1.00D-08 within 128 cycles.
 Requested convergence on MAX density matrix=1.00D-06.
 Requested convergence on             energy=1.00D-06.
 No special actions if energy rises.
 Integral accuracy reduced to 1.0D-05 until final iterations.
 Initial convergence to 1.0D-05 achieved.  Increase integral accuracy.
 SCF Done:  E(RHF) =  -343.738112002     A.U. after   15 cycles
            NFock= 15  Conv=0.59D-08     -V/T= 2.0022
 ExpMin= 1.61D-01 ExpMax= 5.48D+03 ExpMxC= 8.25D+02 IAcc=3 IRadAn=         5 AccDes= 0.00D+00
 HarFok:  IExCor=  205 AccDes= 0.00D+00 IRadAn=         5 IDoV=-2 UseB2=F ITyADJ=14
 ICtDFT= 12500011 ScaDFX=  1.000000  1.000000  1.000000  1.000000
 Range of M.O.s used for correlation:     8   145
 NBasis=   145 NAE=    27 NBE=    27 NFC=     7 NFV=     0
 NROrb=    138 NOA=    20 NOB=    20 NVA=   118 NVB=   118
 Fully direct method using O(ONN) memory.
 JobTyp=1 Pass  1:  I=   8 to  27 NPSUse= 28 ParTrn=T ParDer=T DoDerP=T.
 Spin components of T(2) and E(2):
     alpha-alpha T2 =       0.4276952459D-01 E2=     -0.1332728694D+00
     alpha-beta  T2 =       0.2427293754D+00 E2=     -0.7795479623D+00
     beta-beta   T2 =       0.4276952459D-01 E2=     -0.1332728694D+00
 ANorm=    0.1152505282D+01
 E2 =    -0.1046093701D+01 EUMP2 =    -0.34478420570283D+03
          IDoAtm=111111111111111
          Differentiating once with respect to electric field.
                with respect to dipole field.
          Differentiating once with respect to nuclear coordinates.
 Keep R1 ints in memory in canonical form, NReq=62016442.
          There are     1 degrees of freedom in the 1st order CPHF.  IDoFFX=0 NUNeed=     1.
 LinEq1:  Iter=  0 NonCon=     1 RMS=5.56D-03 Max=1.49D-01 NDo=     1
 AX will form     1 AO Fock derivatives at one time.
 LinEq1:  Iter=  1 NonCon=     1 RMS=1.94D-03 Max=3.32D-02 NDo=     1
 LinEq1:  Iter=  2 NonCon=     1 RMS=6.73D-04 Max=1.48D-02 NDo=     1
 LinEq1:  Iter=  3 NonCon=     1 RMS=2.70D-04 Max=2.90D-03 NDo=     1
 LinEq1:  Iter=  4 NonCon=     1 RMS=8.47D-05 Max=1.40D-03 NDo=     1
 LinEq1:  Iter=  5 NonCon=     1 RMS=3.66D-05 Max=1.06D-03 NDo=     1
 LinEq1:  Iter=  6 NonCon=     1 RMS=1.24D-05 Max=3.01D-04 NDo=     1
 LinEq1:  Iter=  7 NonCon=     1 RMS=3.31D-06 Max=4.54D-05 NDo=     1
 LinEq1:  Iter=  8 NonCon=     1 RMS=1.33D-06 Max=2.96D-05 NDo=     1
 LinEq1:  Iter=  9 NonCon=     1 RMS=3.28D-07 Max=3.39D-06 NDo=     1
 LinEq1:  Iter= 10 NonCon=     1 RMS=1.21D-07 Max=1.97D-06 NDo=     1
 LinEq1:  Iter= 11 NonCon=     1 RMS=3.24D-08 Max=5.19D-07 NDo=     1
 LinEq1:  Iter= 12 NonCon=     1 RMS=6.85D-09 Max=7.77D-08 NDo=     1
 LinEq1:  Iter= 13 NonCon=     1 RMS=1.61D-09 Max=1.81D-08 NDo=     1
 LinEq1:  Iter= 14 NonCon=     1 RMS=4.60D-10 Max=9.53D-09 NDo=     1
 LinEq1:  Iter= 15 NonCon=     1 RMS=1.54D-10 Max=4.59D-09 NDo=     1
 LinEq1:  Iter= 16 NonCon=     0 RMS=3.40D-11 Max=8.04D-10 NDo=     1
 Linear equations converged to 1.000D-10 1.000D-09 after    16 iterations.
 End of Minotr F.D. properties file   721 does not exist.
 End of Minotr F.D. properties file   722 does not exist.
 End of Minotr F.D. properties file   788 does not exist.
 Symmetrizing basis deriv contribution to polar:
 IMax=3 JMax=2 DiffMx= 0.00D+00
 Calling FoFJK, ICntrl=  10002127 FMM=F ISym2X=0 I1Cent= 0 IOpClX= 0 NMat=1 NMatS=1 NMatT=0.
 ***** Axes restored to original set *****
 -------------------------------------------------------------------
 Center     Atomic                   Forces (Hartrees/Bohr)
 Number     Number              X              Y              Z
 -------------------------------------------------------------------
      1        6          -0.004024020    0.000585694    0.000113105
      2        6          -0.002074925   -0.002402159    0.000251849
      3        6          -0.000799095   -0.002836422   -0.000059684
      4        8           0.001707155    0.004063364   -0.000075579
      5        8           0.002348275    0.001943452   -0.000360528
      6        6          -0.000267387   -0.000063406    0.000271896
      7        6          -0.000992368   -0.000004889    0.000080255
      8        1          -0.000180037    0.000302475   -0.000039427
      9        1           0.003834937   -0.001973477   -0.000129977
     10        1           0.000035711   -0.000085456   -0.000000533
     11        1           0.000228930    0.000114407    0.000170734
     12        1           0.000203197    0.000124706   -0.000191731
     13        1          -0.000141564    0.000122831   -0.000146414
     14        1          -0.000095989   -0.000137922    0.000005351
     15        1           0.000217181    0.000246804    0.000110683
 -------------------------------------------------------------------
 Cartesian Forces:  Max     0.004063364 RMS     0.001370433

 GradGradGradGradGradGradGradGradGradGradGradGradGradGradGradGradGradGrad
 Berny optimization.
 Using GEDIIS/GDIIS optimizer.
 FormGI is forming the generalized inverse of G from B-inverse, IUseBI=4.
 Internal  Forces:  Max     0.005876924 RMS     0.001194968
 Search for a local minimum.
 Step number   2 out of a maximum of   68
 All quantities printed in internal units (Hartrees-Bohrs-Radians)
 Mixed Optimization -- RFO/linear search
 Update second derivatives using D2CorX and points    1    2
 DE= -5.15D-03 DEPred=-5.62D-03 R= 9.16D-01
 TightC=F SS=  1.41D+00  RLast= 7.79D-01 DXNew= 5.0454D-01 2.3355D+00
 Trust test= 9.16D-01 RLast= 7.79D-01 DXMaxT set to 5.05D-01
 ITU=  1  0
 Use linear search instead of GDIIS.
     Eigenvalues ---   -0.00137   0.00137   0.00958   0.01260   0.02055
     Eigenvalues ---    0.02666   0.03593   0.05844   0.05925   0.05943
     Eigenvalues ---    0.05978   0.07472   0.11706   0.12719   0.12861
     Eigenvalues ---    0.13980   0.14154   0.14674   0.14788   0.17603
     Eigenvalues ---    0.19487   0.21115   0.21862   0.23933   0.30344
     Eigenvalues ---    0.31140   0.34295   0.35108   0.35255   0.35442
     Eigenvalues ---    0.35577   0.35650   0.35751   0.36753   0.37830
     Eigenvalues ---    0.50614   0.55394   0.74825   0.82349
 RFO step:  Lambda=-1.46611144D-03 EMin=-1.36938204D-03
 I=     1 Eig=   -1.37D-03 Dot1=  2.15D-04
 I=     1 Stepn=  6.00D-01 RXN=   6.00D-01 EDone=F
 Mixed    1 eigenvectors in step.  Raw Step.Grad=  2.15D-04.
 RFO eigenvector is Hessian eigenvector with negative curvature.
 Taking step of  6.00D-01 in eigenvector direction(s).  Step.Grad= -1.80D-05.
 Quartic linear search produced a step of -0.02777.
 Iteration  1 RMS(Cart)=  0.08164011 RMS(Int)=  0.01400674
 Iteration  2 RMS(Cart)=  0.01833083 RMS(Int)=  0.00033316
 Iteration  3 RMS(Cart)=  0.00035789 RMS(Int)=  0.00001758
 Iteration  4 RMS(Cart)=  0.00000013 RMS(Int)=  0.00001758
 Variable       Old X    -DE/DX   Delta X   Delta X   Delta X     New X
                                 (Linear)    (Quad)   (Total)
    R1        2.58218   0.00289  -0.00120  -0.00215  -0.00335   2.57883
    R2        2.51011   0.00588   0.00277   0.00368   0.00645   2.51656
    R3        2.81950   0.00050   0.00028   0.00043   0.00071   2.82021
    R4        2.72327   0.00145   0.00249   0.00355   0.00604   2.72932
    R5        2.03803   0.00003   0.00026   0.00042   0.00068   2.03871
    R6        2.36804   0.00293  -0.00113  -0.00201  -0.00314   2.36490
    R7        2.85301  -0.00013  -0.00027  -0.00038  -0.00065   2.85237
    R8        1.88286   0.00406  -0.00063  -0.00139  -0.00201   1.88085
    R9        2.05464   0.00013   0.00031   0.00048   0.00079   2.05543
   R10        2.06028   0.00003   0.00015   0.00246   0.00261   2.06290
   R11        2.05509  -0.00003   0.00030  -0.00170  -0.00140   2.05369
   R12        2.05340   0.00001   0.00043   0.00070   0.00114   2.05454
   R13        2.05870  -0.00007   0.00028   0.00046   0.00074   2.05943
   R14        2.05873  -0.00007   0.00028   0.00048   0.00076   2.05949
    A1        2.13669   0.00066   0.00044   0.00060   0.00104   2.13773
    A2        2.16882  -0.00047  -0.00067  -0.00116  -0.00183   2.16699
    A3        1.97768  -0.00019   0.00023   0.00056   0.00079   1.97847
    A4        2.10274  -0.00083   0.00087   0.00149   0.00236   2.10509
    A5        2.08633   0.00006   0.00062   0.00104   0.00166   2.08799
    A6        2.09412   0.00077  -0.00149  -0.00253  -0.00402   2.09009
    A7        2.13052  -0.00109  -0.00074  -0.00117  -0.00196   2.12856
    A8        2.08176   0.00014  -0.00074  -0.00125  -0.00205   2.07971
    A9        2.07060   0.00096   0.00149   0.00194   0.00337   2.07397
   A10        1.82958   0.00276   0.00170   0.00232   0.00402   1.83360
   A11        1.96105  -0.00021  -0.00040  -0.00044  -0.00086   1.96018
   A12        1.89668   0.00032   0.00022  -0.00457  -0.00436   1.89232
   A13        1.90769  -0.00040  -0.00008   0.00460   0.00451   1.91220
   A14        1.89651   0.00002  -0.00009  -0.00925  -0.00938   1.88713
   A15        1.91811   0.00027  -0.00069   0.00800   0.00730   1.92540
   A16        1.88202   0.00001   0.00110   0.00151   0.00262   1.88464
   A17        1.94202   0.00000   0.00041   0.00071   0.00112   1.94314
   A18        1.91294  -0.00014   0.00028   0.00053   0.00080   1.91375
   A19        1.91280  -0.00011   0.00028   0.00040   0.00069   1.91348
   A20        1.90749   0.00019  -0.00067  -0.00110  -0.00177   1.90572
   A21        1.90747   0.00018  -0.00067  -0.00112  -0.00178   1.90568
   A22        1.88005  -0.00013   0.00034   0.00057   0.00092   1.88096
    D1        0.00365  -0.00001  -0.00010   0.00293   0.00283   0.00648
    D2       -3.14062  -0.00000  -0.00003   0.00075   0.00072  -3.13990
    D3       -3.14010   0.00000  -0.00004   0.00116   0.00112  -3.13898
    D4       -0.00119   0.00002   0.00003  -0.00102  -0.00099  -0.00218
    D5       -0.00174  -0.00001   0.00005  -0.00140  -0.00136  -0.00309
    D6       -3.14139  -0.00003  -0.00001   0.00019   0.00019  -3.14120
    D7        0.00176  -0.00001  -0.00005   0.00144   0.00140   0.00316
    D8       -2.11001  -0.00016   0.00033   0.00202   0.00235  -2.10766
    D9        2.11341   0.00015  -0.00043   0.00077   0.00035   2.11375
   D10        3.14137   0.00001   0.00001  -0.00018  -0.00018   3.14119
   D11        1.02960  -0.00014   0.00039   0.00039   0.00077   1.03037
   D12       -1.03017   0.00016  -0.00037  -0.00086  -0.00123  -1.03140
   D13       -0.00298  -0.00005   0.00008  -0.00232  -0.00226  -0.00525
   D14        3.11200   0.00000   0.00082  -0.02370  -0.02285   3.08916
   D15        3.14130  -0.00006   0.00001  -0.00014  -0.00016   3.14114
   D16       -0.02690  -0.00001   0.00075  -0.02152  -0.02074  -0.04764
   D17        0.30649   0.00018  -0.00851   0.24517   0.23668   0.54318
   D18       -1.79279   0.00007  -0.00829   0.26011   0.25183  -1.54096
   D19        2.44066   0.00010  -0.00970   0.25832   0.24864   2.68930
   D20       -2.86079   0.00020  -0.00780   0.22448   0.21667  -2.64411
   D21        1.32312   0.00009  -0.00758   0.23943   0.23181   1.55493
   D22       -0.72663   0.00012  -0.00899   0.23763   0.22863  -0.49800
         Item               Value     Threshold  Converged?
 Maximum Force            0.005877     0.000450     NO 
 RMS     Force            0.001195     0.000300     NO 
 Maximum Displacement     0.397623     0.001800     NO 
 RMS     Displacement     0.097502     0.001200     NO 
 Predicted change in Energy=-4.342547D-04
 GradGradGradGradGradGradGradGradGradGradGradGradGradGradGradGradGradGrad

                          Input orientation:                          
 ---------------------------------------------------------------------
 Center     Atomic      Atomic             Coordinates (Angstroms)
 Number     Number       Type             X           Y           Z
 ---------------------------------------------------------------------
      1          6           0       -2.207811    3.873612   -0.010655
      2          6           0       -2.310462    2.512832   -0.004755
      3          6           0       -1.129100    1.685790   -0.084516
      4          8           0       -1.036863    4.502134   -0.095966
      5          8           0        0.019002    2.176952   -0.166682
      6          6           0       -1.275056    0.185478   -0.006575
      7          6           0       -3.373212    4.802238    0.071336
      8          1           0       -3.283250    2.051571    0.064600
      9          1           0       -0.356967    3.776822   -0.143839
     10          1           0       -4.310537    4.255576    0.139302
     11          1           0       -3.394778    5.441994   -0.810661
     12          1           0       -3.268906    5.444469    0.945637
     13          1           0       -2.218624   -0.159783   -0.423152
     14          1           0       -1.238892   -0.110544    1.043538
     15          1           0       -0.441108   -0.288268   -0.517611
 ---------------------------------------------------------------------
                    Distance matrix (angstroms):
                    1          2          3          4          5
     1  C    0.000000
     2  C    1.364658   0.000000
     3  C    2.440417   1.444291   0.000000
     4  O    1.331705   2.363830   2.817877   0.000000
     5  O    2.803872   2.359119   1.251451   2.554667   0.000000
     6  C    3.804258   2.547283   1.509409   4.324147   2.380376
     7  C    1.492390   2.525193   3.843510   2.361478   4.296032
     8  H    2.117089   1.078837   2.190067   3.328257   3.312716
     9  H    1.858153   2.330914   2.229826   0.995303   1.643612
    10  H    2.142392   2.656729   4.095783   3.291365   4.812403
    11  H    2.123375   3.225711   4.446307   2.637023   4.767505
    12  H    2.123208   3.227437   4.446082   2.637224   4.766997
    13  H    4.054447   2.706726   2.169765   4.820485   3.245471
    14  H    4.233630   3.021471   2.124001   4.755637   2.877424
    15  H    4.549668   3.406416   2.134903   4.845684   2.532224
                    6          7          8          9         10
     6  C    0.000000
     7  C    5.071765   0.000000
     8  H    2.742301   2.752146   0.000000
     9  H    3.709377   3.193041   3.403392   0.000000
    10  H    5.079481   1.087216   2.432805   3.992505   0.000000
    11  H    5.724573   1.089804   3.503354   3.527853   1.774438
    12  H    5.704308   1.089836   3.505451   3.528087   1.774440
    13  H    1.087687   5.118519   2.502282   4.363559   4.918115
    14  H    1.091638   5.443889   3.132485   4.159240   5.414393
    15  H    1.086766   5.904010   3.727142   4.083104   6.004210
                   11         12         13         14         15
    11  H    0.000000
    12  H    1.760805   0.000000
    13  H    5.737020   5.863814   0.000000
    14  H    6.238315   5.915126   1.764506   0.000000
    15  H    6.453367   6.557576   1.784655   1.762166   0.000000
 Stoichiometry    C5H8O2
 Framework group  C1[X(C5H8O2)]
 Deg. of freedom    39
 Full point group                 C1      NOp   1
 Largest Abelian subgroup         C1      NOp   1
 Largest concise Abelian subgroup C1      NOp   1
                         Standard orientation:                         
 ---------------------------------------------------------------------
 Center     Atomic      Atomic             Coordinates (Angstroms)
 Number     Number       Type             X           Y           Z
 ---------------------------------------------------------------------
      1          6           0       -1.196440   -0.086321   -0.000646
      2          6           0        0.001566   -0.739405   -0.024245
      3          6           0        1.242325   -0.000155   -0.025845
      4          8           0       -1.286557    1.242244    0.014491
      5          8           0        1.267963    1.250951   -0.011510
      6          6           0        2.548466   -0.755463    0.016827
      7          6           0       -2.523267   -0.769484    0.006018
      8          1           0        0.020955   -1.817988   -0.037368
      9          1           0       -0.345184    1.565352    0.007655
     10          1           0       -2.411440   -1.850854   -0.007113
     11          1           0       -3.100009   -0.458398   -0.864767
     12          1           0       -3.080868   -0.477826    0.895827
     13          1           0        2.482529   -1.722526   -0.476634
     14          1           0        2.815004   -0.924890    1.061779
     15          1           0        3.331865   -0.153463   -0.435880
 ---------------------------------------------------------------------
 Rotational constants (GHZ):           5.8292811           1.7074123           1.3426689
 Standard basis: 6-31G(d,p) (6D, 7F)
 There are   145 symmetry adapted cartesian basis functions of A   symmetry.
 There are   145 symmetry adapted basis functions of A   symmetry.
   145 basis functions,   252 primitive gaussians,   145 cartesian basis functions
    27 alpha electrons       27 beta electrons
       nuclear repulsion energy       297.9425838734 Hartrees.
 NAtoms=   15 NActive=   15 NUniq=   15 SFac= 1.00D+00 NAtFMM=   60 NAOKFM=F Big=F
 Integral buffers will be    131072 words long.
 Raffenetti 1 integral format.
 Two-electron integral symmetry is turned on.
 One-electron integrals computed using PRISM.
 NBasis=   145 RedAO= T EigKep=  1.63D-03  NBF=   145
 NBsUse=   145 1.00D-06 EigRej= -1.00D+00 NBFU=   145
 Initial guess from the checkpoint file:  "2.chk"
 B after Tr=     0.000000   -0.000000   -0.000000
         Rot=    0.999981   -0.006110    0.001144   -0.000104 Ang=  -0.71 deg.
 ExpMin= 1.61D-01 ExpMax= 5.48D+03 ExpMxC= 8.25D+02 IAcc=2 IRadAn=         4 AccDes= 0.00D+00
 Harris functional with IExCor=  205 and IRadAn=       4 diagonalized for initial guess.
 HarFok:  IExCor=  205 AccDes= 0.00D+00 IRadAn=         4 IDoV= 1 UseB2=F ITyADJ=14
 ICtDFT=  3500011 ScaDFX=  1.000000  1.000000  1.000000  1.000000
 FoFCou: FMM=F IPFlag=           0 FMFlag=      100000 FMFlg1=           0
         NFxFlg=           0 DoJE=T BraDBF=F KetDBF=T FulRan=T
         wScrn=  0.000000 ICntrl=       500 IOpCl=  0 I1Cent=   200000004 NGrid=           0
         NMat0=    1 NMatS0=      1 NMatT0=    0 NMatD0=    1 NMtDS0=    0 NMtDT0=    0
 Petite list used in FoFCou.
 Requested convergence on RMS density matrix=1.00D-08 within 128 cycles.
 Requested convergence on MAX density matrix=1.00D-06.
 Requested convergence on             energy=1.00D-06.
 No special actions if energy rises.
 Integral accuracy reduced to 1.0D-05 until final iterations.
 Initial convergence to 1.0D-05 achieved.  Increase integral accuracy.
 SCF Done:  E(RHF) =  -343.738397597     A.U. after   13 cycles
            NFock= 13  Conv=0.49D-08     -V/T= 2.0023
 ExpMin= 1.61D-01 ExpMax= 5.48D+03 ExpMxC= 8.25D+02 IAcc=3 IRadAn=         5 AccDes= 0.00D+00
 HarFok:  IExCor=  205 AccDes= 0.00D+00 IRadAn=         5 IDoV=-2 UseB2=F ITyADJ=14
 ICtDFT= 12500011 ScaDFX=  1.000000  1.000000  1.000000  1.000000
 Range of M.O.s used for correlation:     8   145
 NBasis=   145 NAE=    27 NBE=    27 NFC=     7 NFV=     0
 NROrb=    138 NOA=    20 NOB=    20 NVA=   118 NVB=   118
 Fully direct method using O(ONN) memory.
 JobTyp=1 Pass  1:  I=   8 to  27 NPSUse= 28 ParTrn=T ParDer=T DoDerP=T.
 Spin components of T(2) and E(2):
     alpha-alpha T2 =       0.4274023822D-01 E2=     -0.1331948457D+00
     alpha-beta  T2 =       0.2428511477D+00 E2=     -0.7796007752D+00
     beta-beta   T2 =       0.4274023822D-01 E2=     -0.1331948457D+00
 ANorm=    0.1152532700D+01
 E2 =    -0.1045990466D+01 EUMP2 =    -0.34478438806375D+03
          IDoAtm=111111111111111
          Differentiating once with respect to electric field.
                with respect to dipole field.
          Differentiating once with respect to nuclear coordinates.
 Keep R1 ints in memory in canonical form, NReq=62016499.
          There are     1 degrees of freedom in the 1st order CPHF.  IDoFFX=0 NUNeed=     1.
 LinEq1:  Iter=  0 NonCon=     1 RMS=5.53D-03 Max=1.48D-01 NDo=     1
 AX will form     1 AO Fock derivatives at one time.
 LinEq1:  Iter=  1 NonCon=     1 RMS=1.93D-03 Max=3.75D-02 NDo=     1
 LinEq1:  Iter=  2 NonCon=     1 RMS=6.68D-04 Max=1.48D-02 NDo=     1
 LinEq1:  Iter=  3 NonCon=     1 RMS=2.70D-04 Max=3.34D-03 NDo=     1
 LinEq1:  Iter=  4 NonCon=     1 RMS=8.44D-05 Max=1.37D-03 NDo=     1
 LinEq1:  Iter=  5 NonCon=     1 RMS=3.66D-05 Max=1.07D-03 NDo=     1
 LinEq1:  Iter=  6 NonCon=     1 RMS=1.23D-05 Max=2.98D-04 NDo=     1
 LinEq1:  Iter=  7 NonCon=     1 RMS=3.26D-06 Max=4.29D-05 NDo=     1
 LinEq1:  Iter=  8 NonCon=     1 RMS=1.31D-06 Max=2.90D-05 NDo=     1
 LinEq1:  Iter=  9 NonCon=     1 RMS=3.24D-07 Max=3.33D-06 NDo=     1
 LinEq1:  Iter= 10 NonCon=     1 RMS=1.18D-07 Max=1.90D-06 NDo=     1
 LinEq1:  Iter= 11 NonCon=     1 RMS=3.20D-08 Max=5.44D-07 NDo=     1
 LinEq1:  Iter= 12 NonCon=     1 RMS=6.85D-09 Max=7.09D-08 NDo=     1
 LinEq1:  Iter= 13 NonCon=     1 RMS=1.62D-09 Max=2.37D-08 NDo=     1
 LinEq1:  Iter= 14 NonCon=     1 RMS=4.83D-10 Max=1.17D-08 NDo=     1
 LinEq1:  Iter= 15 NonCon=     1 RMS=1.72D-10 Max=4.97D-09 NDo=     1
 LinEq1:  Iter= 16 NonCon=     0 RMS=3.64D-11 Max=7.11D-10 NDo=     1
 Linear equations converged to 1.000D-10 1.000D-09 after    16 iterations.
 End of Minotr F.D. properties file   721 does not exist.
 End of Minotr F.D. properties file   722 does not exist.
 End of Minotr F.D. properties file   788 does not exist.
 Symmetrizing basis deriv contribution to polar:
 IMax=3 JMax=2 DiffMx= 0.00D+00
 Calling FoFJK, ICntrl=  10002127 FMM=F ISym2X=0 I1Cent= 0 IOpClX= 0 NMat=1 NMatS=1 NMatT=0.
 ***** Axes restored to original set *****
 -------------------------------------------------------------------
 Center     Atomic                   Forces (Hartrees/Bohr)
 Number     Number              X              Y              Z
 -------------------------------------------------------------------
      1        6          -0.002280811    0.001616943   -0.000124483
      2        6          -0.001306086   -0.004605979   -0.000108022
      3        6          -0.001931739   -0.002428755    0.001010007
      4        8          -0.000130584    0.003601762    0.000073057
      5        8           0.003695787    0.002336124   -0.000966107
      6        6          -0.000032496   -0.000243526    0.001397829
      7        6          -0.000999061    0.000368121    0.000220967
      8        1          -0.000237711    0.000502170   -0.000014872
      9        1           0.002858980   -0.001992562   -0.000242385
     10        1           0.000522878   -0.000124534   -0.000035376
     11        1           0.000370681    0.000034159    0.000426634
     12        1           0.000262638    0.000072056   -0.000485568
     13        1          -0.000205103    0.000427723   -0.000403063
     14        1          -0.000517941   -0.000092241   -0.000353576
     15        1          -0.000069431    0.000528539   -0.000395043
 -------------------------------------------------------------------
 Cartesian Forces:  Max     0.004605979 RMS     0.001432315

 GradGradGradGradGradGradGradGradGradGradGradGradGradGradGradGradGradGrad
 Berny optimization.
 Using GEDIIS/GDIIS optimizer.
 FormGI is forming the generalized inverse of G from B-inverse, IUseBI=4.
 Internal  Forces:  Max     0.004370876 RMS     0.001077987
 Search for a local minimum.
 Step number   3 out of a maximum of   68
 All quantities printed in internal units (Hartrees-Bohrs-Radians)
 Mixed Optimization -- RFO/linear search
 Update second derivatives using D2CorX and points    2    3
 ITU=  0  1  0
 Use linear search instead of GDIIS.
     Eigenvalues ---    0.00013   0.00137   0.00975   0.01260   0.02055
     Eigenvalues ---    0.02677   0.03865   0.05851   0.05925   0.05979
     Eigenvalues ---    0.06589   0.07473   0.11878   0.12763   0.12863
     Eigenvalues ---    0.14063   0.14195   0.14674   0.15225   0.17646
     Eigenvalues ---    0.19490   0.21157   0.21935   0.24790   0.30343
     Eigenvalues ---    0.33444   0.34765   0.35108   0.35285   0.35531
     Eigenvalues ---    0.35593   0.35656   0.36676   0.37829   0.38617
     Eigenvalues ---    0.51934   0.64365   0.75295   0.87275
 RFO step:  Lambda=-2.13365942D-04 EMin= 1.32262506D-04
 Quartic linear search produced a step of  0.40523.
 Iteration  1 RMS(Cart)=  0.07693286 RMS(Int)=  0.00564609
 Iteration  2 RMS(Cart)=  0.00586032 RMS(Int)=  0.00002221
 Iteration  3 RMS(Cart)=  0.00002541 RMS(Int)=  0.00000943
 Iteration  4 RMS(Cart)=  0.00000000 RMS(Int)=  0.00000943
 Variable       Old X    -DE/DX   Delta X   Delta X   Delta X     New X
                                 (Linear)    (Quad)   (Total)
    R1        2.57883   0.00361  -0.00136   0.00508   0.00372   2.58255
    R2        2.51656   0.00317   0.00261   0.00762   0.01024   2.52679
    R3        2.82021   0.00010   0.00029   0.00024   0.00053   2.82074
    R4        2.72932   0.00045   0.00245   0.00219   0.00463   2.73395
    R5        2.03871  -0.00000   0.00028  -0.00001   0.00027   2.03897
    R6        2.36490   0.00437  -0.00127   0.00452   0.00324   2.36814
    R7        2.85237  -0.00052  -0.00026  -0.00166  -0.00193   2.85044
    R8        1.88085   0.00342  -0.00082   0.00665   0.00583   1.88668
    R9        2.05543   0.00020   0.00032   0.00077   0.00109   2.05652
   R10        2.06290  -0.00033   0.00106  -0.00060   0.00046   2.06336
   R11        2.05369  -0.00010  -0.00057  -0.00086  -0.00143   2.05226
   R12        2.05454  -0.00039   0.00046  -0.00121  -0.00075   2.05379
   R13        2.05943  -0.00033   0.00030  -0.00084  -0.00054   2.05889
   R14        2.05949  -0.00032   0.00031  -0.00086  -0.00055   2.05894
    A1        2.13773   0.00078   0.00042   0.00188   0.00230   2.14002
    A2        2.16699   0.00012  -0.00074   0.00228   0.00154   2.16853
    A3        1.97847  -0.00091   0.00032  -0.00416  -0.00384   1.97463
    A4        2.10509  -0.00053   0.00095  -0.00203  -0.00108   2.10402
    A5        2.08799  -0.00030   0.00067  -0.00439  -0.00371   2.08428
    A6        2.09009   0.00083  -0.00163   0.00642   0.00479   2.09488
    A7        2.12856  -0.00014  -0.00080  -0.00103  -0.00185   2.12670
    A8        2.07971  -0.00136  -0.00083  -0.00657  -0.00742   2.07229
    A9        2.07397   0.00152   0.00137   0.00795   0.00929   2.08326
   A10        1.83360   0.00137   0.00163   0.00234   0.00397   1.83756
   A11        1.96018  -0.00089  -0.00035  -0.00976  -0.01014   1.95005
   A12        1.89232   0.00076  -0.00177   0.00884   0.00705   1.89937
   A13        1.91220  -0.00068   0.00183  -0.00421  -0.00241   1.90980
   A14        1.88713   0.00007  -0.00380  -0.00332  -0.00713   1.88000
   A15        1.92540   0.00036   0.00296   0.00150   0.00443   1.92983
   A16        1.88464   0.00047   0.00106   0.00784   0.00889   1.89353
   A17        1.94314  -0.00035   0.00045  -0.00080  -0.00035   1.94280
   A18        1.91375  -0.00017   0.00033  -0.00196  -0.00163   1.91211
   A19        1.91348  -0.00006   0.00028  -0.00187  -0.00159   1.91189
   A20        1.90572   0.00041  -0.00072   0.00396   0.00324   1.90896
   A21        1.90568   0.00038  -0.00072   0.00397   0.00325   1.90893
   A22        1.88096  -0.00020   0.00037  -0.00334  -0.00297   1.87799
    D1        0.00648   0.00003   0.00115  -0.00088   0.00027   0.00675
    D2       -3.13990   0.00004   0.00029   0.00023   0.00052  -3.13938
    D3       -3.13898   0.00008   0.00045   0.00072   0.00117  -3.13781
    D4       -0.00218   0.00009  -0.00040   0.00183   0.00143  -0.00075
    D5       -0.00309   0.00006  -0.00055   0.00060   0.00005  -0.00304
    D6       -3.14120   0.00001   0.00008  -0.00085  -0.00077   3.14122
    D7        0.00316  -0.00003   0.00057  -0.00101  -0.00044   0.00272
    D8       -2.10766  -0.00021   0.00095  -0.00414  -0.00319  -2.11085
    D9        2.11375   0.00017   0.00014   0.00220   0.00234   2.11609
   D10        3.14119   0.00002  -0.00007   0.00047   0.00040   3.14159
   D11        1.03037  -0.00015   0.00031  -0.00266  -0.00235   1.02803
   D12       -1.03140   0.00023  -0.00050   0.00368   0.00318  -1.02822
   D13       -0.00525  -0.00020  -0.00092  -0.00034  -0.00127  -0.00651
   D14        3.08916   0.00028  -0.00926   0.00849  -0.00076   3.08840
   D15        3.14114  -0.00020  -0.00007  -0.00143  -0.00150   3.13964
   D16       -0.04764   0.00028  -0.00841   0.00741  -0.00099  -0.04863
   D17        0.54318   0.00013   0.09591   0.08916   0.18507   0.72825
   D18       -1.54096   0.00009   0.10205   0.09346   0.19552  -1.34545
   D19        2.68930  -0.00052   0.10076   0.08132   0.18209   2.87138
   D20       -2.64411   0.00055   0.08780   0.09749   0.18528  -2.45884
   D21        1.55493   0.00052   0.09394   0.10179   0.19572   1.75065
   D22       -0.49800  -0.00010   0.09265   0.08965   0.18230  -0.31570
         Item               Value     Threshold  Converged?
 Maximum Force            0.004371     0.000450     NO 
 RMS     Force            0.001078     0.000300     NO 
 Maximum Displacement     0.328556     0.001800     NO 
 RMS     Displacement     0.076906     0.001200     NO 
 Predicted change in Energy=-1.868444D-04
 GradGradGradGradGradGradGradGradGradGradGradGradGradGradGradGradGradGrad

                          Input orientation:                          
 ---------------------------------------------------------------------
 Center     Atomic      Atomic             Coordinates (Angstroms)
 Number     Number       Type             X           Y           Z
 ---------------------------------------------------------------------
      1          6           0       -2.209026    3.870884   -0.014187
      2          6           0       -2.308174    2.507986    0.004420
      3          6           0       -1.124303    1.683029   -0.100288
      4          8           0       -1.039034    4.506770   -0.135271
      5          8           0        0.020008    2.180294   -0.217358
      6          6           0       -1.273606    0.185045   -0.005447
      7          6           0       -3.372909    4.799342    0.092631
      8          1           0       -3.279507    2.048526    0.102416
      9          1           0       -0.352178    3.784780   -0.196426
     10          1           0       -4.307005    4.252324    0.189645
     11          1           0       -3.415752    5.433737   -0.792106
     12          1           0       -3.242860    5.448791    0.957738
     13          1           0       -2.141200   -0.169211   -0.558706
     14          1           0       -1.412757   -0.089551    1.042142
     15          1           0       -0.368263   -0.291875   -0.369203
 ---------------------------------------------------------------------
                    Distance matrix (angstroms):
                    1          2          3          4          5
     1  C    0.000000
     2  C    1.366627   0.000000
     3  C    2.443512   1.446744   0.000000
     4  O    1.337121   2.371785   2.825245   0.000000
     5  O    2.804990   2.361567   1.253167   2.557498   0.000000
     6  C    3.802696   2.542927   1.508390   4.330032   2.387334
     7  C    1.492671   2.528192   3.847708   2.363157   4.297370
[...]
     beta-beta   T2 =       0.4279069564D-01 E2=     -0.1332226206D+00
 ANorm=    0.1152776029D+01
 E2 =    -0.1046532725D+01 EUMP2 =    -0.34478469729177D+03
 G2DrvN: will do    16 centers at a time, making    1 passes.
 Calling FoFCou, ICntrl=  3107 FMM=F I1Cent=   0 AccDes= 0.00D+00.
 End of G2Drv F.D. properties file   721 does not exist.
 End of G2Drv F.D. properties file   722 does not exist.
 End of G2Drv F.D. properties file   788 does not exist.
          IDoAtm=111111111111111
          Differentiating once with respect to electric field.
                with respect to dipole field.
          Differentiating once with respect to nuclear coordinates.
 Keep R1 ints in memory in canonical form, NReq=62009811.
          There are    48 degrees of freedom in the 1st order CPHF.  IDoFFX=6 NUNeed=    48.
     45 vectors produced by pass  0 Test12= 6.64D-15 2.08D-09 XBig12= 2.02D+01 3.16D+00.
 AX will form    45 AO Fock derivatives at one time.
     45 vectors produced by pass  1 Test12= 6.64D-15 2.08D-09 XBig12= 8.46D-01 2.04D-01.
     45 vectors produced by pass  2 Test12= 6.64D-15 2.08D-09 XBig12= 1.99D-02 4.77D-02.
     45 vectors produced by pass  3 Test12= 6.64D-15 2.08D-09 XBig12= 1.90D-04 3.45D-03.
     45 vectors produced by pass  4 Test12= 6.64D-15 2.08D-09 XBig12= 1.45D-06 2.22D-04.
     45 vectors produced by pass  5 Test12= 6.64D-15 2.08D-09 XBig12= 7.65D-09 1.05D-05.
     35 vectors produced by pass  6 Test12= 6.64D-15 2.08D-09 XBig12= 2.77D-11 6.24D-07.
      6 vectors produced by pass  7 Test12= 6.64D-15 2.08D-09 XBig12= 1.15D-13 4.06D-08.
      2 vectors produced by pass  8 Test12= 6.64D-15 2.08D-09 XBig12= 5.15D-16 3.02D-09.
 InvSVY:  IOpt=1 It=  1 EMax= 1.78D-15
 Solved reduced A of dimension   313 with    48 vectors.
 End of Minotr F.D. properties file   721 does not exist.
 End of Minotr F.D. properties file   722 does not exist.
 End of Minotr F.D. properties file   788 does not exist.
 MDV=  5502926848.
 Form MO integral derivatives with frozen-active canonical formalism.
 Discarding MO integrals.
 Reordered first order wavefunction length =     20301192
 In DefCFB: NBatch=  1 ICI= 27 ICA=118 LFMax= 59
            Large arrays: LIAPS=   267942600 LIARS=    48506850 words.
 Semi-Direct transformation.
 ModeAB=           4 MOrb=            27 LenV=    5502304748
 LASXX=     35746569 LTotXX=    35746569 LenRXX=    72267201
 LTotAB=    36520632 MaxLAS=    38852460 LenRXY=           0
 NonZer=   108013770 LenScr=   162529280 LnRSAI=    38852460
 LnScr1=    58720256 LExtra=           0 Total=    332369197
 MaxDsk=          -1 SrtSym=           T ITran=            4
 JobTyp=0 Pass  1:  I=   1 to  27.
 (rs|ai) integrals will be sorted in core.
 Spin components of T(2) and E(2):
     alpha-alpha T2 =       0.4279069564D-01 E2=     -0.1332226206D+00
     alpha-beta  T2 =       0.2433111818D+00 E2=     -0.7800874833D+00
     beta-beta   T2 =       0.4279069564D-01 E2=     -0.1332226206D+00
 ANorm=    0.1630271495D+01
 E2 =    -0.1046532725D+01 EUMP2 =    -0.34478469729177D+03
          IDoAtm=111111111111111
          Differentiating once with respect to electric field.
                with respect to dipole field.
          Differentiating once with respect to nuclear coordinates.
          There are     1 degrees of freedom in the 1st order CPHF.  IDoFFX=0 NUNeed=     1.
 LinEq1:  Iter=  0 NonCon=     1 RMS=5.53D-03 Max=1.50D-01 NDo=     1
 LinEq1:  Iter=  1 NonCon=     1 RMS=1.93D-03 Max=4.00D-02 NDo=     1
 LinEq1:  Iter=  2 NonCon=     1 RMS=6.71D-04 Max=1.51D-02 NDo=     1
 LinEq1:  Iter=  3 NonCon=     1 RMS=2.74D-04 Max=3.78D-03 NDo=     1
 LinEq1:  Iter=  4 NonCon=     1 RMS=8.58D-05 Max=1.41D-03 NDo=     1
 LinEq1:  Iter=  5 NonCon=     1 RMS=3.74D-05 Max=1.11D-03 NDo=     1
 LinEq1:  Iter=  6 NonCon=     1 RMS=1.24D-05 Max=2.99D-04 NDo=     1
 LinEq1:  Iter=  7 NonCon=     1 RMS=3.29D-06 Max=4.16D-05 NDo=     1
 LinEq1:  Iter=  8 NonCon=     1 RMS=1.32D-06 Max=2.90D-05 NDo=     1
 LinEq1:  Iter=  9 NonCon=     1 RMS=3.28D-07 Max=3.35D-06 NDo=     1
 LinEq1:  Iter= 10 NonCon=     1 RMS=1.17D-07 Max=1.87D-06 NDo=     1
 LinEq1:  Iter= 11 NonCon=     1 RMS=3.22D-08 Max=5.26D-07 NDo=     1
 LinEq1:  Iter= 12 NonCon=     1 RMS=6.79D-09 Max=6.92D-08 NDo=     1
 LinEq1:  Iter= 13 NonCon=     1 RMS=1.53D-09 Max=1.36D-08 NDo=     1
 LinEq1:  Iter= 14 NonCon=     1 RMS=4.02D-10 Max=3.80D-09 NDo=     1
 LinEq1:  Iter= 15 NonCon=     1 RMS=1.06D-10 Max=1.04D-09 NDo=     1
 LinEq1:  Iter= 16 NonCon=     0 RMS=1.71D-11 Max=1.76D-10 NDo=     1
 Linear equations converged to 1.000D-10 1.000D-09 after    16 iterations.
 End of Minotr F.D. properties file   721 does not exist.
 End of Minotr F.D. properties file   722 does not exist.
 End of Minotr F.D. properties file   788 does not exist.
 Symmetrizing basis deriv contribution to polar:
 IMax=3 JMax=2 DiffMx= 0.00D+00
 G2DrvN: will do    16 centers at a time, making    1 passes.
 Calling FoFCou, ICntrl=  3107 FMM=F I1Cent=   0 AccDes= 0.00D+00.
 End of G2Drv F.D. properties file   721 does not exist.
 End of G2Drv F.D. properties file   722 does not exist.
 End of G2Drv F.D. properties file   788 does not exist.
 R2 and R3 integrals will be kept in memory, NReq=   113608805.
 DD1Dir will call FoFMem   1 times, MxPair=       756
 NAB=   378 NAA=     0 NBB=     0.
 Discarding MO integrals.

 **********************************************************************

            Population analysis using the MP2 density.

 **********************************************************************

 Alpha  occ. eigenvalues --  -20.59082 -20.54764 -11.34003 -11.33986 -11.24291
 Alpha  occ. eigenvalues --  -11.23425 -11.21727  -1.41606  -1.36354  -1.07918
 Alpha  occ. eigenvalues --   -1.02307  -0.97011  -0.81368  -0.77507  -0.68598
 Alpha  occ. eigenvalues --   -0.66322  -0.62280  -0.59977  -0.59686  -0.58802
 Alpha  occ. eigenvalues --   -0.56947  -0.54491  -0.54161  -0.53606  -0.49792
 Alpha  occ. eigenvalues --   -0.41510  -0.34666
 Alpha virt. eigenvalues --    0.10928   0.23739   0.24074   0.25452   0.27591
 Alpha virt. eigenvalues --    0.30193   0.32087   0.32858   0.34990   0.35095
 Alpha virt. eigenvalues --    0.39481   0.40147   0.45376   0.53132   0.57783
 Alpha virt. eigenvalues --    0.61772   0.72059   0.74130   0.75298   0.76101
 Alpha virt. eigenvalues --    0.77898   0.80284   0.81446   0.82561   0.85205
 Alpha virt. eigenvalues --    0.90124   0.91565   0.93638   0.95015   0.95988
 Alpha virt. eigenvalues --    1.04718   1.07933   1.09884   1.11074   1.12928
 Alpha virt. eigenvalues --    1.13394   1.16312   1.16790   1.18617   1.21215
 Alpha virt. eigenvalues --    1.24443   1.29514   1.31398   1.32754   1.35954
 Alpha virt. eigenvalues --    1.42519   1.45730   1.51493   1.53163   1.54138
 Alpha virt. eigenvalues --    1.63311   1.66726   1.70319   1.72980   1.80332
 Alpha virt. eigenvalues --    1.86835   1.91220   1.98483   2.00214   2.01544
 Alpha virt. eigenvalues --    2.05602   2.07686   2.09882   2.13626   2.14260
 Alpha virt. eigenvalues --    2.19532   2.21606   2.30914   2.32010   2.32270
 Alpha virt. eigenvalues --    2.33524   2.35613   2.37672   2.39236   2.39738
 Alpha virt. eigenvalues --    2.46305   2.48184   2.48413   2.51093   2.60520
 Alpha virt. eigenvalues --    2.68958   2.69864   2.75750   2.78616   2.80896
 Alpha virt. eigenvalues --    2.82973   2.89414   2.90233   2.93130   2.95227
 Alpha virt. eigenvalues --    2.99602   3.00167   3.05682   3.10742   3.12849
 Alpha virt. eigenvalues --    3.16309   3.19461   3.22563   3.24636   3.29159
 Alpha virt. eigenvalues --    3.40600   3.50396   3.51461   3.56953   3.58229
 Alpha virt. eigenvalues --    3.78848   3.79201   3.80859   3.81405   3.92098
 Alpha virt. eigenvalues --    3.99681   4.42628   4.52984   4.66306   4.80835
 Alpha virt. eigenvalues --    4.82678   4.98011   5.08612
          Condensed to atoms (all electrons):
               1          2          3          4          5          6
     1  C    4.710181   0.449915  -0.020001   0.313359  -0.000028   0.004519
     2  C    0.449915   5.506822   0.292149  -0.062987  -0.091151  -0.110576
     3  C   -0.020001   0.292149   4.659376  -0.007715   0.472118   0.319607
     4  O    0.313359  -0.062987  -0.007715   8.133119  -0.039898  -0.000172
     5  O   -0.000028  -0.091151   0.472118  -0.039898   8.153467  -0.071677
     6  C    0.004519  -0.110576   0.319607  -0.000172  -0.071677   5.172437
     7  C    0.332060  -0.060872   0.003376  -0.067330   0.000080  -0.000147
     8  H   -0.026676   0.358620  -0.028189   0.002783   0.002909  -0.000670
     9  H   -0.024204  -0.016804  -0.007524   0.265591   0.078033   0.002003
    10  H   -0.035600  -0.001089   0.000257   0.003010   0.000008   0.000002
    11  H   -0.031277   0.000343  -0.000117   0.001489   0.000011   0.000003
    12  H   -0.031276   0.000342  -0.000117   0.001489   0.000011   0.000003
    13  H   -0.000157   0.001543  -0.029233   0.000009   0.001507   0.364900
    14  H   -0.000157   0.001544  -0.029226   0.000009   0.001509   0.364890
    15  H   -0.000110   0.005709  -0.030383   0.000007   0.005165   0.364991
               7          8          9         10         11         12
     1  C    0.332060  -0.026676  -0.024204  -0.035600  -0.031277  -0.031276
     2  C   -0.060872   0.358620  -0.016804  -0.001089   0.000343   0.000342
     3  C    0.003376  -0.028189  -0.007524   0.000257  -0.000117  -0.000117
     4  O   -0.067330   0.002783   0.265591   0.003010   0.001489   0.001489
     5  O    0.000080   0.002909   0.078033   0.000008   0.000011   0.000011
     6  C   -0.000147  -0.000670   0.002003   0.000002   0.000003   0.000003
     7  C    5.056662  -0.003218   0.004814   0.374745   0.370218   0.370217
     8  H   -0.003218   0.571439  -0.000019   0.001542   0.000076   0.000076
     9  H    0.004814  -0.000019   0.316932  -0.000164  -0.000075  -0.000075
    10  H    0.374745   0.001542  -0.000164   0.579878  -0.024736  -0.024736
    11  H    0.370218   0.000076  -0.000075  -0.024736   0.562198  -0.027945
    12  H    0.370217   0.000076  -0.000075  -0.024736  -0.027945   0.562197
    13  H    0.000002   0.000414  -0.000071  -0.000002  -0.000000  -0.000000
    14  H    0.000002   0.000415  -0.000071  -0.000002  -0.000000  -0.000000
    15  H    0.000002  -0.000056  -0.000021   0.000000  -0.000000  -0.000000
              13         14         15
     1  C   -0.000157  -0.000157  -0.000110
     2  C    0.001543   0.001544   0.005709
     3  C   -0.029233  -0.029226  -0.030383
     4  O    0.000009   0.000009   0.000007
     5  O    0.001507   0.001509   0.005165
     6  C    0.364900   0.364890   0.364991
     7  C    0.000002   0.000002   0.000002
     8  H    0.000414   0.000415  -0.000056
     9  H   -0.000071  -0.000071  -0.000021
    10  H   -0.000002  -0.000002   0.000000
    11  H   -0.000000  -0.000000  -0.000000
    12  H   -0.000000  -0.000000  -0.000000
    13  H    0.571004  -0.027090  -0.021601
    14  H   -0.027090   0.571003  -0.021594
    15  H   -0.021601  -0.021594   0.550181
 Mulliken charges:
               1
     1  C    0.359452
     2  C   -0.273509
     3  C    0.405623
     4  O   -0.542763
     5  O   -0.512064
     6  C   -0.410113
     7  C   -0.380609
     8  H    0.120556
     9  H    0.381656
    10  H    0.126887
    11  H    0.149814
    12  H    0.149815
    13  H    0.138774
    14  H    0.138769
    15  H    0.147711
 Sum of Mulliken charges =  -0.00000
 Mulliken charges with hydrogens summed into heavy atoms:
               1
     1  C    0.359452
     2  C   -0.152953
     3  C    0.405623
     4  O   -0.161107
     5  O   -0.512064
     6  C    0.015142
     7  C    0.045907
 APT charges:
               1
     1  C    0.747370
     2  C   -0.677785
     3  C    0.902199
     4  O   -0.694571
     5  O   -0.649852
     6  C   -0.090789
     7  C   -0.008433
     8  H    0.048049
     9  H    0.375161
    10  H    0.007487
    11  H    0.005706
    12  H    0.005704
    13  H    0.007542
    14  H    0.007552
    15  H    0.014662
 Sum of APT charges =  -0.00000
 APT charges with hydrogens summed into heavy atoms:
               1
     1  C    0.747370
     2  C   -0.629736
     3  C    0.902199
     4  O   -0.319410
     5  O   -0.649852
     6  C   -0.061033
     7  C    0.010463
 Electronic spatial extent (au):  <R**2>=            890.1824
 Charge=             -0.0000 electrons
 Dipole moment (field-independent basis, Debye):
    X=             -0.2335    Y=             -2.8797    Z=              0.0000  Tot=              2.8891
 Quadrupole moment (field-independent basis, Debye-Ang):
   XX=            -39.5714   YY=            -43.6546   ZZ=            -42.4728
   XY=             -0.6054   XZ=             -0.0002   YZ=              0.0001
 Traceless Quadrupole moment (field-independent basis, Debye-Ang):
   XX=              2.3282   YY=             -1.7550   ZZ=             -0.5732
   XY=             -0.6054   XZ=             -0.0002   YZ=              0.0001
 Octapole moment (field-independent basis, Debye-Ang**2):
  XXX=             -1.9528  YYY=              4.3477  ZZZ=             -0.0009  XYY=             -0.7701
  XXY=             -7.9678  XXZ=             -0.0007  XZZ=             -0.3369  YZZ=              3.5918
  YYZ=              0.0005  XYZ=             -0.0004
 Hexadecapole moment (field-independent basis, Debye-Ang**3):
 XXXX=           -820.4884 YYYY=           -245.9356 ZZZZ=            -53.1119 XXXY=              3.4607
 XXXZ=             -0.0030 YYYX=             -1.6071 YYYZ=             -0.0009 ZZZX=              0.0002
 ZZZY=              0.0007 XXYY=           -197.1700 XXZZ=           -145.3723 YYZZ=            -51.7390
 XXYZ=             -0.0004 YYXZ=              0.0003 ZZXY=             -2.4188
 N-N= 2.976765789490D+02 E-N=-1.402018746470D+03  KE= 3.440273161565D+02
  Exact polarizability:  83.661  -2.120  59.219   0.001  -0.001  35.266
 Approx polarizability:  58.497  -2.355  55.125   0.001  -0.001  35.428
 Calling FoFJK, ICntrl=  10100127 FMM=F ISym2X=0 I1Cent= 0 IOpClX= 0 NMat=1 NMatS=1 NMatT=0.
 -------------------------------------------------------------------
 Center     Atomic                   Forces (Hartrees/Bohr)
 Number     Number              X              Y              Z
 -------------------------------------------------------------------
      1        6          -0.000147000    0.002244662    0.000003889
      2        6           0.000541321   -0.000678908    0.000005547
      3        6          -0.000362420   -0.000907081   -0.000019524
      4        8          -0.000925356   -0.000822517   -0.000000170
      5        8           0.000368620    0.000940156    0.000007495
      6        6           0.000716942   -0.000254423   -0.000010546
      7        6           0.001127863    0.000122434   -0.000001281
      8        1           0.000243080   -0.000054167   -0.000000423
      9        1           0.000255449   -0.000587097   -0.000001517
     10        1          -0.000449342   -0.000047809   -0.000000007
     11        1          -0.000381127   -0.000114821    0.000246193
     12        1          -0.000380686   -0.000114636   -0.000246077
     13        1          -0.000248649    0.000050088   -0.000064099
     14        1          -0.000243013    0.000048037    0.000073573
     15        1          -0.000115682    0.000176084    0.000006948
 -------------------------------------------------------------------
 Cartesian Forces:  Max     0.002244662 RMS     0.000526639
 NDeriv=     39 NFrqRd=  0 NDerD0=      0 MskFDP=       0 MskDFD=       0 MskDF0=       0
 Re-enter D2Numr:  normal mode  23 step-up   number 1
 Standard basis: 6-31G(d,p) (6D, 7F)
   145 basis functions,   252 primitive gaussians,   145 cartesian basis functions
    27 alpha electrons       27 beta electrons
       nuclear repulsion energy       297.6714700690 Hartrees.
 NAtoms=   15 NActive=   15 NUniq=   15 SFac= 1.00D+00 NAtFMM=   60 NAOKFM=F Big=F
 Integral buffers will be    131072 words long.
 Raffenetti 1 integral format.
 Two-electron integral symmetry is turned off.
 One-electron integrals computed using PRISM.
 NBasis=   145 RedAO= T EigKep=  1.65D-03  NBF=   145
 NBsUse=   145 1.00D-06 EigRej= -1.00D+00 NBFU=   145
 Initial guess from the checkpoint file:  "2.chk"
 B after Tr=    -0.000152   -0.000074    0.000000
         Rot=    1.000000   -0.000000    0.000000   -0.000000 Ang=  -0.00 deg.
 Requested convergence on RMS density matrix=1.00D-08 within 128 cycles.
 Requested convergence on MAX density matrix=1.00D-06.
 Requested convergence on             energy=1.00D-06.
 No special actions if energy rises.
 SCF Done:  E(RHF) =  -343.737898656     A.U. after   10 cycles
            NFock= 10  Conv=0.30D-08     -V/T= 2.0024
 ExpMin= 1.61D-01 ExpMax= 5.48D+03 ExpMxC= 8.25D+02 IAcc=3 IRadAn=         5 AccDes= 0.00D+00
 HarFok:  IExCor=  205 AccDes= 0.00D+00 IRadAn=         5 IDoV=-2 UseB2=F ITyADJ=14
 ICtDFT= 12500011 ScaDFX=  1.000000  1.000000  1.000000  1.000000
 Range of M.O.s used for correlation:     8   145
 NBasis=   145 NAE=    27 NBE=    27 NFC=     7 NFV=     0
 NROrb=    138 NOA=    20 NOB=    20 NVA=   118 NVB=   118
 Disk-based method using ON**2 memory for 20 occupieds at a time.
 Permanent disk used for amplitudes=    12573549 words.
 Estimated scratch disk usage=   111240800 words.
 Actual    scratch disk usage=   104425056 words.
 JobTyp=1 Pass  1:  I=   8 to  27 NPSUse= 28 ParTrn=T ParDer=T DoDerP=T.
 (rs|ai) integrals will be sorted in core.
 Spin components of T(2) and E(2):
     alpha-alpha T2 =       0.4282835859D-01 E2=     -0.1332860884D+00
     alpha-beta  T2 =       0.2434114122D+00 E2=     -0.7802261951D+00
     beta-beta   T2 =       0.4282835859D-01 E2=     -0.1332860884D+00
 ANorm=    0.1152852172D+01
 E2 =    -0.1046798372D+01 EUMP2 =    -0.34478469702824D+03
 G2DrvN: will do    16 centers at a time, making    1 passes.
 Calling FoFCou, ICntrl=  3107 FMM=F I1Cent=   0 AccDes= 0.00D+00.
 End of G2Drv F.D. properties file   721 does not exist.
 End of G2Drv F.D. properties file   722 does not exist.
 End of G2Drv F.D. properties file   788 does not exist.
          IDoAtm=111111111111111
          Differentiating once with respect to electric field.
                with respect to dipole field.
          Differentiating once with respect to nuclear coordinates.
 Keep R1 ints in memory in canonical form, NReq=62009906.
          There are    48 degrees of freedom in the 1st order CPHF.  IDoFFX=6 NUNeed=    48.
     45 vectors produced by pass  0 Test12= 6.64D-15 2.08D-09 XBig12= 2.03D+01 3.17D+00.
 AX will form    45 AO Fock derivatives at one time.
     45 vectors produced by pass  1 Test12= 6.64D-15 2.08D-09 XBig12= 8.48D-01 2.06D-01.
     45 vectors produced by pass  2 Test12= 6.64D-15 2.08D-09 XBig12= 1.98D-02 4.76D-02.
     45 vectors produced by pass  3 Test12= 6.64D-15 2.08D-09 XBig12= 1.87D-04 3.44D-03.
     45 vectors produced by pass  4 Test12= 6.64D-15 2.08D-09 XBig12= 1.43D-06 2.20D-04.
     45 vectors produced by pass  5 Test12= 6.64D-15 2.08D-09 XBig12= 7.51D-09 1.06D-05.
     35 vectors produced by pass  6 Test12= 6.64D-15 2.08D-09 XBig12= 2.72D-11 6.32D-07.
      6 vectors produced by pass  7 Test12= 6.64D-15 2.08D-09 XBig12= 1.14D-13 3.99D-08.
      2 vectors produced by pass  8 Test12= 6.64D-15 2.08D-09 XBig12= 5.11D-16 3.03D-09.
 InvSVY:  IOpt=1 It=  1 EMax= 8.88D-16
 Solved reduced A of dimension   313 with    48 vectors.
 End of Minotr F.D. properties file   721 does not exist.
 End of Minotr F.D. properties file   722 does not exist.
 End of Minotr F.D. properties file   788 does not exist.
 MDV=  5502926848.
 Form MO integral derivatives with frozen-active canonical formalism.
 Discarding MO integrals.
 Reordered first order wavefunction length =     20301192
 In DefCFB: NBatch=  1 ICI= 27 ICA=118 LFMax= 59
            Large arrays: LIAPS=   267942600 LIARS=    48506850 words.
