 argument  1 = 2C.nw
 


============================== echo of input deck ==============================
echo
start 2C
title "Me,H,Me Chelate"
charge 0

geometry
 zmatrix
  O
  C  1  R1
  C  2  R2  1  A1
  C  3  R3  2  A2  1  D0
  O  4  R4  3  A3  2  D0
  H  1  R5  2  A4  3  D0
  C  2  R6  3  A5  4  D180
  H  3  R7  2  A6  1  D180
  C  4  R8  3  A7  2  D180
  H  7  R9  2  A8  1  D1
  H  7  R10 2  A9  1  D2
  H  7  R11 2  A10 1  D3
  H  9  R12 4  A11 5  D4
  H  9  R13 4  A12 5  D5
  H  9  R14 4  A13 5  D6
  variables
    R1  1.329
    R2  1.363
    A1  124.5
    R3  1.440
    A2  119.5
    R4  1.249
    A3  123.5
    R5  0.994
    A4  105.4
    R6  1.485
    A5  122.5
    R7  1.078
    A6  120.0
    R8  1.499
    A7  117.6
    R9  1.100
    A8  110.0
    D1  180.0
    R10 1.100
    A9  110.0
    D2  60.00
    R11 1.100
    A10 110.0
    D3  -60.0
    R12 1.100
    A11 110.0
    D4  0.000
    R13 1.100
    A12 110.0
    D5  120.0
    R14 1.100
    A13 110.0
    D6  -120.
  constants
    D0  0.000
    D180 180.0
 end
end

basis spherical
 * library aug-cc-pVDZ
end

set lindep:n_dep 0

set cphf:maxsub 95
set cphf:maxiter 999
set int:acc_std 1d-16
set fock:densityscreen f

scf
 maxiter 99
 vectors input atomic
 thresh 1d-9
 tol2e 1d-15
end

mp2
 freeze atomic
 tight
end

driver
 clear
 maxiter 99
 tight
end

set "mp2:aotol2e fock" 1d-15
set mp2:aotol2e 1d-15
set mp2:backtol 1d-15


task mp2 optimize
task mp2 frequencies


================================================================================


                                         
                                         
 
 
             Northwest Computational Chemistry Package (NWChem) 7.0.0
             --------------------------------------------------------
 
 
                    Environmental Molecular Sciences Laboratory
                       Pacific Northwest National Laboratory
                                Richland, WA 99352
 
                              Copyright (c) 1994-2020
                       Pacific Northwest National Laboratory
                            Battelle Memorial Institute
 
             NWChem is an open-source computational chemistry package
                        distributed under the terms of the
                      Educational Community License (ECL) 2.0
             A copy of the license is included with this distribution
                              in the LICENSE.TXT file
 
                                  ACKNOWLEDGMENT
                                  --------------

            This software and its documentation were developed at the
            EMSL at Pacific Northwest National Laboratory, a multiprogram
            national laboratory, operated for the U.S. Department of Energy
            by Battelle under Contract Number DE-AC05-76RL01830. Support
            for this work was provided by the Department of Energy Office
            of Biological and Environmental Research, Office of Basic
            Energy Sciences, and the Office of Advanced Scientific Computing.


           Job information
           ---------------

    hostname        = compute-0-8.local
    program         = /scratch/nwchem.277679
    date            = Wed Mar 24 17:11:30 2021

    compiled        = Thu_Jun_25_16:07:03_2020
    source          = /home/edo/nwchem-7.0.1
    nwchem branch   = 7.0.1
    nwchem revision = de46fdf
    ga revision     = 5.7.1
    use scalapack   = T
    input           = 2C.nw
    prefix          = 2C.
    data base       = ./2C.db
    status          = startup
    nproc           =       11
    time left       =     -1s



           Memory information
           ------------------

    heap     =   13107196 doubles =    100.0 Mbytes
    stack    =   13107201 doubles =    100.0 Mbytes
    global   =   26214400 doubles =    200.0 Mbytes (distinct from heap & stack)
    total    =   52428797 doubles =    400.0 Mbytes
    verify   = yes
    hardfail = no 


           Directory information
           ---------------------
 
  0 permanent = .
  0 scratch   = /scratch
 
 
 
 
                                NWChem Input Module
                                -------------------
 
 
                                  Me,H,Me Chelate
                                  ---------------

 Scaling coordinates for geometry "geometry" by  1.889725989
 (inverse scale =  0.529177249)

 CS  symmetry detected
 
 
                             Geometry "geometry" -> ""
                             -------------------------
 
 Output coordinates in angstroms (scale by  1.889725989 to convert to a.u.)
 
  No.       Tag          Charge          X              Y              Z
 ---- ---------------- ---------- -------------- -------------- --------------
    1 O                    8.0000    -1.25087031    -1.30585597     0.00000000
    2 C                    6.0000     0.07260477    -1.18479934     0.00000000
    3 C                    6.0000     0.73908879     0.00413634     0.00000000
    4 C                    6.0000    -0.00743394     1.23551923     0.00000000
    5 O                    8.0000    -1.25545056     1.28507246     0.00000000
    6 H                    1.0000    -1.60102686    -0.37557301     0.00000000
    7 C                    6.0000     0.77494175    -2.49321355     0.00000000
    8 H                    1.0000     1.81700220     0.01779977     0.00000000
    9 C                    6.0000     0.76850144     2.51806563     0.00000000
   10 H                    1.0000     1.86362366    -2.33582328     0.00000000
   11 H                    1.0000     0.49750457    -3.06913537    -0.89517745
   12 H                    1.0000     0.49750457    -3.06913537     0.89517745
   13 H                    1.0000     0.07884484     3.37502174     0.00000000
   14 H                    1.0000     1.40544857     2.57243185     0.89517745
   15 H                    1.0000     1.40544857     2.57243185    -0.89517745
 
      Atomic Mass 
      ----------- 
 
      O                 15.994910
      C                 12.000000
      H                  1.007825
 

 Effective nuclear repulsion energy (a.u.)     298.2448816696

            Nuclear Dipole moment (a.u.) 
            ----------------------------
        X                 Y               Z
 ---------------- ---------------- ----------------
    -0.0000000000    -0.0000000000     0.0000000000
 
      Symmetry information
      --------------------
 
 Group name             Cs        
 Group number              2
 Group order               2
 No. of unique centers    13
 
      Symmetry unique atoms
 
     1    2    3    4    5    6    7    8    9   10   11   13   14
 


                                Z-matrix (user)
                                -------- 

 Units are Angstrom for bonds and degrees for angles

  Constants are marked with an asterisk (*).

  Constrained variables are marked with a plus sign (+).

 
      Type          Name      I     J     K     L     M      Value
      ----------- --------  ----- ----- ----- ----- ----- ----------
    1 Stretch      R1          2     1                       1.32900
    2 Stretch      R2          3     2                       1.36300
    3 Bend         A1          3     2     1               124.50000
    4 Stretch      R3          4     3                       1.44000
    5 Bend         A2          4     3     2               119.50000
    6*Torsion      D0          4     3     2     1           0.00000
    7 Stretch      R4          5     4                       1.24900
    8 Bend         A3          5     4     3               123.50000
    9*Torsion      D0          5     4     3     2           0.00000
   10 Stretch      R5          6     1                       0.99400
   11 Bend         A4          6     1     2               105.40000
   12*Torsion      D0          6     1     2     3           0.00000
   13 Stretch      R6          7     2                       1.48500
   14 Bend         A5          7     2     3               122.50000
   15*Torsion      D180        7     2     3     4         180.00000
   16 Stretch      R7          8     3                       1.07800
   17 Bend         A6          8     3     2               120.00000
   18*Torsion      D180        8     3     2     1         180.00000
   19 Stretch      R8          9     4                       1.49900
   20 Bend         A7          9     4     3               117.60000
   21*Torsion      D180        9     4     3     2         180.00000
   22 Stretch      R9         10     7                       1.10000
   23 Bend         A8         10     7     2               110.00000
   24 Torsion      D1         10     7     2     1         180.00000
   25 Stretch      R10        11     7                       1.10000
   26 Bend         A9         11     7     2               110.00000
   27 Torsion      D2         11     7     2     1          60.00000
   28 Stretch      R11        12     7                       1.10000
   29 Bend         A10        12     7     2               110.00000
   30 Torsion      D3         12     7     2     1         -60.00000
   31 Stretch      R12        13     9                       1.10000
   32 Bend         A11        13     9     4               110.00000
   33 Torsion      D4         13     9     4     5           0.00000
   34 Stretch      R13        14     9                       1.10000
   35 Bend         A12        14     9     4               110.00000
   36 Torsion      D5         14     9     4     5         120.00000
   37 Stretch      R14        15     9                       1.10000
   38 Bend         A13        15     9     4               110.00000
   39 Torsion      D6         15     9     4     5        -120.00000
 
 
            XYZ format geometry
            -------------------
    15
 geometry
 O                    -1.25087031    -1.30585597     0.00000000
 C                     0.07260477    -1.18479934     0.00000000
 C                     0.73908879     0.00413634     0.00000000
 C                    -0.00743394     1.23551923     0.00000000
 O                    -1.25545056     1.28507246     0.00000000
 H                    -1.60102686    -0.37557301     0.00000000
 C                     0.77494175    -2.49321355     0.00000000
 H                     1.81700220     0.01779977     0.00000000
 C                     0.76850144     2.51806563     0.00000000
 H                     1.86362366    -2.33582328     0.00000000
 H                     0.49750457    -3.06913537    -0.89517745
 H                     0.49750457    -3.06913537     0.89517745
 H                     0.07884484     3.37502174     0.00000000
 H                     1.40544857     2.57243185     0.89517745
 H                     1.40544857     2.57243185    -0.89517745
 
 ==============================================================================
                                internuclear distances
 ------------------------------------------------------------------------------
       center one      |      center two      | atomic units |  angstroms
 ------------------------------------------------------------------------------
    2 C                |   1 O                |     2.51145  |     1.32900
    3 C                |   2 C                |     2.57570  |     1.36300
    4 C                |   3 C                |     2.72121  |     1.44000
    5 O                |   4 C                |     2.36027  |     1.24900
    6 H                |   1 O                |     1.87839  |     0.99400
    7 C                |   2 C                |     2.80624  |     1.48500
    8 H                |   3 C                |     2.03712  |     1.07800
    9 C                |   4 C                |     2.83270  |     1.49900
   10 H                |   7 C                |     2.07870  |     1.10000
   11 H                |   7 C                |     2.07870  |     1.10000
   12 H                |   7 C                |     2.07870  |     1.10000
   13 H                |   9 C                |     2.07870  |     1.10000
   14 H                |   9 C                |     2.07870  |     1.10000
   15 H                |   9 C                |     2.07870  |     1.10000
 ------------------------------------------------------------------------------
                         number of included internuclear distances:         14
 ==============================================================================



 ==============================================================================
                                 internuclear angles
 ------------------------------------------------------------------------------
        center 1       |       center 2       |       center 3       |  degrees
 ------------------------------------------------------------------------------
    2 C                |   1 O                |   6 H                |   105.40
    1 O                |   2 C                |   3 C                |   124.50
    1 O                |   2 C                |   7 C                |   113.00
    3 C                |   2 C                |   7 C                |   122.50
    2 C                |   3 C                |   4 C                |   119.50
    2 C                |   3 C                |   8 H                |   120.00
    4 C                |   3 C                |   8 H                |   120.50
    3 C                |   4 C                |   5 O                |   123.50
    3 C                |   4 C                |   9 C                |   117.60
    5 O                |   4 C                |   9 C                |   118.90
    2 C                |   7 C                |  10 H                |   110.00
    2 C                |   7 C                |  11 H                |   110.00
    2 C                |   7 C                |  12 H                |   110.00
   10 H                |   7 C                |  11 H                |   108.94
   10 H                |   7 C                |  12 H                |   108.94
   11 H                |   7 C                |  12 H                |   108.94
    4 C                |   9 C                |  13 H                |   110.00
    4 C                |   9 C                |  14 H                |   110.00
    4 C                |   9 C                |  15 H                |   110.00
   13 H                |   9 C                |  14 H                |   108.94
   13 H                |   9 C                |  15 H                |   108.94
   14 H                |   9 C                |  15 H                |   108.94
 ------------------------------------------------------------------------------
                            number of included internuclear angles:         22
 ==============================================================================





 Summary of "ao basis" -> "" (spherical)
 ------------------------------------------------------------------------------
       Tag                 Description            Shells   Functions and Types
 ---------------- ------------------------------  ------  ---------------------
 *                        aug-cc-pVDZ                 on all atoms 


 
  Deleted DRIVER restart files 
 
 
 
                           NWChem Geometry Optimization
                           ----------------------------
 
 
 
 
                                  Me,H,Me Chelate
 
 
 maximum gradient threshold         (gmax) =   0.000015
 rms gradient threshold             (grms) =   0.000010
 maximum cartesian step threshold   (xmax) =   0.000060
 rms cartesian step threshold       (xrms) =   0.000040
 fixed trust radius                (trust) =   0.300000
 maximum step size to saddle      (sadstp) =   0.100000
 energy precision                  (eprec) =   1.0D-07
 maximum number of steps          (nptopt) =   99
 initial hessian option           (inhess) =    0
 line search option               (linopt) =    1
 hessian update option            (modupd) =    1
 saddle point option              (modsad) =    0
 initial eigen-mode to follow     (moddir) =    0
 initial variable to follow       (vardir) =    0
 follow first negative mode     (firstneg) =    T
 apply conjugacy                    (opcg) =    F
 source of zmatrix                         =   user    


          -------------------
          Energy Minimization
          -------------------

 
 Names of Z-matrix variables 
    1 R1           2 R2           3 A1           4 R3           5 A2      
    6 D0           7 R4           8 A3           9 D0          10 R5      
   11 A4          12 D0          13 R6          14 A5          15 D180    
   16 R7          17 A6          18 D180        19 R8          20 A7      
   21 D180        22 R9          23 A8          24 D1          25 R10     
   26 A9          27 D2          28 R11         29 A10         30 D3      
   31 R12         32 A11         33 D4          34 R13         35 A12     
   36 D5          37 R14         38 A13         39 D6      
 
 Variables with the same non-blank name are constrained to be equal
 
     variables named       D0 =     6    9   12 
     variables named     D180 =    15   18   21 

 Number of frozen variables =    6
           Frozen variables =    6    9   12   15   18   21
 
 Using diagonal initial Hessian 
 Scaling for Hessian diagonals: bonds = 1.00  angles = 0.25  torsions = 0.10

          --------
          Step   0
          --------
 
 
                         Geometry "geometry" -> "geometry"
                         ---------------------------------
 
 Output coordinates in angstroms (scale by  1.889725989 to convert to a.u.)
 
  No.       Tag          Charge          X              Y              Z
 ---- ---------------- ---------- -------------- -------------- --------------
    1 O                    8.0000    -1.25087031    -1.30585597     0.00000000
    2 C                    6.0000     0.07260477    -1.18479934     0.00000000
    3 C                    6.0000     0.73908879     0.00413634     0.00000000
    4 C                    6.0000    -0.00743394     1.23551923     0.00000000
    5 O                    8.0000    -1.25545056     1.28507246     0.00000000
    6 H                    1.0000    -1.60102686    -0.37557301     0.00000000
    7 C                    6.0000     0.77494175    -2.49321355     0.00000000
    8 H                    1.0000     1.81700220     0.01779977     0.00000000
    9 C                    6.0000     0.76850144     2.51806563     0.00000000
   10 H                    1.0000     1.86362366    -2.33582328     0.00000000
   11 H                    1.0000     0.49750457    -3.06913537    -0.89517745
   12 H                    1.0000     0.49750457    -3.06913537     0.89517745
   13 H                    1.0000     0.07884484     3.37502174     0.00000000
   14 H                    1.0000     1.40544857     2.57243185     0.89517745
   15 H                    1.0000     1.40544857     2.57243185    -0.89517745
 
      Atomic Mass 
      ----------- 
 
      O                 15.994910
      C                 12.000000
      H                  1.007825
 

 Effective nuclear repulsion energy (a.u.)     298.2448816696

            Nuclear Dipole moment (a.u.) 
            ----------------------------
        X                 Y               Z
 ---------------- ---------------- ----------------
    -0.0000000000    -0.0000000000     0.0000000000
 
      Symmetry information
      --------------------
 
 Group name             Cs        
 Group number              2
 Group order               2
 No. of unique centers    13
 
      Symmetry unique atoms
 
     1    2    3    4    5    6    7    8    9   10   11   13   14
 
                      Basis "ao basis" -> "ao basis" (spherical)
                      -----
  O (Oxygen)
  ----------
            Exponent  Coefficients 
       -------------- ---------------------------------------------------------
  1 S  1.17200000E+04  0.000710
  1 S  1.75900000E+03  0.005470
  1 S  4.00800000E+02  0.027837
  1 S  1.13700000E+02  0.104800
  1 S  3.70300000E+01  0.283062
  1 S  1.32700000E+01  0.448719
  1 S  5.02500000E+00  0.270952
  1 S  1.01300000E+00  0.015458
 
  2 S  1.17200000E+04 -0.000160
  2 S  1.75900000E+03 -0.001263
  2 S  4.00800000E+02 -0.006267
  2 S  1.13700000E+02 -0.025716
  2 S  3.70300000E+01 -0.070924
  2 S  1.32700000E+01 -0.165411
  2 S  5.02500000E+00 -0.116955
  2 S  1.01300000E+00  0.557368
 
  3 S  3.02300000E-01  1.000000
 
  4 S  7.89600000E-02  1.000000
 
  5 P  1.77000000E+01  0.043018
  5 P  3.85400000E+00  0.228913
  5 P  1.04600000E+00  0.508728
 
  6 P  2.75300000E-01  1.000000
 
  7 P  6.85600000E-02  1.000000
 
  8 D  1.18500000E+00  1.000000
 
  9 D  3.32000000E-01  1.000000
 
  C (Carbon)
  ----------
            Exponent  Coefficients 
       -------------- ---------------------------------------------------------
  1 S  6.66500000E+03  0.000692
  1 S  1.00000000E+03  0.005329
  1 S  2.28000000E+02  0.027077
  1 S  6.47100000E+01  0.101718
  1 S  2.10600000E+01  0.274740
  1 S  7.49500000E+00  0.448564
  1 S  2.79700000E+00  0.285074
  1 S  5.21500000E-01  0.015204
 
  2 S  6.66500000E+03 -0.000146
  2 S  1.00000000E+03 -0.001154
  2 S  2.28000000E+02 -0.005725
  2 S  6.47100000E+01 -0.023312
  2 S  2.10600000E+01 -0.063955
  2 S  7.49500000E+00 -0.149981
  2 S  2.79700000E+00 -0.127262
  2 S  5.21500000E-01  0.544529
 
  3 S  1.59600000E-01  1.000000
 
  4 S  4.69000000E-02  1.000000
 
  5 P  9.43900000E+00  0.038109
  5 P  2.00200000E+00  0.209480
  5 P  5.45600000E-01  0.508557
 
  6 P  1.51700000E-01  1.000000
 
  7 P  4.04100000E-02  1.000000
 
  8 D  5.50000000E-01  1.000000
 
  9 D  1.51000000E-01  1.000000
 
  H (Hydrogen)
  ------------
            Exponent  Coefficients 
       -------------- ---------------------------------------------------------
  1 S  1.30100000E+01  0.019685
  1 S  1.96200000E+00  0.137977
  1 S  4.44600000E-01  0.478148
 
  2 S  1.22000000E-01  1.000000
 
  3 S  2.97400000E-02  1.000000
 
  4 P  7.27000000E-01  1.000000
 
  5 P  1.41000000E-01  1.000000
 


 Summary of "ao basis" -> "ao basis" (spherical)
 ------------------------------------------------------------------------------
       Tag                 Description            Shells   Functions and Types
 ---------------- ------------------------------  ------  ---------------------
 O                        aug-cc-pVDZ                9       23   4s3p2d
 C                        aug-cc-pVDZ                9       23   4s3p2d
 H                        aug-cc-pVDZ                5        9   3s2p


                                 NWChem SCF Module
                                 -----------------
 
 
                                  Me,H,Me Chelate
 
 

  ao basis        = "ao basis"
  functions       =   233
  atoms           =    15
  closed shells   =    27
  open shells     =     0
  charge          =   0.00
  wavefunction    = RHF 
  input vectors   = atomic
  output vectors  = ./2C.movecs
  use symmetry    = T
  symmetry adapt  = T


 Summary of "ao basis" -> "ao basis" (spherical)
 ------------------------------------------------------------------------------
       Tag                 Description            Shells   Functions and Types
 ---------------- ------------------------------  ------  ---------------------
 O                        aug-cc-pVDZ                9       23   4s3p2d
 C                        aug-cc-pVDZ                9       23   4s3p2d
 H                        aug-cc-pVDZ                5        9   3s2p


      Symmetry analysis of basis
      --------------------------
 
        a'        158
        a"         75
 

int_init: setting std/high accuracies to  1.0D-16  1.0D-32

 Forming initial guess at       0.3s


 Forcing the number of linearly dependent vectors to be  0
 
      Superposition of Atomic Density Guess
      -------------------------------------
 
 Sum of atomic energies:        -341.86341613
 
      Non-variational initial energy
      ------------------------------

 Total energy =    -346.133245
 1-e energy   =   -1054.143629
 2-e energy   =     409.765502
 HOMO         =      -0.297307
 LUMO         =      -0.048037
 
 
      Symmetry analysis of molecular orbitals - initial
      -------------------------------------------------
 
  Numbering of irreducible representations: 
 
     1 a'          2 a"      
 
  Orbital symmetries:
 
     1 a'          2 a'          3 a'          4 a'          5 a'      
     6 a'          7 a'          8 a'          9 a'         10 a'      
    11 a'         12 a'         13 a'         14 a'         15 a'      
    16 a'         17 a"         18 a"         19 a'         20 a'      
    21 a'         22 a"         23 a"         24 a'         25 a'      
    26 a'         27 a"         28 a"         29 a'         30 a'      
    31 a'         32 a"         33 a'         34 a"         35 a'      
    36 a'         37 a'      
 

 Starting SCF solution at       3.5s



 ----------------------------------------------
         Quadratically convergent ROHF

 Convergence threshold     :          1.000E-09
 Maximum no. of iterations :           99
 Final Fock-matrix accuracy:          1.000E-15
 ----------------------------------------------

 Warning: symmetry breaking in RHF:   1.124339056069377E-011

              iter       energy          gnorm     gmax       time
             ----- ------------------- --------- --------- --------
                 1     -343.6332551958  1.44D+00  2.31D-01      7.0
 Warning: symmetry breaking in RHF:   2.836084696831380E-010
 Warning: symmetry breaking in RHF:   2.011168646980417E-010
                 2     -343.7485067461  5.16D-01  5.91D-02     14.4
 Warning: symmetry breaking in RHF:   2.092901828529287E-010
                 3     -343.7726122288  3.99D-02  9.34D-03     24.2
 Warning: symmetry breaking in RHF:   2.071587614036993E-010
                 4     -343.7729092342  1.49D-03  2.60D-04     40.1
 Warning: symmetry breaking in RHF:   2.070395323089701E-010
                 5     -343.7729096108  1.43D-06  3.58D-07     66.3
 Warning: symmetry breaking in RHF:   2.098984937738773E-010
                 6     -343.7729096108  2.01D-10  2.53D-11    100.7


       Final RHF  results 
       ------------------ 

         Total SCF energy =   -343.772909610813
      One-electron energy =  -1059.400805730694
      Two-electron energy =    417.383014450307
 Nuclear repulsion energy =    298.244881669574

        Time for solution =     97.4s


 
       Symmetry analysis of molecular orbitals - final
       -----------------------------------------------
 
  Numbering of irreducible representations: 
 
     1 a'          2 a"      
 
  Orbital symmetries:
 
     1 a'          2 a'          3 a'          4 a'          5 a'      
     6 a'          7 a'          8 a'          9 a'         10 a'      
    11 a'         12 a'         13 a'         14 a'         15 a'      
    16 a'         17 a"         18 a'         19 a"         20 a'      
    21 a'         22 a'         23 a"         24 a'         25 a"      
    26 a'         27 a"         28 a'         29 a'         30 a'      
    31 a"         32 a"         33 a'         34 a'         35 a'      
    36 a"         37 a'      
 
             Final eigenvalues
             -----------------

              1      
    1  -20.6025
    2  -20.5511
    3  -11.3466
    4  -11.3434
    5  -11.2517
    6  -11.2418
    7  -11.2241
    8   -1.4311
    9   -1.3737
   10   -1.0885
   11   -1.0259
   12   -0.9715
   13   -0.8187
   14   -0.7815
   15   -0.6954
   16   -0.6704
   17   -0.6290
   18   -0.6064
   19   -0.5991
   20   -0.5894
   21   -0.5660
   22   -0.5505
   23   -0.5468
   24   -0.5366
   25   -0.5021
   26   -0.4198
   27   -0.3538
   28    0.0308
   29    0.0383
   30    0.0508
   31    0.0517
   32    0.0623
   33    0.0635
   34    0.0683
   35    0.0906
   36    0.0986
   37    0.0992
 
                       ROHF Final Molecular Orbital Analysis
                       -------------------------------------
 
 Vector    8  Occ=2.000000D+00  E=-1.431123D+00  Symmetry=a'
              MO Center= -1.0D+00, -9.9D-01, -1.1D-19, r^2= 1.0D+00
   Bfn.  Coefficient  Atom+Function         Bfn.  Coefficient  Atom+Function  
  ----- ------------  ---------------      ----- ------------  ---------------
     3      0.465037   1 O  s                 2      0.389266   1 O  s         
    27     -0.293875   2 C  s                46     -0.164183   2 C  d  2      
   116      0.162702   6 H  s                25      0.159115   2 C  s         
     4      0.153544   1 O  s         
 
 Vector    9  Occ=2.000000D+00  E=-1.373709D+00  Symmetry=a'
              MO Center= -9.1D-01,  1.1D+00,  1.5D-19, r^2= 1.1D+00
   Bfn.  Coefficient  Atom+Function         Bfn.  Coefficient  Atom+Function  
  ----- ------------  ---------------      ----- ------------  ---------------
    95      0.448633   5 O  s                94      0.378536   5 O  s         
    73     -0.234656   4 C  s                72      0.209256   4 C  s         
    71      0.207794   4 C  s                74     -0.159154   4 C  px        
     3     -0.155108   1 O  s         
 
 Vector   10  Occ=2.000000D+00  E=-1.088471D+00  Symmetry=a'
              MO Center=  3.9D-01, -5.8D-01,  2.1D-18, r^2= 2.6D+00
   Bfn.  Coefficient  Atom+Function         Bfn.  Coefficient  Atom+Function  
  ----- ------------  ---------------      ----- ------------  ---------------
    49      0.287886   3 C  s                50     -0.284829   3 C  s         
    48      0.247124   3 C  s                25      0.223339   2 C  s         
    26      0.206741   2 C  s               126      0.174008   7 C  s         
    54     -0.166812   3 C  px        
 
 Vector   11  Occ=2.000000D+00  E=-1.025864D+00  Symmetry=a'
              MO Center=  5.3D-01,  5.2D-01,  3.5D-13, r^2= 5.3D+00
   Bfn.  Coefficient  Atom+Function         Bfn.  Coefficient  Atom+Function  
  ----- ------------  ---------------      ----- ------------  ---------------
   158      0.254109   9 C  s                32      0.239323   2 C  py        
    55      0.222147   3 C  py              126     -0.206021   7 C  s         
    78      0.192664   4 C  py               71      0.153550   4 C  s         
 
 Vector   12  Occ=2.000000D+00  E=-9.715028D-01  Symmetry=a'
              MO Center=  5.5D-01,  2.0D-02,  2.1D-14, r^2= 5.3D+00
   Bfn.  Coefficient  Atom+Function         Bfn.  Coefficient  Atom+Function  
  ----- ------------  ---------------      ----- ------------  ---------------
   158      0.222310   9 C  s               126      0.214580   7 C  s         
    48     -0.206632   3 C  s                29     -0.195852   2 C  py        
    75      0.168959   4 C  py               50      0.159822   3 C  s         
 
 Vector   13  Occ=2.000000D+00  E=-8.187232D-01  Symmetry=a'
              MO Center= -4.2D-02, -8.5D-01,  5.6D-18, r^2= 4.3D+00
   Bfn.  Coefficient  Atom+Function         Bfn.  Coefficient  Atom+Function  
  ----- ------------  ---------------      ----- ------------  ---------------
    26      0.449440   2 C  s                55      0.278982   3 C  py        
     5      0.268135   1 O  px               72     -0.262617   4 C  s         
    25      0.240298   2 C  s                32      0.232372   2 C  py        
    78      0.203018   4 C  py               52     -0.180519   3 C  py        
   116     -0.180096   6 H  s                49     -0.163730   3 C  s         
 
 Vector   14  Occ=2.000000D+00  E=-7.814798D-01  Symmetry=a'
              MO Center= -2.6D-01,  2.3D-01,  1.2D-13, r^2= 4.1D+00
   Bfn.  Coefficient  Atom+Function         Bfn.  Coefficient  Atom+Function  
  ----- ------------  ---------------      ----- ------------  ---------------
    72     -0.318948   4 C  s                32      0.301385   2 C  py        
    55      0.235354   3 C  py              128     -0.231786   7 C  s         
    71     -0.221287   4 C  s                 6      0.210042   1 O  py        
   116      0.209360   6 H  s                 5     -0.203663   1 O  px        
    52     -0.197406   3 C  py               28      0.190406   2 C  px        
 
 Vector   15  Occ=2.000000D+00  E=-6.954439D-01  Symmetry=a'
              MO Center=  9.9D-02, -2.7D-01, -1.7D-13, r^2= 3.5D+00
   Bfn.  Coefficient  Atom+Function         Bfn.  Coefficient  Atom+Function  
  ----- ------------  ---------------      ----- ------------  ---------------
    50      0.496808   3 C  s               149     -0.423602   8 H  s         
    73     -0.340626   4 C  s               148     -0.285480   8 H  s         
    51     -0.275469   3 C  px                6      0.260754   1 O  py        
    27     -0.234867   2 C  s                72      0.229258   4 C  s         
    69      0.187180   3 C  d  2              3     -0.165319   1 O  s         
 
 Vector   16  Occ=2.000000D+00  E=-6.703535D-01  Symmetry=a'
              MO Center= -3.3D-01,  7.1D-01,  1.9D-13, r^2= 3.9D+00
   Bfn.  Coefficient  Atom+Function         Bfn.  Coefficient  Atom+Function  
  ----- ------------  ---------------      ----- ------------  ---------------
    32      0.308322   2 C  py               97      0.289830   5 O  px        
    55      0.234887   3 C  py               26      0.229976   2 C  s         
    75      0.224837   4 C  py               49     -0.213507   3 C  s         
     5     -0.183432   1 O  px               28      0.183001   2 C  px        
    95     -0.183541   5 O  s               161     -0.182800   9 C  px        
 
 Vector   17  Occ=2.000000D+00  E=-6.290093D-01  Symmetry=a"
              MO Center= -6.1D-02, -1.2D+00,  1.5D-13, r^2= 3.9D+00
   Bfn.  Coefficient  Atom+Function         Bfn.  Coefficient  Atom+Function  
  ----- ------------  ---------------      ----- ------------  ---------------
     7      0.321099   1 O  pz              131      0.254772   7 C  pz        
    10      0.237867   1 O  pz               30      0.213191   2 C  pz        
   189     -0.176927  11 H  s               198      0.176927  12 H  s         
 
 Vector   18  Occ=2.000000D+00  E=-6.063583D-01  Symmetry=a'
              MO Center= -4.0D-01,  6.9D-01,  2.5D-13, r^2= 4.4D+00
   Bfn.  Coefficient  Atom+Function         Bfn.  Coefficient  Atom+Function  
  ----- ------------  ---------------      ----- ------------  ---------------
     6      0.251250   1 O  py               75      0.232166   4 C  py        
    97     -0.222286   5 O  px               74      0.219704   4 C  px        
   165     -0.216097   9 C  py               98      0.200786   5 O  py        
   162     -0.201560   9 C  py               73      0.198700   4 C  s         
     5      0.183739   1 O  px              160     -0.175577   9 C  s         
 
 Vector   19  Occ=2.000000D+00  E=-5.990703D-01  Symmetry=a"
              MO Center=  5.9D-01,  1.4D+00, -5.0D-14, r^2= 5.0D+00
   Bfn.  Coefficient  Atom+Function         Bfn.  Coefficient  Atom+Function  
  ----- ------------  ---------------      ----- ------------  ---------------
   163      0.339316   9 C  pz              216      0.246280  14 H  s         
   225     -0.246280  15 H  s                99      0.177383   5 O  pz        
    76      0.171400   4 C  pz              131     -0.157285   7 C  pz        
 
 Vector   20  Occ=2.000000D+00  E=-5.893781D-01  Symmetry=a'
              MO Center=  4.1D-01, -3.6D-01, -3.2D-13, r^2= 5.7D+00
   Bfn.  Coefficient  Atom+Function         Bfn.  Coefficient  Atom+Function  
  ----- ------------  ---------------      ----- ------------  ---------------
   130      0.277932   7 C  py              149     -0.269217   8 H  s         
    73     -0.236415   4 C  s                50      0.229207   3 C  s         
   162     -0.204579   9 C  py               29     -0.203086   2 C  py        
   133      0.197419   7 C  py               28      0.191741   2 C  px        
   207     -0.183855  13 H  s               148     -0.175831   8 H  s         
 
 Vector   21  Occ=2.000000D+00  E=-5.660223D-01  Symmetry=a'
              MO Center=  8.5D-01, -1.4D+00, -3.3D-13, r^2= 5.4D+00
   Bfn.  Coefficient  Atom+Function         Bfn.  Coefficient  Atom+Function  
  ----- ------------  ---------------      ----- ------------  ---------------
    55      0.414271   3 C  py              129      0.341204   7 C  px        
   180      0.337312  10 H  s                32      0.314583   2 C  py        
    78      0.310234   4 C  py              181      0.258050  10 H  s         
   128     -0.243373   7 C  s               160      0.235441   9 C  s         
    72     -0.208957   4 C  s                26      0.180184   2 C  s         
 
 Vector   22  Occ=2.000000D+00  E=-5.504668D-01  Symmetry=a'
              MO Center=  1.3D-02, -3.1D-01, -1.4D-13, r^2= 4.5D+00
   Bfn.  Coefficient  Atom+Function         Bfn.  Coefficient  Atom+Function  
  ----- ------------  ---------------      ----- ------------  ---------------
   149      0.300315   8 H  s                 6      0.294880   1 O  py        
    51      0.264039   3 C  px               49     -0.235600   3 C  s         
   148      0.231814   8 H  s                97      0.220941   5 O  px        
    55     -0.218885   3 C  py               54      0.215626   3 C  px        
    26     -0.205581   2 C  s                 9      0.196513   1 O  py        
 
 Vector   23  Occ=2.000000D+00  E=-5.467879D-01  Symmetry=a"
              MO Center= -1.5D-01, -1.7D+00, -3.5D-14, r^2= 3.7D+00
   Bfn.  Coefficient  Atom+Function         Bfn.  Coefficient  Atom+Function  
  ----- ------------  ---------------      ----- ------------  ---------------
     7      0.400682   1 O  pz               10      0.312542   1 O  pz        
   131     -0.302892   7 C  pz              189      0.231497  11 H  s         
   198     -0.231497  12 H  s         
 
 Vector   24  Occ=2.000000D+00  E=-5.366440D-01  Symmetry=a'
              MO Center=  3.5D-01,  1.0D+00, -9.8D-14, r^2= 6.0D+00
   Bfn.  Coefficient  Atom+Function         Bfn.  Coefficient  Atom+Function  
  ----- ------------  ---------------      ----- ------------  ---------------
    49      0.410023   3 C  s               207     -0.293759  13 H  s         
    54     -0.279537   3 C  px               32     -0.263622   2 C  py        
    55     -0.251796   3 C  py              161      0.252429   9 C  px        
    29      0.234975   2 C  py              133     -0.229742   7 C  py        
   160      0.220036   9 C  s                50     -0.203799   3 C  s         
 
 Vector   25  Occ=2.000000D+00  E=-5.021118D-01  Symmetry=a"
              MO Center= -4.5D-01,  1.3D+00,  2.0D-16, r^2= 3.0D+00
   Bfn.  Coefficient  Atom+Function         Bfn.  Coefficient  Atom+Function  
  ----- ------------  ---------------      ----- ------------  ---------------
    99      0.424630   5 O  pz              102      0.321519   5 O  pz        
    76      0.227027   4 C  pz              163     -0.205600   9 C  pz        
     7     -0.194891   1 O  pz              216     -0.171592  14 H  s         
   225      0.171592  15 H  s                10     -0.152069   1 O  pz        
 
 Vector   26  Occ=2.000000D+00  E=-4.197898D-01  Symmetry=a'
              MO Center= -5.7D-01,  1.0D+00, -1.0D-13, r^2= 2.8D+00
   Bfn.  Coefficient  Atom+Function         Bfn.  Coefficient  Atom+Function  
  ----- ------------  ---------------      ----- ------------  ---------------
    98      0.501443   5 O  py              101      0.416087   5 O  py        
    50     -0.354939   3 C  s                27      0.330757   2 C  s         
    81     -0.240058   4 C  py              160      0.231338   9 C  s         
    75     -0.205698   4 C  py               52      0.192549   3 C  py        
   128     -0.181401   7 C  s               162      0.175028   9 C  py        
 
 Vector   27  Occ=2.000000D+00  E=-3.538261D-01  Symmetry=a"
              MO Center=  1.8D-01, -2.2D-01, -7.8D-15, r^2= 2.6D+00
   Bfn.  Coefficient  Atom+Function         Bfn.  Coefficient  Atom+Function  
  ----- ------------  ---------------      ----- ------------  ---------------
    53      0.415906   3 C  pz               56      0.322046   3 C  pz        
    30      0.234170   2 C  pz                7     -0.225617   1 O  pz        
    99     -0.223370   5 O  pz               10     -0.181332   1 O  pz        
   102     -0.178781   5 O  pz               33      0.164056   2 C  pz        
 
 Vector   28  Occ=0.000000D+00  E= 3.076173D-02  Symmetry=a'
              MO Center=  2.3D+00, -9.1D-01, -4.0D-15, r^2= 2.1D+01
   Bfn.  Coefficient  Atom+Function         Bfn.  Coefficient  Atom+Function  
  ----- ------------  ---------------      ----- ------------  ---------------
   160      3.859827   9 C  s                73      2.665471   4 C  s         
    81     -2.015334   4 C  py              182     -1.968078  10 H  s         
    35     -1.443753   2 C  py               58     -1.373027   3 C  py        
    57      1.327472   3 C  px              128      1.002108   7 C  s         
   150     -0.923067   8 H  s                34     -0.858304   2 C  px        
 
 Vector   29  Occ=0.000000D+00  E= 3.830370D-02  Symmetry=a'
              MO Center=  1.5D+00,  4.4D-01, -4.8D-15, r^2= 3.4D+01
   Bfn.  Coefficient  Atom+Function         Bfn.  Coefficient  Atom+Function  
  ----- ------------  ---------------      ----- ------------  ---------------
    35     12.915495   2 C  py              128     12.295784   7 C  s         
   160    -10.478413   9 C  s                81      9.981773   4 C  py        
    50     -5.267266   3 C  s                58      4.693983   3 C  py        
    27      4.462387   2 C  s               136      3.199396   7 C  py        
   168      3.081057   9 C  py              182      2.544901  10 H  s         
 
 Vector   30  Occ=0.000000D+00  E= 5.084297D-02  Symmetry=a'
              MO Center=  1.1D+00,  4.6D-02,  2.3D-14, r^2= 3.2D+01
   Bfn.  Coefficient  Atom+Function         Bfn.  Coefficient  Atom+Function  
  ----- ------------  ---------------      ----- ------------  ---------------
    50     10.007497   3 C  s                73     -7.484465   4 C  s         
   150      4.765961   8 H  s                57     -4.058235   3 C  px        
   209     -2.988554  13 H  s                35     -2.885100   2 C  py        
    58      2.776866   3 C  py               81      2.669501   4 C  py        
   191     -1.830199  11 H  s               200     -1.830199  12 H  s         
 
 Vector   31  Occ=0.000000D+00  E= 5.173188D-02  Symmetry=a"
              MO Center=  1.4D+00,  4.1D-02, -6.4D-15, r^2= 2.7D+01
   Bfn.  Coefficient  Atom+Function         Bfn.  Coefficient  Atom+Function  
  ----- ------------  ---------------      ----- ------------  ---------------
   218      3.448665  14 H  s               227     -3.448665  15 H  s         
   191     -2.411631  11 H  s               200      2.411631  12 H  s         
   169     -1.753448   9 C  pz              137     -0.953403   7 C  pz        
    82      0.436668   4 C  pz              217      0.423431  14 H  s         
   226     -0.423431  15 H  s               166     -0.347095   9 C  pz        
 
 Vector   32  Occ=0.000000D+00  E= 6.227486D-02  Symmetry=a"
              MO Center=  9.6D-01, -1.0D+00,  4.9D-14, r^2= 3.1D+01
   Bfn.  Coefficient  Atom+Function         Bfn.  Coefficient  Atom+Function  
  ----- ------------  ---------------      ----- ------------  ---------------
   191      3.868381  11 H  s               200     -3.868381  12 H  s         
   218      3.419523  14 H  s               227     -3.419523  15 H  s         
   137      1.858449   7 C  pz              169     -1.654153   9 C  pz        
    59     -1.040806   3 C  pz               82      0.829586   4 C  pz        
   190      0.671192  11 H  s               199     -0.671192  12 H  s         
 
 Vector   33  Occ=0.000000D+00  E= 6.348187D-02  Symmetry=a'
              MO Center=  1.8D-01, -4.7D-01,  1.3D-13, r^2= 3.2D+01
   Bfn.  Coefficient  Atom+Function         Bfn.  Coefficient  Atom+Function  
  ----- ------------  ---------------      ----- ------------  ---------------
    50     19.156518   3 C  s                27    -15.393511   2 C  s         
    73     -9.782713   4 C  s               150      7.220852   8 H  s         
    57     -6.730449   3 C  px              182     -5.709906  10 H  s         
    35     -4.669250   2 C  py               81      4.660674   4 C  py        
   209     -2.652470  13 H  s               118      2.629746   6 H  s         
 
 Vector   34  Occ=0.000000D+00  E= 6.830188D-02  Symmetry=a'
              MO Center= -2.3D-01,  1.1D+00,  1.4D-12, r^2= 3.3D+01
   Bfn.  Coefficient  Atom+Function         Bfn.  Coefficient  Atom+Function  
  ----- ------------  ---------------      ----- ------------  ---------------
    73      6.690815   4 C  s                50     -5.706492   3 C  s         
    27      4.742397   2 C  s               209     -4.243900  13 H  s         
    57      4.095295   3 C  px              118     -3.113536   6 H  s         
   182     -2.966567  10 H  s                35      2.920756   2 C  py        
   160     -2.809648   9 C  s                34     -2.670012   2 C  px        
 
 Vector   35  Occ=0.000000D+00  E= 9.056780D-02  Symmetry=a'
              MO Center=  5.3D-05,  5.1D-01, -1.4D-12, r^2= 3.2D+01
   Bfn.  Coefficient  Atom+Function         Bfn.  Coefficient  Atom+Function  
  ----- ------------  ---------------      ----- ------------  ---------------
    27     12.627544   2 C  s               150     -7.826750   8 H  s         
   160     -6.807959   9 C  s               182      5.912106  10 H  s         
    50     -5.174551   3 C  s               209     -4.616266  13 H  s         
    57      4.373372   3 C  px               58      4.010586   3 C  py        
   118      3.760726   6 H  s                73      3.464419   4 C  s         
 
 Vector   36  Occ=0.000000D+00  E= 9.863524D-02  Symmetry=a"
              MO Center=  2.3D-02, -8.9D-02,  6.1D-13, r^2= 6.0D+00
   Bfn.  Coefficient  Atom+Function         Bfn.  Coefficient  Atom+Function  
  ----- ------------  ---------------      ----- ------------  ---------------
    36      1.281953   2 C  pz              191     -1.264682  11 H  s         
   200      1.264682  12 H  s               137     -1.133311   7 C  pz        
    82     -0.975564   4 C  pz              169      0.834947   9 C  pz        
   218     -0.697879  14 H  s               227      0.697879  15 H  s         
    33      0.395420   2 C  pz              105      0.382436   5 O  pz        
 
 Vector   37  Occ=0.000000D+00  E= 9.924336D-02  Symmetry=a'
              MO Center=  1.0D+00,  1.2D+00, -1.8D-15, r^2= 2.2D+01
   Bfn.  Coefficient  Atom+Function         Bfn.  Coefficient  Atom+Function  
  ----- ------------  ---------------      ----- ------------  ---------------
    73     25.063973   4 C  s               160    -21.835458   9 C  s         
    81     12.009986   4 C  py              167      5.895288   9 C  px        
   150      5.627768   8 H  s                80      5.166280   4 C  px        
   168      5.151718   9 C  py               58     -4.217203   3 C  py        
    27      3.919073   2 C  s               128     -3.745719   7 C  s         
 
 Vector   38  Occ=0.000000D+00  E= 1.146253D-01  Symmetry=a'
              MO Center=  8.9D-01, -7.2D-01,  1.3D-12, r^2= 2.7D+01
   Bfn.  Coefficient  Atom+Function         Bfn.  Coefficient  Atom+Function  
  ----- ------------  ---------------      ----- ------------  ---------------
   128     22.349063   7 C  s                27    -16.969065   2 C  s         
    73     14.331572   4 C  s               160    -13.502686   9 C  s         
    35     11.781122   2 C  py              136      7.142755   7 C  py        
    50     -6.944642   3 C  s                80      6.152499   4 C  px        
    34     -5.837006   2 C  px               81      4.928955   4 C  py        
 
 Vector   39  Occ=0.000000D+00  E= 1.200944D-01  Symmetry=a"
              MO Center=  5.4D-01, -1.8D-01, -8.7D-13, r^2= 1.7D+01
   Bfn.  Coefficient  Atom+Function         Bfn.  Coefficient  Atom+Function  
  ----- ------------  ---------------      ----- ------------  ---------------
    36      3.981197   2 C  pz               59     -3.842231   3 C  pz        
    82      2.542744   4 C  pz              137     -2.169342   7 C  pz        
   191     -0.860565  11 H  s               200      0.860565  12 H  s         
    13     -0.723190   1 O  pz              190     -0.717569  11 H  s         
   199      0.717569  12 H  s               105     -0.682892   5 O  pz        
 
 Vector   40  Occ=0.000000D+00  E= 1.361754D-01  Symmetry=a'
              MO Center=  9.5D-01, -4.2D-01,  5.9D-15, r^2= 3.1D+01
   Bfn.  Coefficient  Atom+Function         Bfn.  Coefficient  Atom+Function  
  ----- ------------  ---------------      ----- ------------  ---------------
   128     36.997580   7 C  s               160    -33.881372   9 C  s         
    35     32.383658   2 C  py               81     27.955157   4 C  py        
    58     12.134919   3 C  py              136      9.241483   7 C  py        
    50     -8.598241   3 C  s               168      8.050286   9 C  py        
   167      6.635640   9 C  px              135     -6.037010   7 C  px        
 
 Vector   41  Occ=0.000000D+00  E= 1.470455D-01  Symmetry=a'
              MO Center=  7.8D-01, -7.2D-01,  2.2D-13, r^2= 2.4D+01
   Bfn.  Coefficient  Atom+Function         Bfn.  Coefficient  Atom+Function  
  ----- ------------  ---------------      ----- ------------  ---------------
    50     43.673369   3 C  s                27    -33.002916   2 C  s         
    73    -23.554164   4 C  s                81     11.209222   4 C  py        
    57     -9.482470   3 C  px               34     -5.501062   2 C  px        
   128      5.307450   7 C  s               182      4.723320  10 H  s         
    58     -3.468615   3 C  py               35     -3.127034   2 C  py        
 
 Vector   42  Occ=0.000000D+00  E= 1.476322D-01  Symmetry=a"
              MO Center=  6.6D-01, -1.4D-01,  1.5D-12, r^2= 1.7D+01
   Bfn.  Coefficient  Atom+Function         Bfn.  Coefficient  Atom+Function  
  ----- ------------  ---------------      ----- ------------  ---------------
   191      3.234494  11 H  s               200     -3.234494  12 H  s         
   137      2.591944   7 C  pz               82      2.538172   4 C  pz        
   190      1.564453  11 H  s               199     -1.564453  12 H  s         
   169     -1.248126   9 C  pz              134      0.690543   7 C  pz        
   218     -0.678193  14 H  s               227      0.678193  15 H  s         
 
 Vector   43  Occ=0.000000D+00  E= 1.535234D-01  Symmetry=a'
              MO Center=  3.7D-01, -1.6D-01, -7.2D-13, r^2= 2.0D+01
   Bfn.  Coefficient  Atom+Function         Bfn.  Coefficient  Atom+Function  
  ----- ------------  ---------------      ----- ------------  ---------------
   128     16.104181   7 C  s                35     15.304284   2 C  py        
    73     13.528611   4 C  s                50    -11.684438   3 C  s         
    57     10.037354   3 C  px               34     -9.727467   2 C  px        
   150     -8.134998   8 H  s                 4     -6.453904   1 O  s         
   160     -5.446131   9 C  s                81      5.191929   4 C  py        
 
 Vector   44  Occ=0.000000D+00  E= 1.579867D-01  Symmetry=a'
              MO Center=  4.0D-02,  4.8D-01,  2.1D-12, r^2= 2.3D+01
   Bfn.  Coefficient  Atom+Function         Bfn.  Coefficient  Atom+Function  
  ----- ------------  ---------------      ----- ------------  ---------------
    50     28.065336   3 C  s                27    -14.140404   2 C  s         
    73    -12.252511   4 C  s                35     -9.869047   2 C  py        
   160      9.662595   9 C  s                80     -9.271810   4 C  px        
   118     -4.142868   6 H  s                57     -3.544844   3 C  px        
    96     -3.206113   5 O  s                34     -3.036296   2 C  px        
 
 Vector   45  Occ=0.000000D+00  E= 1.632242D-01  Symmetry=a"
              MO Center=  4.8D-01,  1.3D+00,  3.4D-12, r^2= 2.0D+01
   Bfn.  Coefficient  Atom+Function         Bfn.  Coefficient  Atom+Function  
  ----- ------------  ---------------      ----- ------------  ---------------
   218     -3.734923  14 H  s               227      3.734923  15 H  s         
   169      3.589788   9 C  pz              137      3.209811   7 C  pz        
   217     -2.302694  14 H  s               226      2.302694  15 H  s         
   191      2.001096  11 H  s               200     -2.001096  12 H  s         
    36     -1.800990   2 C  pz              166      1.203030   9 C  pz        
 
 Vector   46  Occ=0.000000D+00  E= 1.705059D-01  Symmetry=a'
              MO Center=  1.4D+00,  6.8D-01, -1.2D-12, r^2= 2.5D+01
   Bfn.  Coefficient  Atom+Function         Bfn.  Coefficient  Atom+Function  
  ----- ------------  ---------------      ----- ------------  ---------------
   150     10.404255   8 H  s                50      9.443240   3 C  s         
    57     -8.427884   3 C  px              168      4.650668   9 C  py        
    81      3.999726   4 C  py              209     -3.501944  13 H  s         
    35     -3.089549   2 C  py               27     -2.641500   2 C  s         
    34      2.527119   2 C  px              136     -2.531603   7 C  py        
 
 Vector   47  Occ=0.000000D+00  E= 1.797296D-01  Symmetry=a'
              MO Center=  4.0D-01, -9.9D-01, -2.0D-12, r^2= 2.5D+01
   Bfn.  Coefficient  Atom+Function         Bfn.  Coefficient  Atom+Function  
  ----- ------------  ---------------      ----- ------------  ---------------
    50     33.349344   3 C  s                73    -20.736664   4 C  s         
    35    -13.843632   2 C  py               57     -9.154072   3 C  px        
    81      8.531762   4 C  py              135      8.313417   7 C  px        
   182     -8.350617  10 H  s               150      7.819445   8 H  s         
    58      7.041489   3 C  py              128     -5.549029   7 C  s         
 
 Vector   48  Occ=0.000000D+00  E= 1.810221D-01  Symmetry=a'
              MO Center=  5.1D-01,  4.4D-01, -6.5D-13, r^2= 2.1D+01
   Bfn.  Coefficient  Atom+Function         Bfn.  Coefficient  Atom+Function  
  ----- ------------  ---------------      ----- ------------  ---------------
    73      9.020454   4 C  s               209     -5.663983  13 H  s         
     4      4.983436   1 O  s                57      4.782972   3 C  px        
    35     -4.503067   2 C  py              150     -4.329608   8 H  s         
    34      4.294220   2 C  px              168      3.561832   9 C  py        
   167     -2.930488   9 C  px              149     -2.765111   8 H  s         
 
 Vector   49  Occ=0.000000D+00  E= 1.856509D-01  Symmetry=a"
              MO Center=  1.2D+00,  6.9D-01, -4.7D-13, r^2= 2.1D+01
   Bfn.  Coefficient  Atom+Function         Bfn.  Coefficient  Atom+Function  
  ----- ------------  ---------------      ----- ------------  ---------------
   169     -5.961218   9 C  pz               82      5.487419   4 C  pz        
   218      5.336889  14 H  s               227     -5.336889  15 H  s         
   137      4.038509   7 C  pz               59     -3.021967   3 C  pz        
   191      2.660547  11 H  s               200     -2.660547  12 H  s         
    36     -2.127532   2 C  pz              217      1.646370  14 H  s         
 
 Vector   50  Occ=0.000000D+00  E= 1.929742D-01  Symmetry=a"
              MO Center=  4.2D-01, -8.8D-01,  1.1D-12, r^2= 1.9D+01
   Bfn.  Coefficient  Atom+Function         Bfn.  Coefficient  Atom+Function  
  ----- ------------  ---------------      ----- ------------  ---------------
    36      4.090776   2 C  pz              191      3.780212  11 H  s         
   200     -3.780212  12 H  s                59     -2.436624   3 C  pz        
    82     -2.212932   4 C  pz              190      2.167878  11 H  s         
   199     -2.167878  12 H  s               137      1.864062   7 C  pz        
   169      1.189021   9 C  pz              134      1.031115   7 C  pz        
 
 Vector   51  Occ=0.000000D+00  E= 1.939200D-01  Symmetry=a'
              MO Center=  3.5D-01, -3.7D-01, -8.5D-13, r^2= 2.2D+01
   Bfn.  Coefficient  Atom+Function         Bfn.  Coefficient  Atom+Function  
  ----- ------------  ---------------      ----- ------------  ---------------
    34      8.654081   2 C  px               73     -8.195028   4 C  s         
    50      7.472698   3 C  s               182      5.936921  10 H  s         
    57     -5.764695   3 C  px               35     -5.505459   2 C  py        
     4      4.864697   1 O  s                27     -4.444528   2 C  s         
   135     -4.384951   7 C  px              118      4.290080   6 H  s         
 
 Vector   52  Occ=0.000000D+00  E= 2.200327D-01  Symmetry=a'
              MO Center=  7.4D-01,  2.2D-01,  1.6D-13, r^2= 2.1D+01
   Bfn.  Coefficient  Atom+Function         Bfn.  Coefficient  Atom+Function  
  ----- ------------  ---------------      ----- ------------  ---------------
    27     58.498900   2 C  s               128    -31.988896   7 C  s         
    58     31.754173   3 C  py               81    -26.385343   4 C  py        
    73    -24.744587   4 C  s               160     23.201448   9 C  s         
    35    -22.865467   2 C  py               50    -18.795189   3 C  s         
    34     14.985048   2 C  px               80    -12.891307   4 C  px        
 
 Vector   53  Occ=0.000000D+00  E= 2.283662D-01  Symmetry=a"
              MO Center=  6.0D-02,  1.7D-01, -1.3D-12, r^2= 9.2D+00
   Bfn.  Coefficient  Atom+Function         Bfn.  Coefficient  Atom+Function  
  ----- ------------  ---------------      ----- ------------  ---------------
   169      1.304599   9 C  pz               82     -1.140907   4 C  pz        
    36      1.096889   2 C  pz              137     -1.100100   7 C  pz        
   191     -0.914638  11 H  s               200      0.914638  12 H  s         
   218     -0.890765  14 H  s               227      0.890765  15 H  s         
    13     -0.856782   1 O  pz               59      0.831168   3 C  pz        
 
 Vector   54  Occ=0.000000D+00  E= 2.407017D-01  Symmetry=a'
              MO Center= -1.9D-01,  1.3D-01,  2.8D-14, r^2= 1.9D+01
   Bfn.  Coefficient  Atom+Function         Bfn.  Coefficient  Atom+Function  
  ----- ------------  ---------------      ----- ------------  ---------------
    73     46.727664   4 C  s               160    -40.063896   9 C  s         
    27     33.683137   2 C  s                81     19.291439   4 C  py        
   128    -17.536390   7 C  s                50    -15.244116   3 C  s         
    80     10.214270   4 C  px              168      6.784678   9 C  py        
   167      5.836456   9 C  px               58     -4.694213   3 C  py        
 
 Vector   55  Occ=0.000000D+00  E= 2.499444D-01  Symmetry=a'
              MO Center= -1.9D-01,  3.8D-01, -1.6D-13, r^2= 1.8D+01
   Bfn.  Coefficient  Atom+Function         Bfn.  Coefficient  Atom+Function  
  ----- ------------  ---------------      ----- ------------  ---------------
    35     23.361663   2 C  py              128     21.114281   7 C  s         
    81     19.443947   4 C  py               73    -14.423463   4 C  s         
   160    -13.221433   9 C  s                50      8.988169   3 C  s         
    34     -7.077626   2 C  px               58     -5.934326   3 C  py        
    96      4.777567   5 O  s               135     -4.660756   7 C  px        
 
 Vector   56  Occ=0.000000D+00  E= 2.606045D-01  Symmetry=a'
              MO Center= -5.9D-01,  4.7D-01,  1.7D-13, r^2= 1.7D+01
   Bfn.  Coefficient  Atom+Function         Bfn.  Coefficient  Atom+Function  
  ----- ------------  ---------------      ----- ------------  ---------------
   160     14.299521   9 C  s                50    -14.215512   3 C  s         
    35     13.233918   2 C  py               58    -11.650000   3 C  py        
   128      9.925357   7 C  s                73     -7.610474   4 C  s         
   168     -6.086335   9 C  py               27     -5.196267   2 C  s         
   135     -4.113336   7 C  px              118     -2.302450   6 H  s         
 
 Vector   57  Occ=0.000000D+00  E= 2.735876D-01  Symmetry=a'
              MO Center=  5.8D-01, -6.3D-01,  1.5D-13, r^2= 2.4D+01
   Bfn.  Coefficient  Atom+Function         Bfn.  Coefficient  Atom+Function  
  ----- ------------  ---------------      ----- ------------  ---------------
   128     63.778850   7 C  s               160    -53.131162   9 C  s         
    35     39.846662   2 C  py               73     30.182786   4 C  s         
    81     28.417328   4 C  py               50    -25.493587   3 C  s         
    27    -15.910193   2 C  s                80     13.502150   4 C  px        
   136     12.660824   7 C  py               34    -11.320430   2 C  px        
 
 Vector   58  Occ=0.000000D+00  E= 2.774719D-01  Symmetry=a'
              MO Center=  1.5D-01, -9.9D-02, -1.2D-13, r^2= 1.5D+01
   Bfn.  Coefficient  Atom+Function         Bfn.  Coefficient  Atom+Function  
  ----- ------------  ---------------      ----- ------------  ---------------
    50    -47.404954   3 C  s                27     45.762757   2 C  s         
    73     26.973335   4 C  s               128    -14.400414   7 C  s         
    57     10.372263   3 C  px              160     -6.553083   9 C  s         
    34      4.327567   2 C  px               58      3.881492   3 C  py        
   149      3.722530   8 H  s               136     -3.364662   7 C  py        
 
 Vector   59  Occ=0.000000D+00  E= 2.836893D-01  Symmetry=a"
              MO Center=  3.5D-02, -7.2D-01, -1.3D-13, r^2= 1.3D+01
   Bfn.  Coefficient  Atom+Function         Bfn.  Coefficient  Atom+Function  
  ----- ------------  ---------------      ----- ------------  ---------------
    82      2.598526   4 C  pz              105     -1.521678   5 O  pz        
   191      1.490682  11 H  s               200     -1.490682  12 H  s         
   137      1.148195   7 C  pz               59     -1.011873   3 C  pz        
   188     -0.778226  10 H  pz              169     -0.742679   9 C  pz        
   146     -0.658294   7 C  d  1             13     -0.641239   1 O  pz        
 
 Vector   60  Occ=0.000000D+00  E= 2.983762D-01  Symmetry=a"
              MO Center= -5.9D-01, -1.1D+00,  2.0D-13, r^2= 1.0D+01
   Bfn.  Coefficient  Atom+Function         Bfn.  Coefficient  Atom+Function  
  ----- ------------  ---------------      ----- ------------  ---------------
    36      4.961928   2 C  pz               59     -3.392619   3 C  pz        
    13     -2.743576   1 O  pz              137     -1.694544   7 C  pz        
    82      1.549161   4 C  pz              105     -0.763907   5 O  pz        
   190     -0.669092  11 H  s               199      0.669092  12 H  s         
   218      0.666436  14 H  s               227     -0.666436  15 H  s         
 
 Vector   61  Occ=0.000000D+00  E= 3.035220D-01  Symmetry=a'
              MO Center= -1.1D+00, -6.6D-02, -2.4D-13, r^2= 1.6D+01
   Bfn.  Coefficient  Atom+Function         Bfn.  Coefficient  Atom+Function  
  ----- ------------  ---------------      ----- ------------  ---------------
    27     28.755137   2 C  s                73    -25.991273   4 C  s         
    58     23.461728   3 C  py               34      8.240622   2 C  px        
    55     -7.152563   3 C  py              128      6.855052   7 C  s         
    80     -6.675851   4 C  px               35      6.370398   2 C  py        
   160     -6.250465   9 C  s                81      5.598722   4 C  py        
 
 Vector   62  Occ=0.000000D+00  E= 3.162655D-01  Symmetry=a"
              MO Center=  8.9D-01,  3.8D-01, -2.7D-13, r^2= 1.2D+01
   Bfn.  Coefficient  Atom+Function         Bfn.  Coefficient  Atom+Function  
  ----- ------------  ---------------      ----- ------------  ---------------
    82     -1.966498   4 C  pz               59      1.876392   3 C  pz        
   137     -1.146300   7 C  pz               56      0.887877   3 C  pz        
   105      0.810559   5 O  pz              190     -0.793767  11 H  s         
   199      0.793767  12 H  s               215      0.703250  13 H  pz        
   146     -0.625214   7 C  d  1            188     -0.624345  10 H  pz        
 
 Vector   63  Occ=0.000000D+00  E= 3.170190D-01  Symmetry=a'
              MO Center=  5.8D-01, -1.2D+00, -2.5D-13, r^2= 1.3D+01
   Bfn.  Coefficient  Atom+Function         Bfn.  Coefficient  Atom+Function  
  ----- ------------  ---------------      ----- ------------  ---------------
   160     30.041606   9 C  s                27    -21.785313   2 C  s         
    50     21.842931   3 C  s                81    -16.135191   4 C  py        
    35    -14.528387   2 C  py              128    -13.716980   7 C  s         
    58    -11.255637   3 C  py               73    -10.325283   4 C  s         
    80    -10.192406   4 C  px              168     -6.798885   9 C  py        
 
 Vector   64  Occ=0.000000D+00  E= 3.277563D-01  Symmetry=a'
              MO Center=  3.9D-01,  8.5D-01,  2.6D-14, r^2= 1.6D+01
   Bfn.  Coefficient  Atom+Function         Bfn.  Coefficient  Atom+Function  
  ----- ------------  ---------------      ----- ------------  ---------------
   128     40.879819   7 C  s               160    -27.163060   9 C  s         
    35     25.663426   2 C  py               81     20.732120   4 C  py        
    73    -14.255754   4 C  s                34    -14.077013   2 C  px        
    50     13.394119   3 C  s                58     12.711893   3 C  py        
   136      9.135193   7 C  py               27     -7.635167   2 C  s         
 
 Vector   65  Occ=0.000000D+00  E= 3.412990D-01  Symmetry=a'
              MO Center= -7.8D-01, -1.8D-02, -4.6D-15, r^2= 1.4D+01
   Bfn.  Coefficient  Atom+Function         Bfn.  Coefficient  Atom+Function  
  ----- ------------  ---------------      ----- ------------  ---------------
    50     47.266877   3 C  s                73    -24.164228   4 C  s         
    27    -19.664303   2 C  s                35    -11.362987   2 C  py        
    81     10.774018   4 C  py                4      6.934115   1 O  s         
    57     -5.875637   3 C  px              149     -4.729498   8 H  s         
    80     -4.456547   4 C  px              160     -4.365265   9 C  s         
 
 Vector   66  Occ=0.000000D+00  E= 3.497307D-01  Symmetry=a"
              MO Center= -8.0D-01,  7.0D-01, -1.6D-13, r^2= 1.2D+01
   Bfn.  Coefficient  Atom+Function         Bfn.  Coefficient  Atom+Function  
  ----- ------------  ---------------      ----- ------------  ---------------
    82      3.867890   4 C  pz              105     -2.727486   5 O  pz        
    36     -2.318800   2 C  pz               13      1.742971   1 O  pz        
   217     -1.439310  14 H  s               226      1.439310  15 H  s         
   169     -1.017470   9 C  pz              137      0.882644   7 C  pz        
    59     -0.770066   3 C  pz               91      0.743460   4 C  d  1      
 
 Vector   67  Occ=0.000000D+00  E= 3.562271D-01  Symmetry=a'
              MO Center=  1.3D+00,  5.8D-01,  1.2D-13, r^2= 1.1D+01
   Bfn.  Coefficient  Atom+Function         Bfn.  Coefficient  Atom+Function  
  ----- ------------  ---------------      ----- ------------  ---------------
    50     48.188319   3 C  s                27    -33.220051   2 C  s         
    73    -32.438698   4 C  s                57    -14.926292   3 C  px        
   150      8.221284   8 H  s                35     -8.077430   2 C  py        
     4      6.119681   1 O  s                81      5.740666   4 C  py        
   160      3.839944   9 C  s                49      3.807253   3 C  s         
 
 Vector   68  Occ=0.000000D+00  E= 3.744603D-01  Symmetry=a"
              MO Center=  7.0D-01,  4.1D-01,  5.5D-14, r^2= 1.0D+01
   Bfn.  Coefficient  Atom+Function         Bfn.  Coefficient  Atom+Function  
  ----- ------------  ---------------      ----- ------------  ---------------
    59      2.246402   3 C  pz               36     -1.791948   2 C  pz        
   156     -1.215651   8 H  pz              217      1.212875  14 H  s         
   226     -1.212875  15 H  s               176     -0.935946   9 C  d -1      
   223      0.895888  14 H  py              232     -0.895888  15 H  py        
    13      0.699750   1 O  pz              169     -0.661324   9 C  pz        
 
 Vector   69  Occ=0.000000D+00  E= 3.745627D-01  Symmetry=a'
              MO Center=  5.4D-01, -3.7D-01, -2.5D-14, r^2= 1.3D+01
   Bfn.  Coefficient  Atom+Function         Bfn.  Coefficient  Atom+Function  
  ----- ------------  ---------------      ----- ------------  ---------------
    50     37.512175   3 C  s                73    -28.226729   4 C  s         
    35    -24.354966   2 C  py              128    -20.749286   7 C  s         
   160     12.386015   9 C  s                57    -11.544168   3 C  px        
    27     -9.564538   2 C  s                81     -6.280859   4 C  py        
    96      5.949456   5 O  s                58      5.577347   3 C  py        
 
 Vector   70  Occ=0.000000D+00  E= 3.872539D-01  Symmetry=a'
              MO Center=  1.1D-01,  1.6D+00, -6.9D-13, r^2= 1.2D+01
   Bfn.  Coefficient  Atom+Function         Bfn.  Coefficient  Atom+Function  
  ----- ------------  ---------------      ----- ------------  ---------------
    73     45.024864   4 C  s                50    -32.573143   3 C  s         
   160    -18.056847   9 C  s                27     14.649239   2 C  s         
    80     14.632144   4 C  px               58    -12.173439   3 C  py        
    81      9.375821   4 C  py               35      5.897996   2 C  py        
     4     -4.157854   1 O  s               103     -3.776322   5 O  px        
 
 Vector   71  Occ=0.000000D+00  E= 4.001123D-01  Symmetry=a'
              MO Center=  2.7D-01,  1.3D+00,  8.0D-12, r^2= 1.2D+01
   Bfn.  Coefficient  Atom+Function         Bfn.  Coefficient  Atom+Function  
  ----- ------------  ---------------      ----- ------------  ---------------
    73     25.939210   4 C  s                58    -15.508063   3 C  py        
   160    -15.326837   9 C  s                27    -13.984015   2 C  s         
    81     13.901430   4 C  py               57     -7.019882   3 C  px        
    80      6.620950   4 C  px               96     -6.498232   5 O  s         
    50      6.194877   3 C  s               167      5.824313   9 C  px        
 
 Vector   72  Occ=0.000000D+00  E= 4.196323D-01  Symmetry=a'
              MO Center= -1.5D-01, -7.0D-01, -2.6D-14, r^2= 1.4D+01
   Bfn.  Coefficient  Atom+Function         Bfn.  Coefficient  Atom+Function  
  ----- ------------  ---------------      ----- ------------  ---------------
    27     48.536347   2 C  s                50    -33.921342   3 C  s         
   128    -29.338679   7 C  s                81    -22.902443   4 C  py        
   160     17.726608   9 C  s                35    -16.600126   2 C  py        
    58     16.160497   3 C  py               34     15.605385   2 C  px        
    80     -7.266503   4 C  px               57      6.895095   3 C  px        
 
 Vector   73  Occ=0.000000D+00  E= 4.231760D-01  Symmetry=a'
              MO Center=  6.3D-01, -1.9D+00, -1.8D-14, r^2= 1.2D+01
   Bfn.  Coefficient  Atom+Function         Bfn.  Coefficient  Atom+Function  
  ----- ------------  ---------------      ----- ------------  ---------------
    27     19.163783   2 C  s                50    -12.567109   3 C  s         
   181     -5.924292  10 H  s                58      5.759275   3 C  py        
    73      5.348150   4 C  s               160     -5.133565   9 C  s         
    34      4.733320   2 C  px              128     -4.555488   7 C  s         
    35     -3.718193   2 C  py              132      3.335789   7 C  px        
 
 Vector   74  Occ=0.000000D+00  E= 4.264569D-01  Symmetry=a"
              MO Center=  1.2D+00, -2.4D+00, -3.2D-13, r^2= 9.3D+00
   Bfn.  Coefficient  Atom+Function         Bfn.  Coefficient  Atom+Function  
  ----- ------------  ---------------      ----- ------------  ---------------
   190      5.173764  11 H  s               199     -5.173764  12 H  s         
   137      4.686296   7 C  pz              134      3.013698   7 C  pz        
   191      2.728676  11 H  s               200     -2.728676  12 H  s         
    36     -2.436357   2 C  pz               82      2.151080   4 C  pz        
   169     -1.501023   9 C  pz              144     -1.267702   7 C  d -1      
 
 Vector   75  Occ=0.000000D+00  E= 4.312747D-01  Symmetry=a'
              MO Center=  1.4D-01, -2.4D-01, -6.8D-14, r^2= 1.5D+01
   Bfn.  Coefficient  Atom+Function         Bfn.  Coefficient  Atom+Function  
  ----- ------------  ---------------      ----- ------------  ---------------
    27     25.960432   2 C  s                73    -12.547782   4 C  s         
    58     11.405225   3 C  py                4    -10.406475   1 O  s         
   160     10.170957   9 C  s                50     -6.908327   3 C  s         
    78      4.664720   4 C  py               80     -4.552169   4 C  px        
    55      3.218319   3 C  py               54     -3.171249   3 C  px        
 
 Vector   76  Occ=0.000000D+00  E= 4.472779D-01  Symmetry=a'
              MO Center=  3.4D-01, -8.7D-01, -2.4D-13, r^2= 1.5D+01
   Bfn.  Coefficient  Atom+Function         Bfn.  Coefficient  Atom+Function  
  ----- ------------  ---------------      ----- ------------  ---------------
    50    -15.643420   3 C  s                35     14.898603   2 C  py        
    27     14.382250   2 C  s                 4     -7.609962   1 O  s         
    81      6.896632   4 C  py               96      6.309130   5 O  s         
    73     -6.123468   4 C  s               128      5.406450   7 C  s         
   160     -5.392358   9 C  s                12     -4.801835   1 O  py        
 
 Vector   77  Occ=0.000000D+00  E= 4.482093D-01  Symmetry=a"
              MO Center=  5.4D-01,  2.1D+00,  2.4D-13, r^2= 1.2D+01
   Bfn.  Coefficient  Atom+Function         Bfn.  Coefficient  Atom+Function  
  ----- ------------  ---------------      ----- ------------  ---------------
   217      5.809321  14 H  s               226     -5.809321  15 H  s         
   169     -5.050578   9 C  pz              166     -3.577666   9 C  pz        
   218      3.190188  14 H  s               227     -3.190188  15 H  s         
    82      3.050872   4 C  pz              190     -1.444132  11 H  s         
   199      1.444132  12 H  s               134     -1.089955   7 C  pz        
 
 Vector   78  Occ=0.000000D+00  E= 4.625014D-01  Symmetry=a'
              MO Center=  9.5D-01,  5.6D-01, -4.8D-13, r^2= 1.5D+01
   Bfn.  Coefficient  Atom+Function         Bfn.  Coefficient  Atom+Function  
  ----- ------------  ---------------      ----- ------------  ---------------
    27     40.521516   2 C  s               128    -27.140178   7 C  s         
    35    -11.697230   2 C  py               58     10.995104   3 C  py        
    50     -8.301064   3 C  s                34      7.604550   2 C  px        
     4     -6.563413   1 O  s               135      4.856244   7 C  px        
    32      4.617433   2 C  py              168      4.355363   9 C  py        
 
 Vector   79  Occ=0.000000D+00  E= 4.814425D-01  Symmetry=a'
              MO Center= -4.6D-01, -7.9D-01,  1.6D-11, r^2= 1.1D+01
   Bfn.  Coefficient  Atom+Function         Bfn.  Coefficient  Atom+Function  
  ----- ------------  ---------------      ----- ------------  ---------------
   128     29.907589   7 C  s                27    -19.920828   2 C  s         
   160    -18.991098   9 C  s                35     13.250247   2 C  py        
    81     10.988333   4 C  py               73      9.686757   4 C  s         
     4      9.495144   1 O  s                80      7.188565   4 C  px        
    50     -6.077522   3 C  s               136      5.327499   7 C  py        
 
 Vector   80  Occ=0.000000D+00  E= 4.827899D-01  Symmetry=a"
              MO Center=  9.7D-01,  1.3D+00, -3.4D-12, r^2= 1.0D+01
   Bfn.  Coefficient  Atom+Function         Bfn.  Coefficient  Atom+Function  
  ----- ------------  ---------------      ----- ------------  ---------------
   217      3.522323  14 H  s               226     -3.522323  15 H  s         
   166     -2.772692   9 C  pz              218      2.036842  14 H  s         
   227     -2.036842  15 H  s               169     -1.816266   9 C  pz        
   222     -1.210769  14 H  px              231      1.210769  15 H  px        
   223     -0.908483  14 H  py              232      0.908483  15 H  py        
 
 Vector   81  Occ=0.000000D+00  E= 5.027588D-01  Symmetry=a"
              MO Center=  7.5D-01, -7.4D-01, -9.1D-12, r^2= 1.2D+01
   Bfn.  Coefficient  Atom+Function         Bfn.  Coefficient  Atom+Function  
  ----- ------------  ---------------      ----- ------------  ---------------
   190      5.188435  11 H  s               199     -5.188435  12 H  s         
   134      3.152094   7 C  pz               59     -2.806522   3 C  pz        
   191      2.808518  11 H  s               200     -2.808518  12 H  s         
   137      2.737051   7 C  pz              217      2.302346  14 H  s         
   226     -2.302346  15 H  s                82      1.943941   4 C  pz        
 

 center of mass
 --------------
 x =  -0.11152838 y =   0.00584840 z =   0.00000000

 moments of inertia (a.u.)
 ------------------
        1043.499912567372           0.000000000000           0.000000000000
           0.000000000000         314.001465830873           0.000000000000
           0.000000000000           0.000000000000        1334.429069775149
 
  Mulliken analysis of the total density
  --------------------------------------

    Atom       Charge   Shell Charges
 -----------   ------   -------------------------------------------------------
    1 O    8     8.87   2.00  0.82  1.04  0.24  2.84  1.79  0.10  0.02  0.01
    2 C    6     5.87   2.01  0.68  0.43 -0.19  1.88  0.81  0.08  0.17 -0.02
    3 C    6     5.11   2.01  0.64  0.35 -0.38  2.10  0.50  0.08  0.07 -0.24
    4 C    6     5.97   2.01  0.69  0.60 -0.10  1.87  0.63 -0.04  0.19  0.12
    5 O    8     9.01   2.00  0.83  1.07  0.23  2.78  1.90  0.15  0.02  0.03
    6 H    1     0.71   0.65 -0.01  0.00  0.09 -0.02
    7 C    6     5.58   2.01  0.65 -0.06  0.13  2.06  0.77  0.02  0.06 -0.05
    8 H    1     1.58   0.78  0.77 -0.00  0.03 -0.00
    9 C    6     5.63   2.01  0.66 -0.09  0.23  2.06  0.77  0.01  0.06 -0.07
   10 H    1     1.07   0.77  0.30  0.01  0.03 -0.03
   11 H    1     0.88   0.75  0.13  0.00  0.03 -0.04
   12 H    1     0.88   0.75  0.13  0.00  0.03 -0.04
   13 H    1     1.07   0.76  0.29  0.03  0.03 -0.03
   14 H    1     0.88   0.75  0.16 -0.00  0.03 -0.06
   15 H    1     0.88   0.75  0.16 -0.00  0.03 -0.06
 
       Multipole analysis of the density wrt the origin
       ------------------------------------------------
 
     L   x y z        total         open         nuclear
     -   - - -        -----         ----         -------
     0   0 0 0     -0.000000      0.000000     54.000000
 
     1   1 0 0      1.403277      0.000000     -0.000000
     1   0 1 0     -0.250897      0.000000     -0.000000
     1   0 0 1      0.000000      0.000000      0.000000
 
     2   2 0 0    -33.455826      0.000000    176.312718
     2   1 1 0      0.939420      0.000000      1.249588
     2   1 0 1      0.000000      0.000000      0.000000
     2   0 2 0    -29.041340      0.000000    602.930762
     2   0 1 1      0.000000      0.000000      0.000000
[...]
          32    -0.09499     0.11953    -0.18830    -0.01870     0.24786    -0.00516
          33     0.13164     0.04925     0.21235    -0.00564    -0.23263     0.00647
          34    -0.19807     0.46071    -0.23721    -0.06008     0.19782     0.01403
          35    -0.09499    -0.11953    -0.18830     0.01870     0.24786    -0.00516
          36    -0.13164     0.04925    -0.21235    -0.00564     0.23263    -0.00647
          37     0.27048    -0.00000    -0.20881    -0.00000    -0.03130     0.09816
          38     0.16904     0.00000    -0.16338    -0.00000    -0.04880     0.07866
          39    -0.00000     0.09003    -0.00000     0.70002    -0.00000     0.00000
          40    -0.35945    -0.02067     0.30842    -0.15759     0.06435    -0.07741
          41     0.15225     0.05659    -0.04034     0.44265     0.03394    -0.02794
          42     0.25577     0.00730    -0.23505     0.05508    -0.06138     0.04445
          43    -0.35945     0.02067     0.30842     0.15759     0.06435    -0.07741
          44     0.15225    -0.05659    -0.04034    -0.44265     0.03394    -0.02794
          45    -0.25577     0.00730     0.23505     0.05508     0.06138    -0.04445

                   37          38          39          40          41          42
 
 P.Frequency     1695.95     3061.25     3067.27     3071.14     3151.70     3156.61
 
           1     0.02625    -0.01669     0.00984     0.00290    -0.00000     0.00000
           2     0.03125     0.04816    -0.02803    -0.00789    -0.00000     0.00000
           3    -0.00000    -0.00000    -0.00000    -0.00000     0.00006    -0.00010
           4    -0.06033    -0.01053     0.00596     0.00316     0.00000     0.00000
           5    -0.17917    -0.00156     0.00080    -0.00148    -0.00000     0.00000
           6     0.00000     0.00000     0.00000     0.00000    -0.00015     0.00126
           7     0.04420    -0.00015     0.00037     0.00013    -0.00000     0.00000
           8     0.14563     0.00723    -0.00424    -0.00127     0.00000    -0.00000
           9     0.00000     0.00000    -0.00000    -0.00000    -0.00017     0.00002
          10    -0.05182     0.01175    -0.00594    -0.00156    -0.00000     0.00000
          11    -0.02891    -0.00498     0.00584     0.00107     0.00000    -0.00000
          12     0.00000    -0.00000     0.00000    -0.00000     0.00118     0.00001
          13     0.03651    -0.00706     0.00434     0.00110     0.00000     0.00000
          14     0.00228    -0.00173     0.00079     0.00025    -0.00000     0.00000
          15     0.00000    -0.00000     0.00000     0.00000     0.00008     0.00002
          16    -0.33720     0.36709    -0.21347    -0.06140    -0.00000    -0.00000
          17    -0.12668    -0.73668     0.43052     0.12137     0.00000     0.00000
          18    -0.00000    -0.00000    -0.00000    -0.00000     0.00017    -0.00100
          19    -0.00364     0.00339    -0.00118    -0.01169    -0.00000     0.00000
          20     0.03654     0.00485    -0.00663     0.04797     0.00000     0.00000
          21    -0.00000     0.00000     0.00000    -0.00000    -0.00063     0.08733
          22     0.06776     0.00356    -0.00768    -0.00624    -0.00000     0.00000
          23    -0.14792     0.00725    -0.00427    -0.00166    -0.00000    -0.00000
          24     0.00000    -0.00000     0.00000    -0.00000     0.00140     0.00037
          25     0.00590    -0.02149    -0.02969    -0.00201    -0.00000     0.00000
          26     0.00431    -0.01621    -0.03003    -0.00238    -0.00000     0.00000
          27    -0.00000     0.00000    -0.00000    -0.00000     0.08697     0.00063
          28     0.00627     0.01443    -0.04334     0.45873     0.00000     0.00000
          29    -0.11884    -0.00108    -0.00393     0.06021     0.00000     0.00000
          30     0.00000    -0.00000    -0.00000     0.00000    -0.00008     0.01699
          31     0.01879    -0.01835     0.02398    -0.16895     0.00131    -0.19267
          32     0.07078    -0.03066     0.04177    -0.30426     0.00254    -0.35645
          33    -0.03029    -0.05356     0.06989    -0.49128     0.00382    -0.53513
          34     0.01879    -0.01835     0.02398    -0.16895    -0.00131     0.19267
          35     0.07078    -0.03066     0.04177    -0.30426    -0.00254     0.35645
          36     0.03029     0.05356    -0.06989     0.49128     0.00382    -0.53513
          37    -0.02378    -0.13514    -0.25599    -0.02087     0.00000    -0.00000
          38    -0.01728     0.16052     0.29105     0.02341     0.00000    -0.00000
          39    -0.00000    -0.00000    -0.00000     0.00000     0.01934     0.00012
          40     0.01773     0.18325     0.30522     0.02340    -0.40523    -0.00285
          41    -0.00296     0.01073     0.02163     0.00186    -0.03163    -0.00023
          42    -0.00800     0.26435     0.43005     0.03247    -0.53447    -0.00381
          43     0.01773     0.18325     0.30522     0.02340     0.40523     0.00285
          44    -0.00296     0.01073     0.02163     0.00186     0.03163     0.00023
          45     0.00800    -0.26435    -0.43005    -0.03247    -0.53447    -0.00381

                   43          44          45
 
 P.Frequency     3192.14     3197.66     3253.87
 
           1     0.00024    -0.00060     0.00090
           2    -0.00225     0.00128    -0.00031
           3     0.00000    -0.00000     0.00000
           4     0.00183     0.00001     0.00102
           5     0.00254     0.00019     0.00479
           6    -0.00000     0.00000    -0.00000
           7    -0.00332    -0.00126    -0.08377
           8    -0.00088     0.00019    -0.00357
           9    -0.00000     0.00000     0.00000
          10    -0.00039     0.00257     0.00066
          11     0.00012    -0.00049    -0.00325
          12    -0.00000     0.00000    -0.00000
          13     0.00022    -0.00075     0.00058
          14    -0.00000     0.00021     0.00002
          15    -0.00000     0.00000     0.00000
          16    -0.01613     0.00898     0.00052
          17     0.03438    -0.02073     0.00713
          18    -0.00000    -0.00000    -0.00000
          19     0.08197    -0.00156    -0.00306
          20     0.03267    -0.00063    -0.00121
          21     0.00000     0.00000    -0.00000
          22     0.03358     0.01092     0.95191
          23    -0.00030     0.00193     0.02018
          24    -0.00000     0.00000     0.00000
          25     0.00142     0.07203    -0.00111
          26    -0.00104    -0.05153     0.00075
          27     0.00000    -0.00000    -0.00000
          28    -0.83255     0.01618     0.03207
          29    -0.09360     0.00180     0.00328
          30    -0.00000     0.00000    -0.00000
          31    -0.07312     0.00137     0.00272
          32    -0.15737     0.00280     0.00339
          33    -0.25895     0.00469     0.00687
          34    -0.07312     0.00137     0.00272
          35    -0.15737     0.00280     0.00339
          36     0.25895    -0.00469    -0.00687
          37    -0.01095    -0.54481     0.00632
          38     0.01297     0.65339    -0.00504
          39     0.00000    -0.00000    -0.00000
          40    -0.00284    -0.16364     0.00361
          41    -0.00038    -0.02159     0.00096
          42    -0.00445    -0.24442     0.00589
          43    -0.00284    -0.16364     0.00361
          44    -0.00038    -0.02159     0.00096
          45     0.00445     0.24442    -0.00589



 ----------------------------------------------------------------------------
 Normal Eigenvalue ||    Projected Derivative Dipole Moments (debye/angs)
  Mode   [cm**-1]  ||      [d/dqX]             [d/dqY]           [d/dqZ]
 ------ ---------- || ------------------ ------------------ -----------------
    1       -0.000 ||      -0.014              -0.144            -0.006
    2       -0.000 ||      -0.000              -0.005             0.214
    3        0.000 ||       0.000               0.001            -0.246
    4        0.000 ||      -0.002              -0.018             0.004
    5        0.000 ||       0.006               0.067             0.004
    6        0.000 ||      -0.000              -0.004            -0.064
    7       69.032 ||      -0.000               0.000            -0.038
    8      119.343 ||       0.000               0.000            -0.147
    9      152.698 ||      -0.000               0.000            -0.033
   10      187.702 ||      -0.000              -0.000            -0.026
   11      230.935 ||       0.064              -0.217            -0.000
   12      370.654 ||      -0.310              -0.149            -0.000
   13      388.500 ||      -0.076               0.247            -0.000
   14      500.545 ||       0.228              -0.502             0.000
   15      544.610 ||      -0.000              -0.000             0.089
   16      627.653 ||       0.000               0.000             0.039
   17      648.784 ||       0.251               0.545             0.000
   18      778.429 ||       0.000               0.000            -0.894
   19      916.338 ||       0.172               0.923            -0.000
   20      943.603 ||      -0.193              -0.168             0.000
   21      985.965 ||       0.000              -0.000            -1.201
   22     1002.617 ||       0.347              -0.371             0.000
   23     1025.561 ||       0.393               0.202             0.000
   24     1028.501 ||       0.000              -0.000            -0.197
   25     1049.973 ||       0.000              -0.000            -0.048
   26     1186.319 ||       0.386              -0.343             0.000
   27     1283.703 ||      -0.953              -1.501             0.000
   28     1371.394 ||       0.731               0.782             0.000
   29     1384.937 ||       0.565              -0.354             0.000
   30     1410.043 ||       0.229               1.198            -0.000
   31     1450.804 ||       1.560              -0.293            -0.000
   32     1463.146 ||      -0.000              -0.000             0.474
   33     1464.301 ||      -0.624               0.268            -0.000
   34     1467.739 ||      -0.000               0.000             0.383
   35     1488.446 ||      -0.542               1.102            -0.000
   36     1644.431 ||       1.303              -1.202             0.000
   37     1695.948 ||      -1.263              -2.991            -0.000
   38     3061.251 ||      -0.487               2.231             0.000
   39     3067.266 ||      -0.521               1.133            -0.000
   40     3071.141 ||      -0.219               0.789            -0.000
   41     3151.698 ||       0.000              -0.000            -0.347
   42     3156.612 ||       0.000              -0.000            -0.305
   43     3192.139 ||       0.402               0.155            -0.000
   44     3197.660 ||       0.183              -0.431             0.000
   45     3253.873 ||      -0.187               0.115            -0.000
 ----------------------------------------------------------------------------



  
  
 ----------------------------------------------------------------------------
 Normal Eigenvalue ||           Projected Infra Red Intensities
  Mode   [cm**-1]  || [atomic units] [(debye/angs)**2] [(KM/mol)] [arbitrary]
 ------ ---------- || -------------- ----------------- ---------- -----------
    1       -0.000 ||    0.000910           0.021         0.887       0.249
    2       -0.000 ||    0.001992           0.046         1.942       0.545
    3        0.000 ||    0.002621           0.060         2.555       0.718
    4        0.000 ||    0.000015           0.000         0.015       0.004
    5        0.000 ||    0.000195           0.005         0.190       0.053
    6        0.000 ||    0.000177           0.004         0.173       0.048
    7       69.032 ||    0.000062           0.001         0.061       0.017
    8      119.343 ||    0.000938           0.022         0.914       0.257
    9      152.698 ||    0.000046           0.001         0.045       0.013
   10      187.702 ||    0.000028           0.001         0.028       0.008
   11      230.935 ||    0.002223           0.051         2.167       0.609
   12      370.654 ||    0.005125           0.118         4.996       1.403
   13      388.500 ||    0.002891           0.067         2.818       0.792
   14      500.545 ||    0.013190           0.304        12.858       3.612
   15      544.610 ||    0.000347           0.008         0.338       0.095
   16      627.653 ||    0.000065           0.002         0.064       0.018
   17      648.784 ||    0.015591           0.360        15.199       4.269
   18      778.429 ||    0.034619           0.799        33.748       9.480
   19      916.338 ||    0.038219           0.882        37.257      10.465
   20      943.603 ||    0.002836           0.065         2.764       0.777
   21      985.965 ||    0.062541           1.443        60.968      17.126
   22     1002.617 ||    0.011189           0.258        10.907       3.064
   23     1025.561 ||    0.008473           0.195         8.260       2.320
   24     1028.501 ||    0.001675           0.039         1.633       0.459
   25     1049.973 ||    0.000098           0.002         0.095       0.027
   26     1186.319 ||    0.011544           0.266        11.254       3.161
   27     1283.703 ||    0.137064           3.162       133.617      37.532
   28     1371.394 ||    0.049675           1.146        48.426      13.603
   29     1384.937 ||    0.019263           0.444        18.778       5.275
   30     1410.043 ||    0.064485           1.488        62.863      17.658
   31     1450.804 ||    0.109144           2.518       106.399      29.887
   32     1463.146 ||    0.009718           0.224         9.474       2.661
   33     1464.301 ||    0.019999           0.461        19.496       5.476
   34     1467.739 ||    0.006363           0.147         6.203       1.742
   35     1488.446 ||    0.065394           1.509        63.750      17.907
   36     1644.431 ||    0.136218           3.143       132.792      37.300
   37     1695.948 ||    0.457018          10.544       445.523     125.144
   38     3061.251 ||    0.226060           5.215       220.375      61.902
   39     3067.266 ||    0.067421           1.555        65.725      18.462
   40     3071.141 ||    0.029039           0.670        28.309       7.952
   41     3151.698 ||    0.005213           0.120         5.082       1.427
   42     3156.612 ||    0.004031           0.093         3.930       1.104
   43     3192.139 ||    0.008052           0.186         7.849       2.205
   44     3197.660 ||    0.009504           0.219         9.265       2.602
   45     3253.873 ||    0.002096           0.048         2.043       0.574
 ----------------------------------------------------------------------------



 vib:animation  F

 Task  times  cpu:    26975.8s     wall:    27179.9s
 
 
                                NWChem Input Module
                                -------------------
 
 
 Summary of allocated global arrays
-----------------------------------
  No active global arrays



                         GA Statistics for process    0
                         ------------------------------

       create   destroy   get      put      acc     scatter   gather  read&inc
calls: 9.49e+04 9.49e+04 2.10e+07 3.05e+06 9.53e+06    0        0     2.53e+05 
number of processes/call 2.69e+01 7.71e+01 3.21e+01 0.00e+00 0.00e+00
bytes total:             2.39e+10 4.47e+10 6.81e+09 0.00e+00 0.00e+00 2.02e+06
bytes remote:            1.15e+10 3.09e+10 4.80e+09 0.00e+00 0.00e+00 0.00e+00
Max memory consumed for GA by this process: 163936696 bytes
 
MA_summarize_allocated_blocks: starting scan ...
MA_summarize_allocated_blocks: scan completed: 0 heap blocks, 0 stack blocks
MA usage statistics:

	allocation statistics:
					      heap	     stack
					      ----	     -----
	current number of blocks	         0	         0
	maximum number of blocks	        25	        39
	current total bytes		         0	         0
	maximum total bytes		  75978856	  27144104
	maximum total K-bytes		     75979	     27145
	maximum total M-bytes		        76	        28
 
 
                                     CITATION
                                     --------
                Please cite the following reference when publishing
                           results obtained with NWChem:
 
          E. Apr, E. J. Bylaska, W. A. de Jong, N. Govind, K. Kowalski,
       T. P. Straatsma, M. Valiev, H. J. J. van Dam, Y. Alexeev, J. Anchell,
       V. Anisimov, F. W. Aquino, R. Atta-Fynn, J. Autschbach, N. P. Bauman,
     J. C. Becca, D. E. Bernholdt, K. Bhaskaran-Nair, S. Bogatko, P. Borowski,
        J. Boschen, J. Brabec, A. Bruner, E. Caut, Y. Chen, G. N. Chuev,
      C. J. Cramer, J. Daily, M. J. O. Deegan, T. H. Dunning Jr., M. Dupuis,
   K. G. Dyall, G. I. Fann, S. A. Fischer, A. Fonari, H. Frchtl, L. Gagliardi,
      J. Garza, N. Gawande, S. Ghosh, K. Glaesemann, A. W. Gtz, J. Hammond,
       V. Helms, E. D. Hermes, K. Hirao, S. Hirata, M. Jacquelin, L. Jensen,
   B. G. Johnson, H. Jnsson, R. A. Kendall, M. Klemm, R. Kobayashi, V. Konkov,
      S. Krishnamoorthy, M. Krishnan, Z. Lin, R. D. Lins, R. J. Littlefield,
      A. J. Logsdail, K. Lopata, W. Ma, A. V. Marenich, J. Martin del Campo,
   D. Mejia-Rodriguez, J. E. Moore, J. M. Mullin, T. Nakajima, D. R. Nascimento,
    J. A. Nichols, P. J. Nichols, J. Nieplocha, A. Otero-de-la-Roza, B. Palmer,
    A. Panyala, T. Pirojsirikul, B. Peng, R. Peverati, J. Pittner, L. Pollack,
   R. M. Richard, P. Sadayappan, G. C. Schatz, W. A. Shelton, D. W. Silverstein,
   D. M. A. Smith, T. A. Soares, D. Song, M. Swart, H. L. Taylor, G. S. Thomas,
            V. Tipparaju, D. G. Truhlar, K. Tsemekhman, T. Van Voorhis,
     . Vzquez-Mayagoitia, P. Verma, O. Villa, A. Vishnu, K. D. Vogiatzis,
        D. Wang, J. H. Weare, M. J. Williamson, T. L. Windus, K. Woliski,
        A. T. Wong, Q. Wu, C. Yang, Q. Yu, M. Zacharias, Z. Zhang, Y. Zhao,
                                and R. J. Harrison
                        "NWChem: Past, present, and future
                         J. Chem. Phys. 152, 184102 (2020)
                               doi:10.1063/5.0004997
 
                                      AUTHORS
                                      -------
     E. Apra, E. J. Bylaska, N. Govind, K. Kowalski, M. Valiev, W. A. de Jong,
      T. P. Straatsma, H. J. J. van Dam, D. Wang, T. L. Windus, N. P. Bauman,
       A. Panyala, J. Hammond, J. Autschbach, K. Bhaskaran-Nair, J. Brabec,
    K. Lopata, S. A. Fischer, S. Krishnamoorthy, M. Jacquelin, W. Ma, M. Klemm,
       O. Villa, Y. Chen, V. Anisimov, F. Aquino, S. Hirata, M. T. Hackler,
           Eric Hermes, L. Jensen, J. E. Moore, J. C. Becca, V. Konjkov,
            D. Mejia-Rodriguez, T. Risthaus, M. Malagoli, A. Marenich,
   A. Otero-de-la-Roza, J. Mullin, P. Nichols, R. Peverati, J. Pittner, Y. Zhao,
        P.-D. Fan, A. Fonari, M. J. Williamson, R. J. Harrison, J. R. Rehr,
      M. Dupuis, D. Silverstein, D. M. A. Smith, J. Nieplocha, V. Tipparaju,
      M. Krishnan, B. E. Van Kuiken, A. Vazquez-Mayagoitia, M. Swart, Q. Wu,
   T. Van Voorhis, A. A. Auer, M. Nooijen, L. D. Crosby, E. Brown, G. Cisneros,
     G. I. Fann, H. Fruchtl, J. Garza, K. Hirao, R. A. Kendall, J. A. Nichols,
       K. Tsemekhman, K. Wolinski, J. Anchell, D. E. Bernholdt, P. Borowski,
       T. Clark, D. Clerc, H. Dachsel, M. J. O. Deegan, K. Dyall, D. Elwood,
      E. Glendening, M. Gutowski, A. C. Hess, J. Jaffe, B. G. Johnson, J. Ju,
        R. Kobayashi, R. Kutteh, Z. Lin, R. Littlefield, X. Long, B. Meng,
      T. Nakajima, S. Niu, L. Pollack, M. Rosing, K. Glaesemann, G. Sandrone,
      M. Stave, H. Taylor, G. Thomas, J. H. van Lenthe, A. T. Wong, Z. Zhang.

 Total times  cpu:    31827.4s     wall:    32077.9s
