 argument  1 = 2O.nw
 


============================== echo of input deck ==============================
echo
start 2O
title "Me,H,Me Open"
charge 0

geometry
 zmatrix
  O
  C  1  R1
  C  2  R2  1  A1
  C  3  R3  2  A2  1  D0
  O  4  R4  3  A3  2  D0
  H  1  R5  2  A4  3  D180
  C  2  R6  3  A5  4  D180
  H  3  R7  2  A6  1  D180
  C  4  R8  3  A7  2  D180
  H  7  R9  2  A8  1  D1
  H  7  R10 2  A9  1  D2
  H  7  R11 2  A10 1  D3
  H  9  R12 4  A11 5  D4
  H  9  R13 4  A12 5  D5
  H  9  R14 4  A13 5  D6
  variables
    R1  1.329
    R2  1.363
    A1  124.5
    R3  1.440
    A2  119.5
    R4  1.249
    A3  123.5
    R5  0.994
    A4  105.4
    R6  1.485
    A5  122.5
    R7  1.078
    A6  120.0
    R8  1.499
    A7  117.6
    R9  1.100
    A8  110.0
    D1  180.0
    R10 1.100
    A9  110.0
    D2  60.00
    R11 1.100
    A10 110.0
    D3  -60.0
    R12 1.100
    A11 110.0
    D4  0.000
    R13 1.100
    A12 110.0
    D5  120.0
    R14 1.100
    A13 110.0
    D6  -120.
  constants
    D0  0.000
    D180 180.0
 end
end

basis spherical
 * library aug-cc-pVDZ
end

set lindep:n_dep 0

set cphf:maxsub 95
set cphf:maxiter 999
set int:acc_std 1d-16
set fock:densityscreen f

scf
 maxiter 99
 vectors input atomic
 thresh 1d-9
 tol2e 1d-15
end

mp2
 freeze atomic
 tight
end

driver
 clear
 maxiter 99
 tight
end

set "mp2:aotol2e fock" 1d-15
set mp2:aotol2e 1d-15
set mp2:backtol 1d-15


task mp2 optimize
task mp2 frequencies


================================================================================


                                         
                                         
 
 
             Northwest Computational Chemistry Package (NWChem) 7.0.0
             --------------------------------------------------------
 
 
                    Environmental Molecular Sciences Laboratory
                       Pacific Northwest National Laboratory
                                Richland, WA 99352
 
                              Copyright (c) 1994-2020
                       Pacific Northwest National Laboratory
                            Battelle Memorial Institute
 
             NWChem is an open-source computational chemistry package
                        distributed under the terms of the
                      Educational Community License (ECL) 2.0
             A copy of the license is included with this distribution
                              in the LICENSE.TXT file
 
                                  ACKNOWLEDGMENT
                                  --------------

            This software and its documentation were developed at the
            EMSL at Pacific Northwest National Laboratory, a multiprogram
            national laboratory, operated for the U.S. Department of Energy
            by Battelle under Contract Number DE-AC05-76RL01830. Support
            for this work was provided by the Department of Energy Office
            of Biological and Environmental Research, Office of Basic
            Energy Sciences, and the Office of Advanced Scientific Computing.


           Job information
           ---------------

    hostname        = compute-0-11.local
    program         = /scratch/nwchem.277679
    date            = Wed Mar 24 17:11:35 2021

    compiled        = Thu_Jun_25_16:07:03_2020
    source          = /home/edo/nwchem-7.0.1
    nwchem branch   = 7.0.1
    nwchem revision = de46fdf
    ga revision     = 5.7.1
    use scalapack   = T
    input           = 2O.nw
    prefix          = 2O.
    data base       = ./2O.db
    status          = startup
    nproc           =       11
    time left       =     -1s



           Memory information
           ------------------

    heap     =   13107196 doubles =    100.0 Mbytes
    stack    =   13107201 doubles =    100.0 Mbytes
    global   =   26214400 doubles =    200.0 Mbytes (distinct from heap & stack)
    total    =   52428797 doubles =    400.0 Mbytes
    verify   = yes
    hardfail = no 


           Directory information
           ---------------------
 
  0 permanent = .
  0 scratch   = /scratch
 
 
 
 
                                NWChem Input Module
                                -------------------
 
 
                                   Me,H,Me Open
                                   ------------

 Scaling coordinates for geometry "geometry" by  1.889725989
 (inverse scale =  0.529177249)

 CS  symmetry detected
 
 
                             Geometry "geometry" -> ""
                             -------------------------
 
 Output coordinates in angstroms (scale by  1.889725989 to convert to a.u.)
 
  No.       Tag          Charge          X              Y              Z
 ---- ---------------- ---------- -------------- -------------- --------------
    1 O                    8.0000    -1.23847322    -1.28575123     0.00000000
    2 C                    6.0000     0.08342257    -1.14851964     0.00000000
    3 C                    6.0000     0.73531797     0.04847718     0.00000000
    4 C                    6.0000    -0.02620681     1.27063921     0.00000000
    5 O                    8.0000    -1.27473607     1.30492747     0.00000000
    6 H                    1.0000    -1.40207049    -2.26619599     0.00000000
    7 C                    6.0000     0.80170688    -2.44824756     0.00000000
    8 H                    1.0000     1.81298370     0.07532076     0.00000000
    9 C                    6.0000     0.73398705     2.56257818     0.00000000
   10 H                    1.0000     1.88838276    -2.27755620     0.00000000
   11 H                    1.0000     0.53133305    -3.02751894    -0.89517745
   12 H                    1.0000     0.53133305    -3.02751894     0.89517745
   13 H                    1.0000     0.03390280     3.41103680     0.00000000
   14 H                    1.0000     1.37022174     2.62472918     0.89517745
   15 H                    1.0000     1.37022174     2.62472918    -0.89517745
 
      Atomic Mass 
      ----------- 
 
      O                 15.994910
      C                 12.000000
      H                  1.007825
 

 Effective nuclear repulsion energy (a.u.)     296.3051686901

            Nuclear Dipole moment (a.u.) 
            ----------------------------
        X                 Y               Z
 ---------------- ---------------- ----------------
     0.0000000000     0.0000000000     0.0000000000
 
      Symmetry information
      --------------------
 
 Group name             Cs        
 Group number              2
 Group order               2
 No. of unique centers    13
 
      Symmetry unique atoms
 
     1    2    3    4    5    6    7    8    9   10   11   13   14
 


                                Z-matrix (user)
                                -------- 

 Units are Angstrom for bonds and degrees for angles

  Constants are marked with an asterisk (*).

  Constrained variables are marked with a plus sign (+).

 
      Type          Name      I     J     K     L     M      Value
      ----------- --------  ----- ----- ----- ----- ----- ----------
    1 Stretch      R1          2     1                       1.32900
    2 Stretch      R2          3     2                       1.36300
    3 Bend         A1          3     2     1               124.50000
    4 Stretch      R3          4     3                       1.44000
    5 Bend         A2          4     3     2               119.50000
    6*Torsion      D0          4     3     2     1           0.00000
    7 Stretch      R4          5     4                       1.24900
    8 Bend         A3          5     4     3               123.50000
    9*Torsion      D0          5     4     3     2           0.00000
   10 Stretch      R5          6     1                       0.99400
   11 Bend         A4          6     1     2               105.40000
   12*Torsion      D180        6     1     2     3         180.00000
   13 Stretch      R6          7     2                       1.48500
   14 Bend         A5          7     2     3               122.50000
   15*Torsion      D180        7     2     3     4         180.00000
   16 Stretch      R7          8     3                       1.07800
   17 Bend         A6          8     3     2               120.00000
   18*Torsion      D180        8     3     2     1         180.00000
   19 Stretch      R8          9     4                       1.49900
   20 Bend         A7          9     4     3               117.60000
   21*Torsion      D180        9     4     3     2         180.00000
   22 Stretch      R9         10     7                       1.10000
   23 Bend         A8         10     7     2               110.00000
   24 Torsion      D1         10     7     2     1         180.00000
   25 Stretch      R10        11     7                       1.10000
   26 Bend         A9         11     7     2               110.00000
   27 Torsion      D2         11     7     2     1          60.00000
   28 Stretch      R11        12     7                       1.10000
   29 Bend         A10        12     7     2               110.00000
   30 Torsion      D3         12     7     2     1         -60.00000
   31 Stretch      R12        13     9                       1.10000
   32 Bend         A11        13     9     4               110.00000
   33 Torsion      D4         13     9     4     5           0.00000
   34 Stretch      R13        14     9                       1.10000
   35 Bend         A12        14     9     4               110.00000
   36 Torsion      D5         14     9     4     5         120.00000
   37 Stretch      R14        15     9                       1.10000
   38 Bend         A13        15     9     4               110.00000
   39 Torsion      D6         15     9     4     5        -120.00000
 
 
            XYZ format geometry
            -------------------
    15
 geometry
 O                    -1.23847322    -1.28575123     0.00000000
 C                     0.08342257    -1.14851964     0.00000000
 C                     0.73531797     0.04847718     0.00000000
 C                    -0.02620681     1.27063921     0.00000000
 O                    -1.27473607     1.30492747     0.00000000
 H                    -1.40207049    -2.26619599     0.00000000
 C                     0.80170688    -2.44824756     0.00000000
 H                     1.81298370     0.07532076     0.00000000
 C                     0.73398705     2.56257818     0.00000000
 H                     1.88838276    -2.27755620     0.00000000
 H                     0.53133305    -3.02751894    -0.89517745
 H                     0.53133305    -3.02751894     0.89517745
 H                     0.03390280     3.41103680     0.00000000
 H                     1.37022174     2.62472918     0.89517745
 H                     1.37022174     2.62472918    -0.89517745
 
 ==============================================================================
                                internuclear distances
 ------------------------------------------------------------------------------
       center one      |      center two      | atomic units |  angstroms
 ------------------------------------------------------------------------------
    2 C                |   1 O                |     2.51145  |     1.32900
    3 C                |   2 C                |     2.57570  |     1.36300
    4 C                |   3 C                |     2.72121  |     1.44000
    5 O                |   4 C                |     2.36027  |     1.24900
    6 H                |   1 O                |     1.87839  |     0.99400
    7 C                |   2 C                |     2.80624  |     1.48500
    8 H                |   3 C                |     2.03712  |     1.07800
    9 C                |   4 C                |     2.83270  |     1.49900
   10 H                |   7 C                |     2.07870  |     1.10000
   11 H                |   7 C                |     2.07870  |     1.10000
   12 H                |   7 C                |     2.07870  |     1.10000
   13 H                |   9 C                |     2.07870  |     1.10000
   14 H                |   9 C                |     2.07870  |     1.10000
   15 H                |   9 C                |     2.07870  |     1.10000
 ------------------------------------------------------------------------------
                         number of included internuclear distances:         14
 ==============================================================================



 ==============================================================================
                                 internuclear angles
 ------------------------------------------------------------------------------
        center 1       |       center 2       |       center 3       |  degrees
 ------------------------------------------------------------------------------
    2 C                |   1 O                |   6 H                |   105.40
    1 O                |   2 C                |   3 C                |   124.50
    1 O                |   2 C                |   7 C                |   113.00
    3 C                |   2 C                |   7 C                |   122.50
    2 C                |   3 C                |   4 C                |   119.50
    2 C                |   3 C                |   8 H                |   120.00
    4 C                |   3 C                |   8 H                |   120.50
    3 C                |   4 C                |   5 O                |   123.50
    3 C                |   4 C                |   9 C                |   117.60
    5 O                |   4 C                |   9 C                |   118.90
    2 C                |   7 C                |  10 H                |   110.00
    2 C                |   7 C                |  11 H                |   110.00
    2 C                |   7 C                |  12 H                |   110.00
   10 H                |   7 C                |  11 H                |   108.94
   10 H                |   7 C                |  12 H                |   108.94
   11 H                |   7 C                |  12 H                |   108.94
    4 C                |   9 C                |  13 H                |   110.00
    4 C                |   9 C                |  14 H                |   110.00
    4 C                |   9 C                |  15 H                |   110.00
   13 H                |   9 C                |  14 H                |   108.94
   13 H                |   9 C                |  15 H                |   108.94
   14 H                |   9 C                |  15 H                |   108.94
 ------------------------------------------------------------------------------
                            number of included internuclear angles:         22
 ==============================================================================





 Summary of "ao basis" -> "" (spherical)
 ------------------------------------------------------------------------------
       Tag                 Description            Shells   Functions and Types
 ---------------- ------------------------------  ------  ---------------------
 *                        aug-cc-pVDZ                 on all atoms 


 
  Deleted DRIVER restart files 
 
 
 
                           NWChem Geometry Optimization
                           ----------------------------
 
 
 
 
                                   Me,H,Me Open
 
 
 maximum gradient threshold         (gmax) =   0.000015
 rms gradient threshold             (grms) =   0.000010
 maximum cartesian step threshold   (xmax) =   0.000060
 rms cartesian step threshold       (xrms) =   0.000040
 fixed trust radius                (trust) =   0.300000
 maximum step size to saddle      (sadstp) =   0.100000
 energy precision                  (eprec) =   1.0D-07
 maximum number of steps          (nptopt) =   99
 initial hessian option           (inhess) =    0
 line search option               (linopt) =    1
 hessian update option            (modupd) =    1
 saddle point option              (modsad) =    0
 initial eigen-mode to follow     (moddir) =    0
 initial variable to follow       (vardir) =    0
 follow first negative mode     (firstneg) =    T
 apply conjugacy                    (opcg) =    F
 source of zmatrix                         =   user    


          -------------------
          Energy Minimization
          -------------------

 
 Names of Z-matrix variables 
    1 R1           2 R2           3 A1           4 R3           5 A2      
    6 D0           7 R4           8 A3           9 D0          10 R5      
   11 A4          12 D180        13 R6          14 A5          15 D180    
   16 R7          17 A6          18 D180        19 R8          20 A7      
   21 D180        22 R9          23 A8          24 D1          25 R10     
   26 A9          27 D2          28 R11         29 A10         30 D3      
   31 R12         32 A11         33 D4          34 R13         35 A12     
   36 D5          37 R14         38 A13         39 D6      
 
 Variables with the same non-blank name are constrained to be equal
 
     variables named       D0 =     6    9 
     variables named     D180 =    12   15   18   21 

 Number of frozen variables =    6
           Frozen variables =    6    9   12   15   18   21
 
 Using diagonal initial Hessian 
 Scaling for Hessian diagonals: bonds = 1.00  angles = 0.25  torsions = 0.10

          --------
          Step   0
          --------
 
 
                         Geometry "geometry" -> "geometry"
                         ---------------------------------
 
 Output coordinates in angstroms (scale by  1.889725989 to convert to a.u.)
 
  No.       Tag          Charge          X              Y              Z
 ---- ---------------- ---------- -------------- -------------- --------------
    1 O                    8.0000    -1.23847322    -1.28575123     0.00000000
    2 C                    6.0000     0.08342257    -1.14851964     0.00000000
    3 C                    6.0000     0.73531797     0.04847718     0.00000000
    4 C                    6.0000    -0.02620681     1.27063921     0.00000000
    5 O                    8.0000    -1.27473607     1.30492747     0.00000000
    6 H                    1.0000    -1.40207049    -2.26619599     0.00000000
    7 C                    6.0000     0.80170688    -2.44824756     0.00000000
    8 H                    1.0000     1.81298370     0.07532076     0.00000000
    9 C                    6.0000     0.73398705     2.56257818     0.00000000
   10 H                    1.0000     1.88838276    -2.27755620     0.00000000
   11 H                    1.0000     0.53133305    -3.02751894    -0.89517745
   12 H                    1.0000     0.53133305    -3.02751894     0.89517745
   13 H                    1.0000     0.03390280     3.41103680     0.00000000
   14 H                    1.0000     1.37022174     2.62472918     0.89517745
   15 H                    1.0000     1.37022174     2.62472918    -0.89517745
 
      Atomic Mass 
      ----------- 
 
      O                 15.994910
      C                 12.000000
      H                  1.007825
 

 Effective nuclear repulsion energy (a.u.)     296.3051686901

            Nuclear Dipole moment (a.u.) 
            ----------------------------
        X                 Y               Z
 ---------------- ---------------- ----------------
     0.0000000000     0.0000000000     0.0000000000
 
      Symmetry information
      --------------------
 
 Group name             Cs        
 Group number              2
 Group order               2
 No. of unique centers    13
 
      Symmetry unique atoms
 
     1    2    3    4    5    6    7    8    9   10   11   13   14
 
                      Basis "ao basis" -> "ao basis" (spherical)
                      -----
  O (Oxygen)
  ----------
            Exponent  Coefficients 
       -------------- ---------------------------------------------------------
  1 S  1.17200000E+04  0.000710
  1 S  1.75900000E+03  0.005470
  1 S  4.00800000E+02  0.027837
  1 S  1.13700000E+02  0.104800
  1 S  3.70300000E+01  0.283062
  1 S  1.32700000E+01  0.448719
  1 S  5.02500000E+00  0.270952
  1 S  1.01300000E+00  0.015458
 
  2 S  1.17200000E+04 -0.000160
  2 S  1.75900000E+03 -0.001263
  2 S  4.00800000E+02 -0.006267
  2 S  1.13700000E+02 -0.025716
  2 S  3.70300000E+01 -0.070924
  2 S  1.32700000E+01 -0.165411
  2 S  5.02500000E+00 -0.116955
  2 S  1.01300000E+00  0.557368
 
  3 S  3.02300000E-01  1.000000
 
  4 S  7.89600000E-02  1.000000
 
  5 P  1.77000000E+01  0.043018
  5 P  3.85400000E+00  0.228913
  5 P  1.04600000E+00  0.508728
 
  6 P  2.75300000E-01  1.000000
 
  7 P  6.85600000E-02  1.000000
 
  8 D  1.18500000E+00  1.000000
 
  9 D  3.32000000E-01  1.000000
 
  C (Carbon)
  ----------
            Exponent  Coefficients 
       -------------- ---------------------------------------------------------
  1 S  6.66500000E+03  0.000692
  1 S  1.00000000E+03  0.005329
  1 S  2.28000000E+02  0.027077
  1 S  6.47100000E+01  0.101718
  1 S  2.10600000E+01  0.274740
  1 S  7.49500000E+00  0.448564
  1 S  2.79700000E+00  0.285074
  1 S  5.21500000E-01  0.015204
 
  2 S  6.66500000E+03 -0.000146
  2 S  1.00000000E+03 -0.001154
  2 S  2.28000000E+02 -0.005725
  2 S  6.47100000E+01 -0.023312
  2 S  2.10600000E+01 -0.063955
  2 S  7.49500000E+00 -0.149981
  2 S  2.79700000E+00 -0.127262
  2 S  5.21500000E-01  0.544529
 
  3 S  1.59600000E-01  1.000000
 
  4 S  4.69000000E-02  1.000000
 
  5 P  9.43900000E+00  0.038109
  5 P  2.00200000E+00  0.209480
  5 P  5.45600000E-01  0.508557
 
  6 P  1.51700000E-01  1.000000
 
  7 P  4.04100000E-02  1.000000
 
  8 D  5.50000000E-01  1.000000
 
  9 D  1.51000000E-01  1.000000
 
  H (Hydrogen)
  ------------
            Exponent  Coefficients 
       -------------- ---------------------------------------------------------
  1 S  1.30100000E+01  0.019685
  1 S  1.96200000E+00  0.137977
  1 S  4.44600000E-01  0.478148
 
  2 S  1.22000000E-01  1.000000
 
  3 S  2.97400000E-02  1.000000
 
  4 P  7.27000000E-01  1.000000
 
  5 P  1.41000000E-01  1.000000
 


 Summary of "ao basis" -> "ao basis" (spherical)
 ------------------------------------------------------------------------------
       Tag                 Description            Shells   Functions and Types
 ---------------- ------------------------------  ------  ---------------------
 O                        aug-cc-pVDZ                9       23   4s3p2d
 C                        aug-cc-pVDZ                9       23   4s3p2d
 H                        aug-cc-pVDZ                5        9   3s2p


                                 NWChem SCF Module
                                 -----------------
 
 
                                   Me,H,Me Open
 
 

  ao basis        = "ao basis"
  functions       =   233
  atoms           =    15
  closed shells   =    27
  open shells     =     0
  charge          =   0.00
  wavefunction    = RHF 
  input vectors   = atomic
  output vectors  = ./2O.movecs
  use symmetry    = T
  symmetry adapt  = T


 Summary of "ao basis" -> "ao basis" (spherical)
 ------------------------------------------------------------------------------
       Tag                 Description            Shells   Functions and Types
 ---------------- ------------------------------  ------  ---------------------
 O                        aug-cc-pVDZ                9       23   4s3p2d
 C                        aug-cc-pVDZ                9       23   4s3p2d
 H                        aug-cc-pVDZ                5        9   3s2p


      Symmetry analysis of basis
      --------------------------
 
        a'        158
        a"         75
 

int_init: setting std/high accuracies to  1.0D-16  1.0D-32

 Forming initial guess at       0.3s


 Forcing the number of linearly dependent vectors to be  0
 
      Superposition of Atomic Density Guess
      -------------------------------------
 
 Sum of atomic energies:        -341.86341613
 
      Non-variational initial energy
      ------------------------------

 Total energy =    -346.059624
 1-e energy   =   -1050.284486
 2-e energy   =     407.919693
 HOMO         =      -0.297025
 LUMO         =      -0.047870
 
 
      Symmetry analysis of molecular orbitals - initial
      -------------------------------------------------
 
  Numbering of irreducible representations: 
 
     1 a'          2 a"      
 
  Orbital symmetries:
 
     1 a'          2 a'          3 a'          4 a'          5 a'      
     6 a'          7 a'          8 a'          9 a'         10 a'      
    11 a'         12 a'         13 a'         14 a'         15 a'      
    16 a'         17 a"         18 a'         19 a"         20 a'      
    21 a'         22 a"         23 a"         24 a'         25 a'      
    26 a'         27 a"         28 a"         29 a'         30 a'      
    31 a'         32 a"         33 a'         34 a"         35 a'      
    36 a'         37 a'      
 

 Starting SCF solution at       3.7s



 ----------------------------------------------
         Quadratically convergent ROHF

 Convergence threshold     :          1.000E-09
 Maximum no. of iterations :           99
 Final Fock-matrix accuracy:          1.000E-15
 ----------------------------------------------

 Warning: symmetry breaking in RHF:   1.580616607903633E-011

              iter       energy          gnorm     gmax       time
             ----- ------------------- --------- --------- --------
                 1     -343.5688384672  1.58D+00  2.77D-01      7.3
 Warning: symmetry breaking in RHF:   4.074281827437607E-010
 Warning: symmetry breaking in RHF:   2.657931466985780E-010
                 2     -343.7129050222  5.59D-01  6.22D-02     15.0
 Warning: symmetry breaking in RHF:   2.137314599749587E-010
                 3     -343.7421684960  5.26D-02  1.26D-02     25.2
 Warning: symmetry breaking in RHF:   2.135825307661472E-010
                 4     -343.7426658950  1.71D-03  2.70D-04     41.7
 Warning: symmetry breaking in RHF:   2.135732149281038E-010
                 5     -343.7426663671  1.64D-06  3.08D-07     68.8
 Warning: symmetry breaking in RHF:   2.135627342637656E-010
                 6     -343.7426663671  3.80D-10  5.18D-11    104.3


       Final RHF  results 
       ------------------ 

         Total SCF energy =   -343.742666367111
      One-electron energy =  -1055.879185632660
      Two-electron energy =    415.831350575462
 Nuclear repulsion energy =    296.305168690087

        Time for solution =    100.9s


 
       Symmetry analysis of molecular orbitals - final
       -----------------------------------------------
 
  Numbering of irreducible representations: 
 
     1 a'          2 a"      
 
  Orbital symmetries:
 
     1 a'          2 a'          3 a'          4 a'          5 a'      
     6 a'          7 a'          8 a'          9 a'         10 a'      
    11 a'         12 a'         13 a'         14 a'         15 a'      
    16 a'         17 a"         18 a'         19 a"         20 a'      
    21 a'         22 a"         23 a'         24 a'         25 a"      
    26 a'         27 a"         28 a'         29 a'         30 a'      
    31 a"         32 a'         33 a"         34 a'         35 a'      
    36 a'         37 a"      
 
             Final eigenvalues
             -----------------

              1      
    1  -20.6224
    2  -20.5186
    3  -11.3426
    4  -11.3167
    5  -11.2647
    6  -11.2263
    7  -11.2221
    8   -1.4407
    9   -1.3387
   10   -1.0855
   11   -1.0172
   12   -0.9686
   13   -0.8260
   14   -0.7495
   15   -0.7058
   16   -0.6491
   17   -0.6398
   18   -0.6248
   19   -0.5844
   20   -0.5795
   21   -0.5583
   22   -0.5581
   23   -0.5402
   24   -0.5209
   25   -0.4718
   26   -0.3910
   27   -0.3448
   28    0.0248
   29    0.0383
   30    0.0465
   31    0.0480
   32    0.0598
   33    0.0628
   34    0.0733
   35    0.0846
   36    0.1008
   37    0.1068
 
                       ROHF Final Molecular Orbital Analysis
                       -------------------------------------
 
 Vector    8  Occ=2.000000D+00  E=-1.440709D+00  Symmetry=a'
              MO Center= -9.8D-01, -1.4D+00, -5.8D-19, r^2= 6.4D-01
   Bfn.  Coefficient  Atom+Function         Bfn.  Coefficient  Atom+Function  
  ----- ------------  ---------------      ----- ------------  ---------------
     3      0.485011   1 O  s                 2      0.407851   1 O  s         
    27     -0.283795   2 C  s               116      0.174227   6 H  s         
     4      0.173337   1 O  s                25      0.157761   2 C  s         
    46     -0.153283   2 C  d  2      
 
 Vector    9  Occ=2.000000D+00  E=-1.338715D+00  Symmetry=a'
              MO Center= -8.9D-01,  1.3D+00, -5.6D-19, r^2= 6.7D-01
   Bfn.  Coefficient  Atom+Function         Bfn.  Coefficient  Atom+Function  
  ----- ------------  ---------------      ----- ------------  ---------------
    95      0.459409   5 O  s                94      0.389415   5 O  s         
    73     -0.230439   4 C  s                72      0.225802   4 C  s         
    71      0.221273   4 C  s                74     -0.161925   4 C  px        
 
 Vector   10  Occ=2.000000D+00  E=-1.085508D+00  Symmetry=a'
              MO Center=  4.0D-01, -8.8D-01,  2.3D-18, r^2= 2.4D+00
   Bfn.  Coefficient  Atom+Function         Bfn.  Coefficient  Atom+Function  
  ----- ------------  ---------------      ----- ------------  ---------------
    48      0.236953   3 C  s                25      0.235427   2 C  s         
    49      0.226316   3 C  s                50     -0.206952   3 C  s         
   126      0.201401   7 C  s         
 
 Vector   11  Occ=2.000000D+00  E=-1.017209D+00  Symmetry=a'
              MO Center=  5.4D-01,  2.8D-01, -6.7D-13, r^2= 5.3D+00
   Bfn.  Coefficient  Atom+Function         Bfn.  Coefficient  Atom+Function  
  ----- ------------  ---------------      ----- ------------  ---------------
    55      0.276022   3 C  py               32      0.249527   2 C  py        
    78      0.236380   4 C  py              158      0.226359   9 C  s         
   126     -0.220877   7 C  s                95     -0.160248   5 O  s         
    71      0.153955   4 C  s         
 
 Vector   12  Occ=2.000000D+00  E=-9.685794D-01  Symmetry=a'
              MO Center=  5.4D-01,  3.6D-01,  6.3D-13, r^2= 5.6D+00
   Bfn.  Coefficient  Atom+Function         Bfn.  Coefficient  Atom+Function  
  ----- ------------  ---------------      ----- ------------  ---------------
   158      0.253417   9 C  s               126      0.193574   7 C  s         
    48     -0.176620   3 C  s                29     -0.175707   2 C  py        
    75      0.154290   4 C  py        
 
 Vector   13  Occ=2.000000D+00  E=-8.260402D-01  Symmetry=a'
              MO Center= -1.2D-01, -3.8D-01,  2.7D-15, r^2= 4.5D+00
   Bfn.  Coefficient  Atom+Function         Bfn.  Coefficient  Atom+Function  
  ----- ------------  ---------------      ----- ------------  ---------------
    50      0.351514   3 C  s                27     -0.295635   2 C  s         
    26      0.291757   2 C  s                 5      0.250774   1 O  px        
    25      0.222664   2 C  s               116     -0.208600   6 H  s         
    49     -0.205970   3 C  s                52     -0.179504   3 C  py        
     6      0.178189   1 O  py        
 
 Vector   14  Occ=2.000000D+00  E=-7.495440D-01  Symmetry=a'
              MO Center= -4.5D-02, -2.4D-01, -2.3D-14, r^2= 4.0D+00
   Bfn.  Coefficient  Atom+Function         Bfn.  Coefficient  Atom+Function  
  ----- ------------  ---------------      ----- ------------  ---------------
    55      0.511757   3 C  py               72     -0.489986   4 C  s         
    32      0.473501   2 C  py               78      0.315511   4 C  py        
    26      0.281770   2 C  s                50     -0.259644   3 C  s         
    28      0.251236   2 C  px                5     -0.234915   1 O  px        
   133      0.230767   7 C  py              127      0.218480   7 C  s         
 
 Vector   15  Occ=2.000000D+00  E=-7.058261D-01  Symmetry=a'
              MO Center= -2.4D-01, -1.3D+00, -3.0D-13, r^2= 3.8D+00
   Bfn.  Coefficient  Atom+Function         Bfn.  Coefficient  Atom+Function  
  ----- ------------  ---------------      ----- ------------  ---------------
     6      0.321105   1 O  py                3      0.207392   1 O  s         
    29      0.205610   2 C  py                9      0.189801   1 O  py        
   129      0.182814   7 C  px              116     -0.176105   6 H  s         
   180      0.171085  10 H  s               130     -0.156802   7 C  py        
     5     -0.155820   1 O  px        
 
 Vector   16  Occ=2.000000D+00  E=-6.491288D-01  Symmetry=a'
              MO Center= -1.3D-01,  5.0D-01,  3.1D-12, r^2= 4.1D+00
   Bfn.  Coefficient  Atom+Function         Bfn.  Coefficient  Atom+Function  
  ----- ------------  ---------------      ----- ------------  ---------------
    50      0.383044   3 C  s                27     -0.346026   2 C  s         
    26      0.339133   2 C  s               149     -0.322771   8 H  s         
    55      0.296647   3 C  py               97      0.292816   5 O  px        
    32      0.280468   2 C  py               95     -0.224846   5 O  s         
    31      0.186709   2 C  px                5     -0.181116   1 O  px        
 
 Vector   17  Occ=2.000000D+00  E=-6.398362D-01  Symmetry=a"
              MO Center= -4.2D-02, -1.8D+00,  4.1D-13, r^2= 2.5D+00
   Bfn.  Coefficient  Atom+Function         Bfn.  Coefficient  Atom+Function  
  ----- ------------  ---------------      ----- ------------  ---------------
     7      0.339252   1 O  pz              131      0.291859   7 C  pz        
    10      0.248347   1 O  pz               30      0.212782   2 C  pz        
   189     -0.206877  11 H  s               198      0.206877  12 H  s         
 
 Vector   18  Occ=2.000000D+00  E=-6.248483D-01  Symmetry=a'
              MO Center=  3.8D-01,  5.0D-01, -2.6D-15, r^2= 4.2D+00
   Bfn.  Coefficient  Atom+Function         Bfn.  Coefficient  Atom+Function  
  ----- ------------  ---------------      ----- ------------  ---------------
   149     -0.294531   8 H  s                50      0.285657   3 C  s         
    73     -0.284871   4 C  s                51     -0.270407   3 C  px        
    75     -0.260860   4 C  py              148     -0.232493   8 H  s         
    49      0.227916   3 C  s                72      0.210300   4 C  s         
    98     -0.203307   5 O  py               32     -0.181252   2 C  py        
 
 Vector   19  Occ=2.000000D+00  E=-5.843796D-01  Symmetry=a"
              MO Center=  6.9D-01,  1.9D+00, -4.3D-15, r^2= 3.5D+00
   Bfn.  Coefficient  Atom+Function         Bfn.  Coefficient  Atom+Function  
  ----- ------------  ---------------      ----- ------------  ---------------
   163      0.361628   9 C  pz              216      0.264295  14 H  s         
   225     -0.264295  15 H  s                76      0.180085   4 C  pz        
    99      0.161155   5 O  pz        
 
 Vector   20  Occ=2.000000D+00  E=-5.795201D-01  Symmetry=a'
              MO Center=  6.5D-01, -7.9D-01, -3.5D-13, r^2= 6.5D+00
   Bfn.  Coefficient  Atom+Function         Bfn.  Coefficient  Atom+Function  
  ----- ------------  ---------------      ----- ------------  ---------------
    55      0.364923   3 C  py              130      0.292469   7 C  py        
   133      0.261346   7 C  py              128     -0.248732   7 C  s         
    78      0.242671   4 C  py              127      0.228134   7 C  s         
    32      0.225611   2 C  py              180      0.209837  10 H  s         
   160      0.199046   9 C  s               181      0.197613  10 H  s         
 
 Vector   21  Occ=2.000000D+00  E=-5.582667D-01  Symmetry=a'
              MO Center=  6.2D-02,  4.6D-01, -7.7D-14, r^2= 4.9D+00
   Bfn.  Coefficient  Atom+Function         Bfn.  Coefficient  Atom+Function  
  ----- ------------  ---------------      ----- ------------  ---------------
    55      0.302746   3 C  py               32      0.289396   2 C  py        
    97      0.284528   5 O  px               50     -0.271305   3 C  s         
   149      0.269911   8 H  s                49     -0.265040   3 C  s         
    74     -0.262395   4 C  px              162      0.213759   9 C  py        
    27      0.212051   2 C  s                 5      0.189536   1 O  px        
 
 Vector   22  Occ=2.000000D+00  E=-5.580902D-01  Symmetry=a"
              MO Center= -2.3D-01, -1.7D+00, -4.7D-14, r^2= 3.4D+00
   Bfn.  Coefficient  Atom+Function         Bfn.  Coefficient  Atom+Function  
  ----- ------------  ---------------      ----- ------------  ---------------
     7      0.441141   1 O  pz               10      0.339682   1 O  pz        
   131     -0.286610   7 C  pz              189      0.221642  11 H  s         
   198     -0.221642  12 H  s         
 
 Vector   23  Occ=2.000000D+00  E=-5.401761D-01  Symmetry=a'
              MO Center= -6.3D-02, -4.6D-01, -1.7D-13, r^2= 5.4D+00
   Bfn.  Coefficient  Atom+Function         Bfn.  Coefficient  Atom+Function  
  ----- ------------  ---------------      ----- ------------  ---------------
   129     -0.249860   7 C  px                6      0.247978   1 O  py        
    97      0.214569   5 O  px              180     -0.212097  10 H  s         
     5     -0.203884   1 O  px               26     -0.193596   2 C  s         
    29     -0.168483   2 C  py               72      0.168894   4 C  s         
     9      0.166085   1 O  py               74     -0.162224   4 C  px        
 
 Vector   24  Occ=2.000000D+00  E=-5.209183D-01  Symmetry=a'
              MO Center=  2.6D-01,  1.3D+00, -5.6D-15, r^2= 5.5D+00
   Bfn.  Coefficient  Atom+Function         Bfn.  Coefficient  Atom+Function  
  ----- ------------  ---------------      ----- ------------  ---------------
   207     -0.301708  13 H  s                49      0.286806   3 C  s         
   161      0.250290   9 C  px              133     -0.230843   7 C  py        
   208     -0.228268  13 H  s                29      0.219431   2 C  py        
   162     -0.205044   9 C  py               54     -0.202951   3 C  px        
    52     -0.185953   3 C  py               78      0.180069   4 C  py        
 
 Vector   25  Occ=2.000000D+00  E=-4.717762D-01  Symmetry=a"
              MO Center= -4.0D-01,  1.4D+00, -1.2D-12, r^2= 2.6D+00
   Bfn.  Coefficient  Atom+Function         Bfn.  Coefficient  Atom+Function  
  ----- ------------  ---------------      ----- ------------  ---------------
    99      0.412252   5 O  pz              102      0.308793   5 O  pz        
    76      0.262179   4 C  pz              163     -0.192785   9 C  pz        
   216     -0.165705  14 H  s               225      0.165705  15 H  s         
   217     -0.161506  14 H  s               226      0.161506  15 H  s         
 
 Vector   26  Occ=2.000000D+00  E=-3.909723D-01  Symmetry=a'
              MO Center= -6.7D-01,  1.3D+00, -1.5D-12, r^2= 2.2D+00
   Bfn.  Coefficient  Atom+Function         Bfn.  Coefficient  Atom+Function  
  ----- ------------  ---------------      ----- ------------  ---------------
    98      0.542119   5 O  py              101      0.424105   5 O  py        
    50     -0.336563   3 C  s               160      0.304171   9 C  s         
    81     -0.258270   4 C  py               27      0.227690   2 C  s         
    75     -0.182260   4 C  py              159     -0.168950   9 C  s         
   162      0.168626   9 C  py               52      0.166532   3 C  py        
 
 Vector   27  Occ=2.000000D+00  E=-3.447680D-01  Symmetry=a"
              MO Center=  1.2D-01, -2.0D-01, -8.6D-13, r^2= 2.7D+00
   Bfn.  Coefficient  Atom+Function         Bfn.  Coefficient  Atom+Function  
  ----- ------------  ---------------      ----- ------------  ---------------
    53      0.397500   3 C  pz               56      0.308372   3 C  pz        
    30      0.264899   2 C  pz               99     -0.249066   5 O  pz        
     7     -0.213366   1 O  pz               33      0.196737   2 C  pz        
   102     -0.194036   5 O  pz               10     -0.170444   1 O  pz        
 
 Vector   28  Occ=0.000000D+00  E= 2.482493D-02  Symmetry=a'
              MO Center=  6.3D-01, -3.7D+00, -1.1D-14, r^2= 1.7D+01
   Bfn.  Coefficient  Atom+Function         Bfn.  Coefficient  Atom+Function  
  ----- ------------  ---------------      ----- ------------  ---------------
    35      6.882077   2 C  py              160     -6.223651   9 C  s         
    50     -6.141332   3 C  s                27      4.225830   2 C  s         
    81      4.142736   4 C  py              128      3.509691   7 C  s         
    58      3.322985   3 C  py              182      2.112352  10 H  s         
   191      1.484362  11 H  s               200      1.484362  12 H  s         
 
 Vector   29  Occ=0.000000D+00  E= 3.828433D-02  Symmetry=a'
              MO Center=  2.1D+00,  3.7D-01,  1.2D-15, r^2= 2.5D+01
   Bfn.  Coefficient  Atom+Function         Bfn.  Coefficient  Atom+Function  
  ----- ------------  ---------------      ----- ------------  ---------------
    50      8.956490   3 C  s                35     -8.122674   2 C  py        
   128     -7.643269   7 C  s                27     -5.061727   2 C  s         
    73     -4.027216   4 C  s               160      4.037283   9 C  s         
    81     -3.638943   4 C  py               57     -3.088194   3 C  px        
   150      2.997748   8 H  s                58     -2.617613   3 C  py        
 
 Vector   30  Occ=0.000000D+00  E= 4.652763D-02  Symmetry=a'
              MO Center=  9.2D-01, -1.9D-01,  2.0D-15, r^2= 3.3D+01
   Bfn.  Coefficient  Atom+Function         Bfn.  Coefficient  Atom+Function  
  ----- ------------  ---------------      ----- ------------  ---------------
   128      7.863158   7 C  s                81      7.471455   4 C  py        
    35      6.920310   2 C  py              160     -5.960662   9 C  s         
   182      4.295107  10 H  s                73     -3.934869   4 C  s         
    58      3.761447   3 C  py               50      2.773003   3 C  s         
   135     -2.405258   7 C  px               34     -2.390840   2 C  px        
 
 Vector   31  Occ=0.000000D+00  E= 4.800190D-02  Symmetry=a"
              MO Center=  5.0D-01, -2.9D+00,  3.5D-15, r^2= 2.1D+01
   Bfn.  Coefficient  Atom+Function         Bfn.  Coefficient  Atom+Function  
  ----- ------------  ---------------      ----- ------------  ---------------
   191      3.983690  11 H  s               200     -3.983690  12 H  s         
   137      1.725143   7 C  pz              218     -1.340090  14 H  s         
   227      1.340090  15 H  s               169      0.664403   9 C  pz        
   190      0.580195  11 H  s               199     -0.580195  12 H  s         
   134      0.395092   7 C  pz               59     -0.366196   3 C  pz        
 
 Vector   32  Occ=0.000000D+00  E= 5.978198D-02  Symmetry=a'
              MO Center=  6.9D-01,  2.6D-01,  7.1D-13, r^2= 3.5D+01
   Bfn.  Coefficient  Atom+Function         Bfn.  Coefficient  Atom+Function  
  ----- ------------  ---------------      ----- ------------  ---------------
    50     12.173033   3 C  s                73     -8.006349   4 C  s         
    27     -7.266943   2 C  s               150      7.062581   8 H  s         
    57     -5.679322   3 C  px               81      4.478017   4 C  py        
   128      3.127862   7 C  s               209     -3.069747  13 H  s         
    35     -2.257735   2 C  py               58      2.264937   3 C  py        
 
 Vector   33  Occ=0.000000D+00  E= 6.282243D-02  Symmetry=a"
              MO Center=  1.9D+00,  1.9D+00, -6.8D-14, r^2= 2.5D+01
   Bfn.  Coefficient  Atom+Function         Bfn.  Coefficient  Atom+Function  
  ----- ------------  ---------------      ----- ------------  ---------------
   218      4.782028  14 H  s               227     -4.782028  15 H  s         
   169     -2.422738   9 C  pz              191      2.267342  11 H  s         
   200     -2.267342  12 H  s               137      1.216912   7 C  pz        
    82      0.949522   4 C  pz               59     -0.876337   3 C  pz        
   217      0.668787  14 H  s               226     -0.668787  15 H  s         
 
 Vector   34  Occ=0.000000D+00  E= 7.330322D-02  Symmetry=a'
              MO Center=  5.8D-01,  2.0D-01, -1.6D-14, r^2= 3.5D+01
   Bfn.  Coefficient  Atom+Function         Bfn.  Coefficient  Atom+Function  
  ----- ------------  ---------------      ----- ------------  ---------------
    50      8.390723   3 C  s               182     -5.818467  10 H  s         
    27     -4.922842   2 C  s               209     -4.709104  13 H  s         
   160     -3.474471   9 C  s               191      3.236850  11 H  s         
   200      3.236850  12 H  s                34     -3.015183   2 C  px        
   118     -2.771447   6 H  s                81      2.433090   4 C  py        
 
 Vector   35  Occ=0.000000D+00  E= 8.459116D-02  Symmetry=a'
              MO Center=  4.8D-01,  4.6D-01, -1.9D-14, r^2= 2.9D+01
   Bfn.  Coefficient  Atom+Function         Bfn.  Coefficient  Atom+Function  
  ----- ------------  ---------------      ----- ------------  ---------------
    27     24.024010   2 C  s                50    -17.436009   3 C  s         
    73     15.992168   4 C  s               160     -9.942263   9 C  s         
    57      6.641760   3 C  px              150     -6.264898   8 H  s         
   128     -5.949206   7 C  s               182      4.366880  10 H  s         
   209     -3.699973  13 H  s               168      3.559073   9 C  py        
 
 Vector   36  Occ=0.000000D+00  E= 1.007762D-01  Symmetry=a'
              MO Center=  1.4D+00,  6.5D-01,  6.4D-15, r^2= 2.6D+01
   Bfn.  Coefficient  Atom+Function         Bfn.  Coefficient  Atom+Function  
  ----- ------------  ---------------      ----- ------------  ---------------
    73     22.252132   4 C  s               160    -10.653551   9 C  s         
   128    -10.077235   7 C  s               150      8.706355   8 H  s         
   182     -6.441922  10 H  s                58     -6.339649   3 C  py        
    27      5.729164   2 C  s                35     -5.688840   2 C  py        
    81      4.794338   4 C  py              167      4.246565   9 C  px        
 
 Vector   37  Occ=0.000000D+00  E= 1.067946D-01  Symmetry=a"
              MO Center=  1.0D-01, -2.4D-01,  1.8D-13, r^2= 6.8D+00
   Bfn.  Coefficient  Atom+Function         Bfn.  Coefficient  Atom+Function  
  ----- ------------  ---------------      ----- ------------  ---------------
    36      2.148190   2 C  pz              137     -1.627358   7 C  pz        
   191     -1.395599  11 H  s               200      1.395599  12 H  s         
    59     -1.087414   3 C  pz              169      0.675941   9 C  pz        
    82     -0.535920   4 C  pz               13     -0.508955   1 O  pz        
    33      0.375709   2 C  pz               30      0.354457   2 C  pz        
 
 Vector   38  Occ=0.000000D+00  E= 1.144307D-01  Symmetry=a'
              MO Center=  8.3D-01,  4.0D-02,  2.2D-14, r^2= 2.8D+01
   Bfn.  Coefficient  Atom+Function         Bfn.  Coefficient  Atom+Function  
  ----- ------------  ---------------      ----- ------------  ---------------
    73     20.595336   4 C  s               160    -19.569813   9 C  s         
   128     19.262468   7 C  s                27    -14.057176   2 C  s         
    35      8.923326   2 C  py               81      8.016449   4 C  py        
   136      6.999246   7 C  py               34     -6.720014   2 C  px        
    80      6.543076   4 C  px              168      5.588207   9 C  py        
 
 Vector   39  Occ=0.000000D+00  E= 1.236363D-01  Symmetry=a"
              MO Center=  6.7D-01, -5.8D-01, -3.8D-13, r^2= 1.6D+01
   Bfn.  Coefficient  Atom+Function         Bfn.  Coefficient  Atom+Function  
  ----- ------------  ---------------      ----- ------------  ---------------
    36      3.979652   2 C  pz               59     -3.425418   3 C  pz        
   137     -2.598179   7 C  pz               82      1.985942   4 C  pz        
   191     -1.078082  11 H  s               200      1.078082  12 H  s         
   190     -0.771610  11 H  s               199      0.771610  12 H  s         
    13     -0.632931   1 O  pz              105     -0.590661   5 O  pz        
 
 Vector   40  Occ=0.000000D+00  E= 1.276641D-01  Symmetry=a'
              MO Center= -1.5D-01, -2.3D+00, -4.4D-14, r^2= 2.5D+01
   Bfn.  Coefficient  Atom+Function         Bfn.  Coefficient  Atom+Function  
  ----- ------------  ---------------      ----- ------------  ---------------
    35     29.342870   2 C  py              160    -28.537449   9 C  s         
   128     27.833666   7 C  s                50    -21.682722   3 C  s         
    81     20.599636   4 C  py               27     11.705482   2 C  s         
    58     11.415935   3 C  py              136      6.874158   7 C  py        
   168      6.753790   9 C  py               80      5.008371   4 C  px        
 
 Vector   41  Occ=0.000000D+00  E= 1.391086D-01  Symmetry=a'
              MO Center= -2.6D-01,  9.4D-01,  4.0D-14, r^2= 2.3D+01
   Bfn.  Coefficient  Atom+Function         Bfn.  Coefficient  Atom+Function  
  ----- ------------  ---------------      ----- ------------  ---------------
    50     35.470539   3 C  s                27    -15.185433   2 C  s         
    81     10.530746   4 C  py               73    -10.095366   4 C  s         
    34     -8.139832   2 C  px              160     -5.918401   9 C  s         
    35     -5.664937   2 C  py               57     -4.797942   3 C  px        
   167      4.456179   9 C  px               80     -4.297750   4 C  px        
 
 Vector   42  Occ=0.000000D+00  E= 1.481333D-01  Symmetry=a'
              MO Center=  1.1D+00, -1.9D+00, -1.0D-13, r^2= 2.3D+01
   Bfn.  Coefficient  Atom+Function         Bfn.  Coefficient  Atom+Function  
  ----- ------------  ---------------      ----- ------------  ---------------
    50    -23.612793   3 C  s                27     23.019776   2 C  s         
   128    -18.084277   7 C  s                81    -16.021808   4 C  py        
    73     13.132019   4 C  s               160     12.229375   9 C  s         
    35    -10.955166   2 C  py              182     -8.653184  10 H  s         
   135      8.030957   7 C  px               57      4.929249   3 C  px        
 
 Vector   43  Occ=0.000000D+00  E= 1.514190D-01  Symmetry=a"
              MO Center=  5.6D-01, -4.2D-01,  9.8D-14, r^2= 1.7D+01
   Bfn.  Coefficient  Atom+Function         Bfn.  Coefficient  Atom+Function  
  ----- ------------  ---------------      ----- ------------  ---------------
   191      3.381871  11 H  s               200     -3.381871  12 H  s         
   137      2.402753   7 C  pz               82      2.338577   4 C  pz        
   190      1.857512  11 H  s               199     -1.857512  12 H  s         
   169     -0.971077   9 C  pz              134      0.861886   7 C  pz        
    59     -0.744811   3 C  pz               36      0.733189   2 C  pz        
 
 Vector   44  Occ=0.000000D+00  E= 1.579627D-01  Symmetry=a'
              MO Center=  1.5D+00,  5.9D-01, -5.1D-15, r^2= 1.9D+01
   Bfn.  Coefficient  Atom+Function         Bfn.  Coefficient  Atom+Function  
  ----- ------------  ---------------      ----- ------------  ---------------
    50     24.742530   3 C  s               128    -22.040860   7 C  s         
    35    -21.003046   2 C  py               73    -15.495026   4 C  s         
    27    -12.121567   2 C  s                57    -11.252300   3 C  px        
   160      9.896257   9 C  s               150      9.392341   8 H  s         
    81     -6.312403   4 C  py              135      5.440560   7 C  px        
 
 Vector   45  Occ=0.000000D+00  E= 1.676285D-01  Symmetry=a"
              MO Center=  4.6D-01,  8.7D-01,  1.0D-13, r^2= 2.1D+01
   Bfn.  Coefficient  Atom+Function         Bfn.  Coefficient  Atom+Function  
  ----- ------------  ---------------      ----- ------------  ---------------
   137      3.802423   7 C  pz              218     -2.617302  14 H  s         
   227      2.617302  15 H  s               191      2.553367  11 H  s         
   200     -2.553367  12 H  s               169      2.430561   9 C  pz        
   217     -1.943430  14 H  s               226      1.943430  15 H  s         
    36     -1.865812   2 C  pz               82      1.617971   4 C  pz        
 
 Vector   46  Occ=0.000000D+00  E= 1.730009D-01  Symmetry=a'
              MO Center=  1.4D+00,  6.1D-01,  1.9D-13, r^2= 2.3D+01
   Bfn.  Coefficient  Atom+Function         Bfn.  Coefficient  Atom+Function  
  ----- ------------  ---------------      ----- ------------  ---------------
   150     10.382670   8 H  s               128      9.811626   7 C  s         
    57     -7.966980   3 C  px               81      6.782798   4 C  py        
   160     -6.171118   9 C  s                35      5.280315   2 C  py        
   168      4.669377   9 C  py               80      3.836673   4 C  px        
    32     -3.551767   2 C  py              149      3.245200   8 H  s         
 
 Vector   47  Occ=0.000000D+00  E= 1.811686D-01  Symmetry=a'
              MO Center= -4.1D-02, -3.1D-01, -3.3D-14, r^2= 2.1D+01
   Bfn.  Coefficient  Atom+Function         Bfn.  Coefficient  Atom+Function  
  ----- ------------  ---------------      ----- ------------  ---------------
    27     12.429973   2 C  s                50     11.634315   3 C  s         
    73    -11.424844   4 C  s               128     -7.766355   7 C  s         
    35     -7.306755   2 C  py                4     -5.837778   1 O  s         
    58      5.666439   3 C  py               81      5.589524   4 C  py        
    34     -5.122995   2 C  px              135      4.820642   7 C  px        
 
 Vector   48  Occ=0.000000D+00  E= 1.831337D-01  Symmetry=a'
              MO Center= -2.6D-01,  2.3D-01,  2.1D-13, r^2= 2.4D+01
   Bfn.  Coefficient  Atom+Function         Bfn.  Coefficient  Atom+Function  
  ----- ------------  ---------------      ----- ------------  ---------------
    50     29.322860   3 C  s                73    -13.569213   4 C  s         
    35    -11.362268   2 C  py               58      8.559627   3 C  py        
    81      8.306748   4 C  py               57     -7.297261   3 C  px        
    27     -6.075125   2 C  s               150      4.766989   8 H  s         
   160     -4.647560   9 C  s               209     -4.289014  13 H  s         
 
 Vector   49  Occ=0.000000D+00  E= 1.886140D-01  Symmetry=a"
              MO Center=  7.9D-01,  1.4D+00, -7.6D-14, r^2= 2.0D+01
   Bfn.  Coefficient  Atom+Function         Bfn.  Coefficient  Atom+Function  
  ----- ------------  ---------------      ----- ------------  ---------------
   169     -6.617956   9 C  pz               82      6.087577   4 C  pz        
   218      5.350272  14 H  s               227     -5.350272  15 H  s         
    36     -2.811376   2 C  pz              137      2.736276   7 C  pz        
    59     -2.228871   3 C  pz              217      1.729341  14 H  s         
   226     -1.729341  15 H  s               191      1.132466  11 H  s         
 
 Vector   50  Occ=0.000000D+00  E= 1.904060D-01  Symmetry=a"
              MO Center=  6.5D-01, -6.1D-01, -7.2D-14, r^2= 2.0D+01
   Bfn.  Coefficient  Atom+Function         Bfn.  Coefficient  Atom+Function  
  ----- ------------  ---------------      ----- ------------  ---------------
   191      4.057747  11 H  s               200     -4.057747  12 H  s         
    36      3.018875   2 C  pz               59     -2.964508   3 C  pz        
   218      2.683820  14 H  s               227     -2.683820  15 H  s         
   137      2.649625   7 C  pz              190      2.161907  11 H  s         
   199     -2.161907  12 H  s               217      1.491941  14 H  s         
 
 Vector   51  Occ=0.000000D+00  E= 1.930158D-01  Symmetry=a'
              MO Center=  9.0D-01,  1.2D+00, -1.1D-13, r^2= 2.3D+01
   Bfn.  Coefficient  Atom+Function         Bfn.  Coefficient  Atom+Function  
  ----- ------------  ---------------      ----- ------------  ---------------
    34      6.697312   2 C  px              209      6.490903  13 H  s         
    73     -6.394173   4 C  s                57     -5.457358   3 C  px        
   168     -4.718768   9 C  py              160      4.614450   9 C  s         
   167      4.587690   9 C  px              182      4.535356  10 H  s         
   135     -3.137904   7 C  px               50     -2.949812   3 C  s         
 
 Vector   52  Occ=0.000000D+00  E= 2.277851D-01  Symmetry=a'
              MO Center=  6.8D-01,  5.1D-01,  1.6D-13, r^2= 2.2D+01
   Bfn.  Coefficient  Atom+Function         Bfn.  Coefficient  Atom+Function  
  ----- ------------  ---------------      ----- ------------  ---------------
    27     52.257119   2 C  s                58     31.234376   3 C  py        
    81    -30.275854   4 C  py              128    -29.340696   7 C  s         
   160     28.603753   9 C  s                73    -27.011657   4 C  s         
    35    -22.432694   2 C  py               50    -19.023615   3 C  s         
    34     16.107481   2 C  px               80    -13.422351   4 C  px        
 
 Vector   53  Occ=0.000000D+00  E= 2.324980D-01  Symmetry=a'
              MO Center= -5.6D-01, -1.6D+00,  8.1D-14, r^2= 1.7D+01
   Bfn.  Coefficient  Atom+Function         Bfn.  Coefficient  Atom+Function  
  ----- ------------  ---------------      ----- ------------  ---------------
    27     42.688889   2 C  s               128    -34.513994   7 C  s         
    34     17.053084   2 C  px               35    -16.012318   2 C  py        
    58     14.766189   3 C  py               50     -7.363986   3 C  s         
    81     -6.951809   4 C  py              135      6.296625   7 C  px        
    80     -6.229626   4 C  px              182     -5.714269  10 H  s         
 
 Vector   54  Occ=0.000000D+00  E= 2.381902D-01  Symmetry=a"
              MO Center=  1.2D-01,  3.1D-01,  9.0D-15, r^2= 9.6D+00
   Bfn.  Coefficient  Atom+Function         Bfn.  Coefficient  Atom+Function  
  ----- ------------  ---------------      ----- ------------  ---------------
    36      1.650287   2 C  pz               82     -1.546813   4 C  pz        
   169      1.481325   9 C  pz              137     -0.965074   7 C  pz        
    13     -0.943163   1 O  pz              218     -0.702471  14 H  s         
   227      0.702471  15 H  s               191     -0.695401  11 H  s         
   200      0.695401  12 H  s               217     -0.658273  14 H  s         
 
 Vector   55  Occ=0.000000D+00  E= 2.395240D-01  Symmetry=a'
              MO Center=  3.4D-01, -1.2D-01, -2.8D-14, r^2= 1.9D+01
   Bfn.  Coefficient  Atom+Function         Bfn.  Coefficient  Atom+Function  
  ----- ------------  ---------------      ----- ------------  ---------------
    73     40.720143   4 C  s               160    -34.570505   9 C  s         
    27     28.781017   2 C  s                81     18.714478   4 C  py        
    50    -16.719647   3 C  s                80      8.341116   4 C  px        
    58     -8.230196   3 C  py               35      7.569970   2 C  py        
     4     -6.789254   1 O  s                57      6.772277   3 C  px        
 
 Vector   56  Occ=0.000000D+00  E= 2.583594D-01  Symmetry=a'
              MO Center=  9.5D-02,  5.3D-01,  5.8D-14, r^2= 1.8D+01
   Bfn.  Coefficient  Atom+Function         Bfn.  Coefficient  Atom+Function  
  ----- ------------  ---------------      ----- ------------  ---------------
    73     36.611011   4 C  s                35    -17.903103   2 C  py        
    50    -17.013435   3 C  s               128    -17.010285   7 C  s         
    27     16.829600   2 C  s               160    -11.838126   9 C  s         
    81     -8.992770   4 C  py               58      7.327938   3 C  py        
    96     -6.563024   5 O  s               135      5.115800   7 C  px        
 
 Vector   57  Occ=0.000000D+00  E= 2.697675D-01  Symmetry=a'
              MO Center= -6.6D-01,  4.6D-01,  4.9D-14, r^2= 1.5D+01
   Bfn.  Coefficient  Atom+Function         Bfn.  Coefficient  Atom+Function  
  ----- ------------  ---------------      ----- ------------  ---------------
    73     26.553773   4 C  s               128    -20.568000   7 C  s         
    50    -14.502740   3 C  s                35    -13.218361   2 C  py        
    81     -9.136359   4 C  py               58     -9.063800   3 C  py        
    27      7.465657   2 C  s               160      6.668874   9 C  s         
    96     -4.367466   5 O  s               136     -3.498473   7 C  py        
 
 Vector   58  Occ=0.000000D+00  E= 2.762308D-01  Symmetry=a'
              MO Center=  5.7D-01, -2.7D-01, -4.9D-14, r^2= 2.4D+01
   Bfn.  Coefficient  Atom+Function         Bfn.  Coefficient  Atom+Function  
  ----- ------------  ---------------      ----- ------------  ---------------
   128     61.890359   7 C  s               160    -54.692850   9 C  s         
    35     37.515404   2 C  py               81     30.666485   4 C  py        
    27    -19.439478   2 C  s                73     19.311362   4 C  s         
   136     13.027156   7 C  py               34    -11.061995   2 C  px        
   168     10.871800   9 C  py               80     10.717189   4 C  px        
 
 Vector   59  Occ=0.000000D+00  E= 2.780970D-01  Symmetry=a"
              MO Center=  2.6D-01, -1.7D+00, -8.9D-15, r^2= 9.4D+00
   Bfn.  Coefficient  Atom+Function         Bfn.  Coefficient  Atom+Function  
  ----- ------------  ---------------      ----- ------------  ---------------
    36      1.746790   2 C  pz               59     -1.204981   3 C  pz        
   137     -1.074884   7 C  pz              191     -1.025227  11 H  s         
   200      1.025227  12 H  s               188      0.914168  10 H  pz        
    82     -0.894993   4 C  pz              146      0.848179   7 C  d  1      
   105      0.752523   5 O  pz              195     -0.675727  11 H  px        
 
 Vector   60  Occ=0.000000D+00  E= 2.945955D-01  Symmetry=a'
              MO Center=  1.0D-01, -5.5D-02,  3.0D-13, r^2= 1.6D+01
   Bfn.  Coefficient  Atom+Function         Bfn.  Coefficient  Atom+Function  
  ----- ------------  ---------------      ----- ------------  ---------------
    50     62.017896   3 C  s                27    -52.489268   2 C  s         
    35    -23.241582   2 C  py               58    -19.341957   3 C  py        
   128    -15.697404   7 C  s               160     11.556522   9 C  s         
    57    -10.165377   3 C  px               34     -7.374041   2 C  px        
    55      5.791979   3 C  py               73     -5.578752   4 C  s         
 
 Vector   61  Occ=0.000000D+00  E= 3.057691D-01  Symmetry=a"
              MO Center= -9.1D-01, -1.2D+00, -1.4D-13, r^2= 9.9D+00
   Bfn.  Coefficient  Atom+Function         Bfn.  Coefficient  Atom+Function  
  ----- ------------  ---------------      ----- ------------  ---------------
    36      4.929567   2 C  pz               13     -2.879723   1 O  pz        
    59     -2.460944   3 C  pz              137     -1.784980   7 C  pz        
   217      0.729366  14 H  s               226     -0.729366  15 H  s         
    45      0.709994   2 C  d  1            190     -0.555867  11 H  s         
   199      0.555867  12 H  s               218      0.488368  14 H  s         
 
 Vector   62  Occ=0.000000D+00  E= 3.171235D-01  Symmetry=a'
              MO Center= -4.6D-01, -3.7D-01, -2.3D-14, r^2= 1.5D+01
   Bfn.  Coefficient  Atom+Function         Bfn.  Coefficient  Atom+Function  
  ----- ------------  ---------------      ----- ------------  ---------------
    50     39.374192   3 C  s                27    -29.355601   2 C  s         
   160     26.268321   9 C  s                73    -20.660324   4 C  s         
    35    -18.512084   2 C  py              128    -15.338862   7 C  s         
    81    -11.392347   4 C  py               80    -10.913710   4 C  px        
    58     -7.814323   3 C  py              168     -5.333458   9 C  py        
 
 Vector   63  Occ=0.000000D+00  E= 3.202731D-01  Symmetry=a"
              MO Center=  8.7D-01,  1.4D+00, -6.1D-14, r^2= 1.0D+01
   Bfn.  Coefficient  Atom+Function         Bfn.  Coefficient  Atom+Function  
  ----- ------------  ---------------      ----- ------------  ---------------
    82      2.433317   4 C  pz               59     -2.093334   3 C  pz        
   105     -1.214106   5 O  pz              137      1.150658   7 C  pz        
   191      0.855486  11 H  s               200     -0.855486  12 H  s         
   217      0.809199  14 H  s               226     -0.809199  15 H  s         
   215     -0.750068  13 H  pz               56     -0.672176   3 C  pz        
 
 Vector   64  Occ=0.000000D+00  E= 3.325271D-01  Symmetry=a'
              MO Center=  6.2D-01,  9.7D-01,  1.2D-14, r^2= 1.4D+01
   Bfn.  Coefficient  Atom+Function         Bfn.  Coefficient  Atom+Function  
  ----- ------------  ---------------      ----- ------------  ---------------
    50     48.909741   3 C  s                73    -33.217550   4 C  s         
   128     22.966932   7 C  s               160    -21.982043   9 C  s         
    81     20.501878   4 C  py               27    -16.200579   2 C  s         
    58     15.951958   3 C  py               34     -9.861131   2 C  px        
    35      7.227791   2 C  py              136      6.700473   7 C  py        
 
 Vector   65  Occ=0.000000D+00  E= 3.564929D-01  Symmetry=a'
              MO Center=  3.9D-01, -6.3D-01,  1.0D-12, r^2= 1.3D+01
   Bfn.  Coefficient  Atom+Function         Bfn.  Coefficient  Atom+Function  
  ----- ------------  ---------------      ----- ------------  ---------------
    27     23.959352   2 C  s                50    -16.430891   3 C  s         
   128     -8.786416   7 C  s                57      7.724816   3 C  px        
    58      6.706765   3 C  py               34      6.039705   2 C  px        
   150     -5.748093   8 H  s                73      4.881843   4 C  s         
    80     -4.559746   4 C  px               49     -4.373768   3 C  s         
 
 Vector   66  Occ=0.000000D+00  E= 3.572729D-01  Symmetry=a'
              MO Center=  2.2D-01, -5.7D-01, -3.6D-14, r^2= 1.4D+01
   Bfn.  Coefficient  Atom+Function         Bfn.  Coefficient  Atom+Function  
  ----- ------------  ---------------      ----- ------------  ---------------
   128     30.289398   7 C  s                35     25.700030   2 C  py        
    50    -20.174779   3 C  s                73     15.819123   4 C  s         
   160    -14.581937   9 C  s                27    -13.202397   2 C  s         
    81     10.472355   4 C  py                4      8.107352   1 O  s         
    57      7.372216   3 C  px               34     -6.357028   2 C  px        
 
 Vector   67  Occ=0.000000D+00  E= 3.598555D-01  Symmetry=a"
              MO Center= -7.3D-01,  7.4D-01, -2.2D-14, r^2= 1.1D+01
   Bfn.  Coefficient  Atom+Function         Bfn.  Coefficient  Atom+Function  
  ----- ------------  ---------------      ----- ------------  ---------------
    82      4.225571   4 C  pz              105     -2.678008   5 O  pz        
    59     -1.862818   3 C  pz              217     -1.365932  14 H  s         
   226      1.365932  15 H  s               169     -1.195136   9 C  pz        
   166      0.729192   9 C  pz               36     -0.725332   2 C  pz        
    91      0.710438   4 C  d  1            137      0.596804   7 C  pz        
 
 Vector   68  Occ=0.000000D+00  E= 3.651080D-01  Symmetry=a'
              MO Center=  1.0D+00, -3.9D-01,  5.4D-14, r^2= 1.2D+01
   Bfn.  Coefficient  Atom+Function         Bfn.  Coefficient  Atom+Function  
  ----- ------------  ---------------      ----- ------------  ---------------
    50     26.317777   3 C  s                73    -24.870082   4 C  s         
    57    -11.896801   3 C  px               35     -9.837606   2 C  py        
    58      8.281855   3 C  py              150      6.557421   8 H  s         
   128     -6.415390   7 C  s                34      5.753885   2 C  px        
    27     -3.051874   2 C  s               160      2.979153   9 C  s         
 
 Vector   69  Occ=0.000000D+00  E= 3.732297D-01  Symmetry=a"
              MO Center=  1.6D-01, -2.2D-01,  3.1D-14, r^2= 1.2D+01
   Bfn.  Coefficient  Atom+Function         Bfn.  Coefficient  Atom+Function  
  ----- ------------  ---------------      ----- ------------  ---------------
    59     -2.191306   3 C  pz               36      2.035930   2 C  pz        
    13     -1.541123   1 O  pz              190      1.517712  11 H  s         
   199     -1.517712  12 H  s               105      1.138490   5 O  pz        
   156      0.967692   8 H  pz              176      0.777461   9 C  d -1      
   195      0.712169  11 H  px              204     -0.712169  12 H  px        
 
 Vector   70  Occ=0.000000D+00  E= 3.837972D-01  Symmetry=a'
              MO Center=  1.5D-01,  8.7D-01, -6.2D-14, r^2= 1.3D+01
   Bfn.  Coefficient  Atom+Function         Bfn.  Coefficient  Atom+Function  
  ----- ------------  ---------------      ----- ------------  ---------------
    50     37.409721   3 C  s                27    -26.991840   2 C  s         
    73    -20.845446   4 C  s               128      8.247111   7 C  s         
    81      7.188571   4 C  py               80     -5.588804   4 C  px        
    57     -5.377649   3 C  px               34     -4.345199   2 C  px        
   150      3.802474   8 H  s                32     -3.233921   2 C  py        
 
 Vector   71  Occ=0.000000D+00  E= 4.028713D-01  Symmetry=a'
              MO Center= -2.9D-01, -6.7D-01, -2.9D-14, r^2= 1.4D+01
   Bfn.  Coefficient  Atom+Function         Bfn.  Coefficient  Atom+Function  
  ----- ------------  ---------------      ----- ------------  ---------------
    27     11.033230   2 C  s                50      8.325473   3 C  s         
     4     -8.261679   1 O  s                58      6.101313   3 C  py        
    35     -6.006856   2 C  py               73     -5.652982   4 C  s         
    81      5.560383   4 C  py               12      5.443579   1 O  py        
   117      4.739686   6 H  s               160     -4.734113   9 C  s         
 
 Vector   72  Occ=0.000000D+00  E= 4.137579D-01  Symmetry=a'
              MO Center=  3.8D-02,  1.3D+00,  8.2D-15, r^2= 1.3D+01
   Bfn.  Coefficient  Atom+Function         Bfn.  Coefficient  Atom+Function  
  ----- ------------  ---------------      ----- ------------  ---------------
    73     44.943438   4 C  s                27    -32.155363   2 C  s         
    58    -27.378321   3 C  py              160    -25.872649   9 C  s         
    81     22.211346   4 C  py               80     14.065299   4 C  px        
    34    -11.529313   2 C  px               50     10.069707   3 C  s         
    96     -7.554476   5 O  s               128      7.153984   7 C  s         
 
 Vector   73  Occ=0.000000D+00  E= 4.156193D-01  Symmetry=a"
              MO Center=  1.2D+00, -1.3D+00, -3.2D-14, r^2= 1.2D+01
   Bfn.  Coefficient  Atom+Function         Bfn.  Coefficient  Atom+Function  
  ----- ------------  ---------------      ----- ------------  ---------------
   190      4.521965  11 H  s               199     -4.521965  12 H  s         
   137      3.852782   7 C  pz              134      2.676003   7 C  pz        
   191      2.197301  11 H  s               200     -2.197301  12 H  s         
    36     -2.165922   2 C  pz               82      1.972859   4 C  pz        
   169     -1.936139   9 C  pz              217      1.489150  14 H  s         
 
 Vector   74  Occ=0.000000D+00  E= 4.301978D-01  Symmetry=a'
              MO Center=  1.6D-02,  8.9D-02,  1.8D-13, r^2= 1.4D+01
   Bfn.  Coefficient  Atom+Function         Bfn.  Coefficient  Atom+Function  
  ----- ------------  ---------------      ----- ------------  ---------------
    50     34.022484   3 C  s                27    -30.905225   2 C  s         
    73    -13.449533   4 C  s                57     -7.093271   3 C  px        
    35     -6.999657   2 C  py               58     -6.898676   3 C  py        
     4      6.567854   1 O  s               128     -6.282092   7 C  s         
    49     -5.280073   3 C  s                96      3.729889   5 O  s         
 
 Vector   75  Occ=0.000000D+00  E= 4.312642D-01  Symmetry=a'
              MO Center=  8.8D-01,  2.9D-01,  6.0D-15, r^2= 1.4D+01
   Bfn.  Coefficient  Atom+Function         Bfn.  Coefficient  Atom+Function  
  ----- ------------  ---------------      ----- ------------  ---------------
    27     44.605012   2 C  s                50    -30.916973   3 C  s         
   128    -14.489779   7 C  s                58     11.202094   3 C  py        
    34     10.384085   2 C  px              149      5.102201   8 H  s         
    73      4.859224   4 C  s                 4     -3.907465   1 O  s         
   208      3.732981  13 H  s                35     -3.215367   2 C  py        
 
 Vector   76  Occ=0.000000D+00  E= 4.504985D-01  Symmetry=a"
              MO Center=  7.7D-01,  6.8D-01,  1.7D-13, r^2= 1.5D+01
   Bfn.  Coefficient  Atom+Function         Bfn.  Coefficient  Atom+Function  
  ----- ------------  ---------------      ----- ------------  ---------------
   217      4.115071  14 H  s               226     -4.115071  15 H  s         
   169     -3.437747   9 C  pz              190     -3.103654  11 H  s         
   199      3.103654  12 H  s               166     -2.461269   9 C  pz        
   137     -2.329795   7 C  pz              134     -2.131410   7 C  pz        
   218      2.048120  14 H  s               227     -2.048120  15 H  s         
 
 Vector   77  Occ=0.000000D+00  E= 4.527539D-01  Symmetry=a'
              MO Center=  3.3D-01, -1.4D+00, -3.9D-14, r^2= 1.5D+01
   Bfn.  Coefficient  Atom+Function         Bfn.  Coefficient  Atom+Function  
  ----- ------------  ---------------      ----- ------------  ---------------
   128    -36.609638   7 C  s                27     34.240504   2 C  s         
    35    -20.846317   2 C  py              160     15.595802   9 C  s         
    81    -15.304281   4 C  py               34     12.255023   2 C  px        
    58      9.341213   3 C  py              135      8.029529   7 C  px        
    80     -7.578233   4 C  px               55      6.636940   3 C  py        
 
 Vector   78  Occ=0.000000D+00  E= 4.667222D-01  Symmetry=a'
              MO Center=  1.5D-02,  1.2D+00,  4.5D-15, r^2= 1.4D+01
   Bfn.  Coefficient  Atom+Function         Bfn.  Coefficient  Atom+Function  
  ----- ------------  ---------------      ----- ------------  ---------------
   160    -12.317103   9 C  s                81     11.249024   4 C  py        
    50      6.705154   3 C  s               128      6.572332   7 C  s         
   150      4.936608   8 H  s               168      4.753804   9 C  py        
    12     -4.644879   1 O  py              104     -4.544929   5 O  py        
    35      4.439494   2 C  py               57     -4.136283   3 C  px        
 
 Vector   79  Occ=0.000000D+00  E= 4.856215D-01  Symmetry=a'
              MO Center=  1.5D-01, -1.1D+00, -5.4D-14, r^2= 1.2D+01
   Bfn.  Coefficient  Atom+Function         Bfn.  Coefficient  Atom+Function  
  ----- ------------  ---------------      ----- ------------  ---------------
    27     34.692370   2 C  s               128    -22.514341   7 C  s         
     4    -15.610183   1 O  s                50    -12.939853   3 C  s         
    73      5.413190   4 C  s                35     -4.759991   2 C  py        
   117      4.732575   6 H  s               136     -4.198024   7 C  py        
   190      3.772277  11 H  s               199      3.772277  12 H  s         
 
 Vector   80  Occ=0.000000D+00  E= 4.861787D-01  Symmetry=a"
              MO Center=  5.8D-01,  1.3D+00, -4.4D-14, r^2= 1.2D+01
   Bfn.  Coefficient  Atom+Function         Bfn.  Coefficient  Atom+Function  
  ----- ------------  ---------------      ----- ------------  ---------------
   217      5.491818  14 H  s               226     -5.491818  15 H  s         
   166     -3.987339   9 C  pz              169     -3.976733   9 C  pz        
   218      3.219649  14 H  s               227     -3.219649  15 H  s         
    82      1.746570   4 C  pz              222     -1.322009  14 H  px        
   231      1.322009  15 H  px              137      0.960007   7 C  pz        
 
 Vector   81  Occ=0.000000D+00  E= 4.937738D-01  Symmetry=a"
              MO Center=  9.5D-01, -5.4D-01,  1.2D-13, r^2= 1.2D+01
   Bfn.  Coefficient  Atom+Function         Bfn.  Coefficient  Atom+Function  
  ----- ------------  ---------------      ----- ------------  ---------------
   190      5.039939  11 H  s               199     -5.039939  12 H  s         
    82      3.217047   4 C  pz              137      3.141634   7 C  pz        
   134      3.071409   7 C  pz               59     -2.888284   3 C  pz        
   191      2.794931  11 H  s               200     -2.794931  12 H  s         
   217      2.407700  14 H  s               226     -2.407700  15 H  s         
 
 Vector   82  Occ=0.000000D+00  E= 5.016531D-01  Symmetry=a'
              MO Center=  6.7D-01,  6.1D-01,  1.9D-13, r^2= 1.5D+01
   Bfn.  Coefficient  Atom+Function         Bfn.  Coefficient  Atom+Function  
  ----- ------------  ---------------      ----- ------------  ---------------
   160     40.195507   9 C  s               128    -33.067648   7 C  s         
    73    -26.127945   4 C  s                50     22.091604   3 C  s         
    35    -17.013292   2 C  py               81    -14.595436   4 C  py        
    58     -9.173244   3 C  py              168     -8.667548   9 C  py        
    80     -6.901337   4 C  px               27     -6.772591   2 C  s         
 

 center of mass
 --------------
 x =  -0.11475014 y =   0.03490948 z =   0.00000000

 moments of inertia (a.u.)
 ------------------
        1061.793332755907           0.000000000000           0.000000000000
           0.000000000000         312.060185942357           0.000000000000
           0.000000000000           0.000000000000        1350.781210075168
 
  Mulliken analysis of the total density
  --------------------------------------

    Atom       Charge   Shell Charges
 -----------   ------   -------------------------------------------------------
    1 O    8     8.83   2.00  0.83  1.04  0.22  2.82  1.76  0.12  0.02  0.01
    2 C    6     5.91   2.01  0.68  0.44 -0.10  1.90  0.76  0.06  0.17  0.00
    3 C    6     4.87   2.01  0.64  0.28 -0.58  2.08  0.44  0.13  0.07 -0.21
    4 C    6     5.96   2.01  0.69  0.58 -0.10  1.88  0.70 -0.06  0.19  0.08
    5 O    8     8.90   2.00  0.84  1.07  0.21  2.76  1.83  0.14  0.02  0.03
    6 H    1     0.81   0.70  0.02 -0.00  0.07  0.01
    7 C    6     5.77   2.01  0.65 -0.05  0.16  2.06  0.91  0.04  0.06 -0.07
    8 H    1     1.56   0.78  0.78 -0.02  0.03 -0.01
    9 C    6     5.69   2.01  0.66 -0.09  0.31  2.05  0.75  0.01  0.06 -0.07
   10 H    1     1.10   0.76  0.32  0.02  0.03 -0.02
   11 H    1     0.87   0.76  0.13  0.00  0.03 -0.04
   12 H    1     0.87   0.76  0.13  0.00  0.03 -0.04
   13 H    1     1.07   0.76  0.28  0.03  0.03 -0.03
   14 H    1     0.90   0.76  0.17  0.00  0.03 -0.06
   15 H    1     0.90   0.76  0.17  0.00  0.03 -0.06
 
       Multipole analysis of the density wrt the origin
       ------------------------------------------------
 
     L   x y z        total         open         nuclear
     -   - - -        -----         ----         -------
     0   0 0 0     -0.000000      0.000000     54.000000
 
[...]
          32    -0.05459     0.03513     0.02504     0.06766    -0.36906     0.02895
          33    -0.02140    -0.03758     0.01966     0.04537     0.34097    -0.01236
          34     0.26711     0.04399     0.18518     0.44666    -0.30731     0.00387
          35    -0.05459     0.03513    -0.02504    -0.06766    -0.36906     0.02895
          36     0.02140     0.03758     0.01966     0.04537    -0.34097     0.01236
          37    -0.07397     0.34926     0.00000    -0.00000     0.02407     0.07662
          38    -0.01770     0.20309     0.00000    -0.00000     0.02162     0.05228
          39    -0.00000    -0.00000     0.65251    -0.27202     0.00000    -0.00000
          40     0.03459    -0.47134    -0.11605     0.04803    -0.03596    -0.05892
          41    -0.09141     0.16857     0.41980    -0.17532    -0.00126    -0.02704
          42    -0.01535     0.35872     0.05340    -0.02205     0.03035     0.03476
          43     0.03459    -0.47134     0.11605    -0.04803    -0.03596    -0.05892
          44    -0.09141     0.16857    -0.41980     0.17532    -0.00126    -0.02704
          45     0.01535    -0.35872     0.05340    -0.02205    -0.03035    -0.03476

                   37          38          39          40          41          42
 
 P.Frequency     1734.31     3050.85     3058.45     3129.08     3143.62     3186.29
 
           1    -0.00754    -0.00009     0.00005    -0.00000    -0.00000     0.00060
           2    -0.02105     0.00010     0.00001    -0.00000    -0.00000     0.00030
           3    -0.00000     0.00000     0.00000    -0.00025    -0.00003     0.00000
           4     0.06960     0.00207     0.00005    -0.00000    -0.00000    -0.00142
           5     0.16850    -0.00061    -0.00020     0.00000    -0.00000    -0.00268
           6    -0.00000    -0.00000    -0.00000     0.00105     0.00011    -0.00000
           7    -0.04490    -0.00001     0.00055    -0.00000     0.00000     0.00703
           8    -0.14712    -0.00043    -0.00011     0.00000    -0.00000     0.00073
           9     0.00000    -0.00000     0.00000     0.00001     0.00015     0.00000
          10     0.10720     0.00019     0.00080    -0.00000     0.00000    -0.00004
          11     0.02073    -0.00014     0.00264     0.00000     0.00000     0.00032
          12     0.00000     0.00000    -0.00000    -0.00003    -0.00120     0.00000
          13    -0.06728    -0.00007     0.00024    -0.00000     0.00000     0.00005
          14     0.00122     0.00004    -0.00023    -0.00000     0.00000    -0.00002
          15     0.00000     0.00000     0.00000     0.00001    -0.00005     0.00000
          16    -0.18693    -0.00482     0.00025     0.00000     0.00000     0.00364
          17     0.02642    -0.00317     0.00027    -0.00000    -0.00000    -0.00222
          18    -0.00000     0.00000     0.00000     0.00358    -0.00022    -0.00000
          19     0.00089    -0.00882     0.00000    -0.00000    -0.00000    -0.07932
          20    -0.02574     0.05076    -0.00007     0.00000    -0.00000    -0.03538
          21     0.00000     0.00000    -0.00000     0.08751    -0.00023    -0.00000
          22    -0.07309    -0.00534    -0.00913    -0.00000    -0.00000    -0.07685
          23     0.15344    -0.00065    -0.00033    -0.00000    -0.00000    -0.00246
          24     0.00000     0.00000     0.00000     0.00078    -0.00113    -0.00000
          25    -0.00975    -0.00011    -0.04033    -0.00000    -0.00000    -0.00026
          26    -0.00280     0.00007    -0.02978    -0.00000     0.00000     0.00025
          27    -0.00000     0.00000    -0.00000    -0.00022    -0.08694    -0.00000
          28    -0.01523     0.36663    -0.00049    -0.00000     0.00000     0.85975
          29     0.08150     0.08710    -0.00009    -0.00000    -0.00000     0.18026
          30     0.00000    -0.00000    -0.00000     0.01997    -0.00010    -0.00000
          31     0.00690    -0.13766     0.00015    -0.14911     0.00048     0.04064
          32    -0.06008    -0.33837     0.00028    -0.37315     0.00105     0.13050
          33     0.02593    -0.52517     0.00053    -0.53744     0.00147     0.20824
          34     0.00690    -0.13766     0.00015     0.14911    -0.00048     0.04064
          35    -0.06008    -0.33837     0.00028     0.37315    -0.00105     0.13050
          36    -0.02593     0.52517    -0.00053    -0.53744     0.00147    -0.20824
          37     0.03750     0.00015    -0.25269    -0.00000    -0.00000     0.00225
          38     0.02458     0.00015     0.34211     0.00000     0.00000    -0.00341
          39    -0.00000    -0.00000     0.00000    -0.00007    -0.01983    -0.00000
          40    -0.02684     0.00042     0.36029     0.00117     0.40667     0.00046
          41    -0.00635    -0.00001    -0.00577     0.00001    -0.00208     0.00004
          42     0.01284     0.00062     0.51067     0.00147     0.53434     0.00069
          43    -0.02684     0.00042     0.36029    -0.00117    -0.40667     0.00046
          44    -0.00635    -0.00001    -0.00577    -0.00001     0.00208     0.00004
          45    -0.01284    -0.00062    -0.51067     0.00147     0.53434    -0.00069

                   43          44          45
 
 P.Frequency     3194.39     3229.10     3792.29
 
           1    -0.00008     0.00079     0.01486
           2    -0.00000     0.00009     0.05870
           3    -0.00000    -0.00000     0.00000
           4     0.00014     0.00038    -0.00076
           5     0.00031     0.00502     0.00247
           6     0.00000     0.00000     0.00000
           7    -0.00251    -0.08230    -0.00053
           8    -0.00007    -0.00563    -0.00142
           9    -0.00000     0.00000    -0.00000
          10     0.00240     0.00016    -0.00064
          11    -0.00062    -0.00292     0.00048
          12    -0.00000    -0.00000    -0.00000
          13    -0.00065     0.00045     0.00031
          14     0.00030     0.00012     0.00007
          15     0.00000     0.00000    -0.00000
          16    -0.00027    -0.00023    -0.21152
          17    -0.00059     0.00087    -0.94295
          18     0.00000    -0.00000    -0.00000
          19    -0.00054    -0.00645    -0.00038
          20    -0.00022    -0.00280    -0.00061
          21    -0.00000     0.00000    -0.00000
          22     0.02555     0.94984    -0.00012
          23     0.00300     0.03473     0.00005
          24     0.00000     0.00000    -0.00000
          25     0.06687    -0.00218    -0.00005
          26    -0.05788     0.00158    -0.00001
          27     0.00000    -0.00000     0.00000
          28     0.00593     0.07183    -0.00410
          29     0.00133     0.01482     0.00198
          30     0.00000     0.00000    -0.00000
          31     0.00026     0.00385     0.00127
          32     0.00055     0.00823    -0.00104
          33     0.00107     0.01421     0.00261
          34     0.00026     0.00385     0.00127
          35     0.00055     0.00823    -0.00104
          36    -0.00107    -0.01421    -0.00261
          37    -0.49417     0.01264     0.00016
          38     0.70273    -0.01501    -0.00040
          39    -0.00000    -0.00000     0.00000
          40    -0.15808     0.00745     0.00026
          41    -0.00800     0.00071    -0.00005
          42    -0.23462     0.01157     0.00022
          43    -0.15808     0.00745     0.00026
          44    -0.00800     0.00071    -0.00005
          45     0.23462    -0.01157    -0.00022



 ----------------------------------------------------------------------------
 Normal Eigenvalue ||    Projected Derivative Dipole Moments (debye/angs)
  Mode   [cm**-1]  ||      [d/dqX]             [d/dqY]           [d/dqZ]
 ------ ---------- || ------------------ ------------------ -----------------
    1       -0.000 ||      -0.097              -0.089            -0.002
    2       -0.000 ||      -0.000              -0.000             0.291
    3       -0.000 ||      -0.003              -0.003            -0.081
    4       -0.000 ||       0.140               0.129            -0.001
    5        0.000 ||      -0.001              -0.001             0.221
    6        0.000 ||      -0.006              -0.005            -0.002
    7       56.419 ||      -0.000               0.000             0.290
    8      123.071 ||       0.000               0.000             0.097
    9      145.012 ||       0.000              -0.000             0.206
   10      173.360 ||       0.213              -0.178            -0.000
   11      208.869 ||       0.000               0.000            -0.171
   12      336.583 ||       0.008               0.120             0.000
   13      366.636 ||      -0.010              -0.362             0.000
   14      410.328 ||       0.000               0.000             1.323
   15      473.132 ||      -0.379              -0.463             0.000
   16      521.117 ||       0.000               0.000            -0.431
   17      624.035 ||      -0.000              -0.000             0.148
   18      631.164 ||      -0.126               0.568            -0.000
   19      800.129 ||      -0.000               0.000            -0.816
   20      880.419 ||       0.633               0.948             0.000
   21      922.245 ||      -0.402              -0.376            -0.000
   22      985.246 ||       0.535              -0.343            -0.000
   23     1018.989 ||       0.000               0.000             0.282
   24     1027.103 ||      -0.139               0.020            -0.000
   25     1049.053 ||       0.000               0.000            -0.111
   26     1184.727 ||      -0.048               0.437             0.000
   27     1213.428 ||       0.520              -1.206             0.000
   28     1317.239 ||      -1.766              -1.420            -0.000
   29     1363.440 ||       0.872               0.975             0.000
   30     1394.255 ||       0.416               0.588            -0.000
   31     1413.693 ||       0.858              -0.194             0.000
   32     1457.101 ||       0.508              -0.129            -0.000
   33     1467.520 ||       0.000              -0.000             0.543
   34     1469.086 ||       0.000              -0.000             0.207
   35     1480.341 ||      -0.124              -0.420            -0.000
   36     1682.508 ||       1.426              -1.829             0.000
   37     1734.307 ||       0.950               1.985            -0.000
   38     3050.850 ||       0.016               0.674             0.000
   39     3058.447 ||      -0.314              -0.134            -0.000
   40     3129.078 ||      -0.000              -0.000             0.432
   41     3143.624 ||      -0.000              -0.000            -0.463
   42     3186.294 ||      -0.367              -0.145            -0.000
   43     3194.387 ||       0.208              -0.420            -0.000
   44     3229.098 ||      -0.327               0.166            -0.000
   45     3792.287 ||      -0.691              -1.214            -0.000
 ----------------------------------------------------------------------------



  
  
 ----------------------------------------------------------------------------
 Normal Eigenvalue ||           Projected Infra Red Intensities
  Mode   [cm**-1]  || [atomic units] [(debye/angs)**2] [(KM/mol)] [arbitrary]
 ------ ---------- || -------------- ----------------- ---------- -----------
    1       -0.000 ||    0.000750           0.017         0.731       0.255
    2       -0.000 ||    0.003680           0.085         3.587       1.251
    3       -0.000 ||    0.000285           0.007         0.278       0.097
    4       -0.000 ||    0.001573           0.036         1.533       0.535
    5        0.000 ||    0.002116           0.049         2.062       0.719
    6        0.000 ||    0.000003           0.000         0.003       0.001
    7       56.419 ||    0.003637           0.084         3.546       1.237
    8      123.071 ||    0.000411           0.009         0.400       0.140
    9      145.012 ||    0.001844           0.043         1.797       0.627
   10      173.360 ||    0.003325           0.077         3.242       1.131
   11      208.869 ||    0.001273           0.029         1.241       0.433
   12      336.583 ||    0.000628           0.014         0.612       0.214
   13      366.636 ||    0.005682           0.131         5.539       1.932
   14      410.328 ||    0.075871           1.750        73.963      25.799
   15      473.132 ||    0.015518           0.358        15.128       5.277
   16      521.117 ||    0.008046           0.186         7.843       2.736
   17      624.035 ||    0.000955           0.022         0.931       0.325
   18      631.164 ||    0.014675           0.339        14.306       4.990
   19      800.129 ||    0.028895           0.667        28.168       9.825
   20      880.419 ||    0.056344           1.300        54.927      19.159
   21      922.245 ||    0.013107           0.302        12.778       4.457
   22      985.246 ||    0.017510           0.404        17.070       5.954
   23     1018.989 ||    0.003436           0.079         3.350       1.168
   24     1027.103 ||    0.000858           0.020         0.837       0.292
   25     1049.053 ||    0.000535           0.012         0.522       0.182
   26     1184.727 ||    0.008379           0.193         8.168       2.849
   27     1213.428 ||    0.074787           1.725        72.906      25.431
   28     1317.239 ||    0.222531           5.134       216.934      75.670
   29     1363.440 ||    0.074131           1.710        72.266      25.208
   30     1394.255 ||    0.022485           0.519        21.919       7.646
   31     1413.693 ||    0.033563           0.774        32.719      11.413
   32     1457.101 ||    0.011916           0.275        11.616       4.052
   33     1467.520 ||    0.012776           0.295        12.455       4.344
   34     1469.086 ||    0.001854           0.043         1.807       0.630
   35     1480.341 ||    0.008297           0.191         8.088       2.821
   36     1682.508 ||    0.233060           5.377       227.199      79.250
   37     1734.307 ||    0.209831           4.841       204.554      71.351
   38     3050.850 ||    0.019696           0.454        19.201       6.698
   39     3058.447 ||    0.005056           0.117         4.929       1.719
   40     3129.078 ||    0.008087           0.187         7.883       2.750
   41     3143.624 ||    0.009304           0.215         9.070       3.164
   42     3186.294 ||    0.006736           0.155         6.566       2.290
   43     3194.387 ||    0.009503           0.219         9.264       3.232
   44     3229.098 ||    0.005842           0.135         5.696       1.987
   45     3792.287 ||    0.084573           1.951        82.446      28.758
 ----------------------------------------------------------------------------



 vib:animation  F

 Task  times  cpu:    27122.4s     wall:    27334.3s
 
 
                                NWChem Input Module
                                -------------------
 
 
 Summary of allocated global arrays
-----------------------------------
  No active global arrays



                         GA Statistics for process    0
                         ------------------------------

       create   destroy   get      put      acc     scatter   gather  read&inc
calls: 8.69e+04 8.69e+04 1.99e+07 2.92e+06 9.01e+06    0        0     2.40e+05 
number of processes/call 2.74e+01 7.67e+01 3.27e+01 0.00e+00 0.00e+00
bytes total:             2.29e+10 4.27e+10 6.47e+09 0.00e+00 0.00e+00 1.92e+06
bytes remote:            1.10e+10 2.94e+10 4.55e+09 0.00e+00 0.00e+00 0.00e+00
Max memory consumed for GA by this process: 163936696 bytes
 
MA_summarize_allocated_blocks: starting scan ...
MA_summarize_allocated_blocks: scan completed: 0 heap blocks, 0 stack blocks
MA usage statistics:

	allocation statistics:
					      heap	     stack
					      ----	     -----
	current number of blocks	         0	         0
	maximum number of blocks	        25	        39
	current total bytes		         0	         0
	maximum total bytes		  75978856	  27144104
	maximum total K-bytes		     75979	     27145
	maximum total M-bytes		        76	        28
 
 
                                     CITATION
                                     --------
                Please cite the following reference when publishing
                           results obtained with NWChem:
 
          E. Apr, E. J. Bylaska, W. A. de Jong, N. Govind, K. Kowalski,
       T. P. Straatsma, M. Valiev, H. J. J. van Dam, Y. Alexeev, J. Anchell,
       V. Anisimov, F. W. Aquino, R. Atta-Fynn, J. Autschbach, N. P. Bauman,
     J. C. Becca, D. E. Bernholdt, K. Bhaskaran-Nair, S. Bogatko, P. Borowski,
        J. Boschen, J. Brabec, A. Bruner, E. Caut, Y. Chen, G. N. Chuev,
      C. J. Cramer, J. Daily, M. J. O. Deegan, T. H. Dunning Jr., M. Dupuis,
   K. G. Dyall, G. I. Fann, S. A. Fischer, A. Fonari, H. Frchtl, L. Gagliardi,
      J. Garza, N. Gawande, S. Ghosh, K. Glaesemann, A. W. Gtz, J. Hammond,
       V. Helms, E. D. Hermes, K. Hirao, S. Hirata, M. Jacquelin, L. Jensen,
   B. G. Johnson, H. Jnsson, R. A. Kendall, M. Klemm, R. Kobayashi, V. Konkov,
      S. Krishnamoorthy, M. Krishnan, Z. Lin, R. D. Lins, R. J. Littlefield,
      A. J. Logsdail, K. Lopata, W. Ma, A. V. Marenich, J. Martin del Campo,
   D. Mejia-Rodriguez, J. E. Moore, J. M. Mullin, T. Nakajima, D. R. Nascimento,
    J. A. Nichols, P. J. Nichols, J. Nieplocha, A. Otero-de-la-Roza, B. Palmer,
    A. Panyala, T. Pirojsirikul, B. Peng, R. Peverati, J. Pittner, L. Pollack,
   R. M. Richard, P. Sadayappan, G. C. Schatz, W. A. Shelton, D. W. Silverstein,
   D. M. A. Smith, T. A. Soares, D. Song, M. Swart, H. L. Taylor, G. S. Thomas,
            V. Tipparaju, D. G. Truhlar, K. Tsemekhman, T. Van Voorhis,
     . Vzquez-Mayagoitia, P. Verma, O. Villa, A. Vishnu, K. D. Vogiatzis,
        D. Wang, J. H. Weare, M. J. Williamson, T. L. Windus, K. Woliski,
        A. T. Wong, Q. Wu, C. Yang, Q. Yu, M. Zacharias, Z. Zhang, Y. Zhao,
                                and R. J. Harrison
                        "NWChem: Past, present, and future
                         J. Chem. Phys. 152, 184102 (2020)
                               doi:10.1063/5.0004997
 
                                      AUTHORS
                                      -------
     E. Apra, E. J. Bylaska, N. Govind, K. Kowalski, M. Valiev, W. A. de Jong,
      T. P. Straatsma, H. J. J. van Dam, D. Wang, T. L. Windus, N. P. Bauman,
       A. Panyala, J. Hammond, J. Autschbach, K. Bhaskaran-Nair, J. Brabec,
    K. Lopata, S. A. Fischer, S. Krishnamoorthy, M. Jacquelin, W. Ma, M. Klemm,
       O. Villa, Y. Chen, V. Anisimov, F. Aquino, S. Hirata, M. T. Hackler,
           Eric Hermes, L. Jensen, J. E. Moore, J. C. Becca, V. Konjkov,
            D. Mejia-Rodriguez, T. Risthaus, M. Malagoli, A. Marenich,
   A. Otero-de-la-Roza, J. Mullin, P. Nichols, R. Peverati, J. Pittner, Y. Zhao,
        P.-D. Fan, A. Fonari, M. J. Williamson, R. J. Harrison, J. R. Rehr,
      M. Dupuis, D. Silverstein, D. M. A. Smith, J. Nieplocha, V. Tipparaju,
      M. Krishnan, B. E. Van Kuiken, A. Vazquez-Mayagoitia, M. Swart, Q. Wu,
   T. Van Voorhis, A. A. Auer, M. Nooijen, L. D. Crosby, E. Brown, G. Cisneros,
     G. I. Fann, H. Fruchtl, J. Garza, K. Hirao, R. A. Kendall, J. A. Nichols,
       K. Tsemekhman, K. Wolinski, J. Anchell, D. E. Bernholdt, P. Borowski,
       T. Clark, D. Clerc, H. Dachsel, M. J. O. Deegan, K. Dyall, D. Elwood,
      E. Glendening, M. Gutowski, A. C. Hess, J. Jaffe, B. G. Johnson, J. Ju,
        R. Kobayashi, R. Kutteh, Z. Lin, R. Littlefield, X. Long, B. Meng,
      T. Nakajima, S. Niu, L. Pollack, M. Rosing, K. Glaesemann, G. Sandrone,
      M. Stave, H. Taylor, G. Thomas, J. H. van Lenthe, A. T. Wong, Z. Zhang.

 Total times  cpu:    31214.3s     wall:    31472.5s
