 argument  1 = 2R1.nw
 


============================== echo of input deck ==============================
echo
start 2R1
title "Me,H,Me Ref 1"
charge 0

geometry
 zmatrix
  O
  C  1  R1
  C  2  R2  1  A1
  H  1  R5  2  A4  3  D0
  C  2  R6  3  A5  4  D180
  H  3  R7  2  A6  1  D180
  H  3  R8  2  A7  1  D0
  H  5  R9  2  A8  1  D1
  H  5  R10 2  A9  1  D2
  H  5  R11 2  A10 1  D3
  variables
    R1  1.329
    R2  1.363
    A1  124.5
    R3  1.440
    A2  119.5
    R4  1.249
    A3  123.5
    R5  0.994
    A4  105.4
    R6  1.485
    A5  122.5
    R7  1.078
    A6  120.0
    R8  1.099
    A7  117.6
    R9  1.100
    A8  110.0
    D1  180.0
    R10 1.100
    A9  110.0
    D2  60.00
    R11 1.100
    A10 110.0
    D3  -60.0
    R12 1.100
    A11 110.0
    D4  0.000
    R13 1.100
    A12 110.0
    D5  120.0
    R14 1.100
    A13 110.0
    D6  -120.
  constants
    D0  0.000
    D180 180.0
 end
end

basis spherical
 * library aug-cc-pVDZ
end

set lindep:n_dep 0

set cphf:maxsub 95
set cphf:maxiter 999
set int:acc_std 1d-16
set fock:densityscreen f

scf
 maxiter 99
 vectors input atomic
 thresh 1d-9
 tol2e 1d-15
end

mp2
 freeze atomic
 tight
end

driver
 clear
 maxiter 99
 tight
end

set "mp2:aotol2e fock" 1d-15
set mp2:aotol2e 1d-15
set mp2:backtol 1d-15


task mp2 optimize
task mp2 frequencies


================================================================================


                                         
                                         
 
 
             Northwest Computational Chemistry Package (NWChem) 7.0.0
             --------------------------------------------------------
 
 
                    Environmental Molecular Sciences Laboratory
                       Pacific Northwest National Laboratory
                                Richland, WA 99352
 
                              Copyright (c) 1994-2020
                       Pacific Northwest National Laboratory
                            Battelle Memorial Institute
 
             NWChem is an open-source computational chemistry package
                        distributed under the terms of the
                      Educational Community License (ECL) 2.0
             A copy of the license is included with this distribution
                              in the LICENSE.TXT file
 
                                  ACKNOWLEDGMENT
                                  --------------

            This software and its documentation were developed at the
            EMSL at Pacific Northwest National Laboratory, a multiprogram
            national laboratory, operated for the U.S. Department of Energy
            by Battelle under Contract Number DE-AC05-76RL01830. Support
            for this work was provided by the Department of Energy Office
            of Biological and Environmental Research, Office of Basic
            Energy Sciences, and the Office of Advanced Scientific Computing.


           Job information
           ---------------

    hostname        = compute-0-8.local
    program         = /scratch/nwchem.277679
    date            = Wed Mar 24 13:58:34 2021

    compiled        = Thu_Jun_25_16:07:03_2020
    source          = /home/edo/nwchem-7.0.1
    nwchem branch   = 7.0.1
    nwchem revision = de46fdf
    ga revision     = 5.7.1
    use scalapack   = T
    input           = 2R1.nw
    prefix          = 2R1.
    data base       = ./2R1.db
    status          = startup
    nproc           =       11
    time left       =     -1s



           Memory information
           ------------------

    heap     =   13107200 doubles =    100.0 Mbytes
    stack    =   13107197 doubles =    100.0 Mbytes
    global   =   26214400 doubles =    200.0 Mbytes (distinct from heap & stack)
    total    =   52428797 doubles =    400.0 Mbytes
    verify   = yes
    hardfail = no 


           Directory information
           ---------------------
 
  0 permanent = .
  0 scratch   = /scratch
 
 
 
 
                                NWChem Input Module
                                -------------------
 
 
                                   Me,H,Me Ref 1
                                   -------------

 Scaling coordinates for geometry "geometry" by  1.889725989
 (inverse scale =  0.529177249)

 CS  symmetry detected
 
 
                             Geometry "geometry" -> ""
                             -------------------------
 
 Output coordinates in angstroms (scale by  1.889725989 to convert to a.u.)
 
  No.       Tag          Charge          X              Y              Z
 ---- ---------------- ---------- -------------- -------------- --------------
    1 O                    8.0000    -1.25240848     0.46733998     0.00000000
    2 C                    6.0000     0.01784715     0.07658222     0.00000000
    3 C                    6.0000     1.08600678     0.92322500     0.00000000
    4 H                    1.0000    -1.22293731     1.46090299     0.00000000
    5 C                    6.0000     0.17051945    -1.40054884     0.00000000
    6 H                    1.0000     2.08831265     0.52640396     0.00000000
    7 H                    1.0000     0.88005617     2.00275515     0.00000000
    8 H                    1.0000     1.23738327    -1.66850702     0.00000000
    9 H                    1.0000    -0.30489357    -1.82791261    -0.89517745
   10 H                    1.0000    -0.30489357    -1.82791261     0.89517745
 
      Atomic Mass 
      ----------- 
 
      O                 15.994910
      C                 12.000000
      H                  1.007825
 

 Effective nuclear repulsion energy (a.u.)     120.8821127965

            Nuclear Dipole moment (a.u.) 
            ----------------------------
        X                 Y               Z
 ---------------- ---------------- ----------------
    -0.0000000000    -0.0000000000     0.0000000000
 
      Symmetry information
      --------------------
 
 Group name             Cs        
 Group number              2
 Group order               2
 No. of unique centers     9
 
      Symmetry unique atoms
 
     1    2    3    4    5    6    7    8    9
 


                                Z-matrix (user)
                                -------- 

 Units are Angstrom for bonds and degrees for angles

  Constants are marked with an asterisk (*).

  Constrained variables are marked with a plus sign (+).

 
      Type          Name      I     J     K     L     M      Value
      ----------- --------  ----- ----- ----- ----- ----- ----------
    1 Stretch      R1          2     1                       1.32900
    2 Stretch      R2          3     2                       1.36300
    3 Bend         A1          3     2     1               124.50000
    4 Stretch      R5          4     1                       0.99400
    5 Bend         A4          4     1     2               105.40000
    6*Torsion      D0          4     1     2     3           0.00000
    7 Stretch      R6          5     2                       1.48500
    8 Bend         A5          5     2     3               122.50000
    9*Torsion      D180        5     2     3     4         180.00000
   10 Stretch      R7          6     3                       1.07800
   11 Bend         A6          6     3     2               120.00000
   12*Torsion      D180        6     3     2     1         180.00000
   13 Stretch      R8          7     3                       1.09900
   14 Bend         A7          7     3     2               117.60000
   15*Torsion      D0          7     3     2     1           0.00000
   16 Stretch      R9          8     5                       1.10000
   17 Bend         A8          8     5     2               110.00000
   18 Torsion      D1          8     5     2     1         180.00000
   19 Stretch      R10         9     5                       1.10000
   20 Bend         A9          9     5     2               110.00000
   21 Torsion      D2          9     5     2     1          60.00000
   22 Stretch      R11        10     5                       1.10000
   23 Bend         A10        10     5     2               110.00000
   24 Torsion      D3         10     5     2     1         -60.00000
 
 
            XYZ format geometry
            -------------------
    10
 geometry
 O                    -1.25240848     0.46733998     0.00000000
 C                     0.01784715     0.07658222     0.00000000
 C                     1.08600678     0.92322500     0.00000000
 H                    -1.22293731     1.46090299     0.00000000
 C                     0.17051945    -1.40054884     0.00000000
 H                     2.08831265     0.52640396     0.00000000
 H                     0.88005617     2.00275515     0.00000000
 H                     1.23738327    -1.66850702     0.00000000
 H                    -0.30489357    -1.82791261    -0.89517745
 H                    -0.30489357    -1.82791261     0.89517745
 
 ==============================================================================
                                internuclear distances
 ------------------------------------------------------------------------------
       center one      |      center two      | atomic units |  angstroms
 ------------------------------------------------------------------------------
    2 C                |   1 O                |     2.51145  |     1.32900
    3 C                |   2 C                |     2.57570  |     1.36300
    4 H                |   1 O                |     1.87839  |     0.99400
    5 C                |   2 C                |     2.80624  |     1.48500
    6 H                |   3 C                |     2.03712  |     1.07800
    7 H                |   3 C                |     2.07681  |     1.09900
    8 H                |   5 C                |     2.07870  |     1.10000
    9 H                |   5 C                |     2.07870  |     1.10000
   10 H                |   5 C                |     2.07870  |     1.10000
 ------------------------------------------------------------------------------
                         number of included internuclear distances:          9
 ==============================================================================



 ==============================================================================
                                 internuclear angles
 ------------------------------------------------------------------------------
        center 1       |       center 2       |       center 3       |  degrees
 ------------------------------------------------------------------------------
    2 C                |   1 O                |   4 H                |   105.40
    1 O                |   2 C                |   3 C                |   124.50
    1 O                |   2 C                |   5 C                |   113.00
    3 C                |   2 C                |   5 C                |   122.50
    2 C                |   3 C                |   6 H                |   120.00
    2 C                |   3 C                |   7 H                |   117.60
    6 H                |   3 C                |   7 H                |   122.40
    2 C                |   5 C                |   8 H                |   110.00
    2 C                |   5 C                |   9 H                |   110.00
    2 C                |   5 C                |  10 H                |   110.00
    8 H                |   5 C                |   9 H                |   108.94
    8 H                |   5 C                |  10 H                |   108.94
    9 H                |   5 C                |  10 H                |   108.94
 ------------------------------------------------------------------------------
                            number of included internuclear angles:         13
 ==============================================================================





 Summary of "ao basis" -> "" (spherical)
 ------------------------------------------------------------------------------
       Tag                 Description            Shells   Functions and Types
 ---------------- ------------------------------  ------  ---------------------
 *                        aug-cc-pVDZ                 on all atoms 


 
  Deleted DRIVER restart files 
 
 
 
                           NWChem Geometry Optimization
                           ----------------------------
 
 
 
 
                                   Me,H,Me Ref 1
 
 
 maximum gradient threshold         (gmax) =   0.000015
 rms gradient threshold             (grms) =   0.000010
 maximum cartesian step threshold   (xmax) =   0.000060
 rms cartesian step threshold       (xrms) =   0.000040
 fixed trust radius                (trust) =   0.300000
 maximum step size to saddle      (sadstp) =   0.100000
 energy precision                  (eprec) =   1.0D-07
 maximum number of steps          (nptopt) =   99
 initial hessian option           (inhess) =    0
 line search option               (linopt) =    1
 hessian update option            (modupd) =    1
 saddle point option              (modsad) =    0
 initial eigen-mode to follow     (moddir) =    0
 initial variable to follow       (vardir) =    0
 follow first negative mode     (firstneg) =    T
 apply conjugacy                    (opcg) =    F
 source of zmatrix                         =   user    


          -------------------
          Energy Minimization
          -------------------

 
 Names of Z-matrix variables 
    1 R1           2 R2           3 A1           4 R5           5 A4      
    6 D0           7 R6           8 A5           9 D180        10 R7      
   11 A6          12 D180        13 R8          14 A7          15 D0      
   16 R9          17 A8          18 D1          19 R10         20 A9      
   21 D2          22 R11         23 A10         24 D3      
 
 Variables with the same non-blank name are constrained to be equal
 
     variables named       D0 =     6   15 
     variables named     D180 =     9   12 

 Number of frozen variables =    4
           Frozen variables =    6    9   12   15
 
 Using diagonal initial Hessian 
 Scaling for Hessian diagonals: bonds = 1.00  angles = 0.25  torsions = 0.10

          --------
          Step   0
          --------
 
 
                         Geometry "geometry" -> "geometry"
                         ---------------------------------
 
 Output coordinates in angstroms (scale by  1.889725989 to convert to a.u.)
 
  No.       Tag          Charge          X              Y              Z
 ---- ---------------- ---------- -------------- -------------- --------------
    1 O                    8.0000    -1.25240848     0.46733998     0.00000000
    2 C                    6.0000     0.01784715     0.07658222     0.00000000
    3 C                    6.0000     1.08600678     0.92322500     0.00000000
    4 H                    1.0000    -1.22293731     1.46090299     0.00000000
    5 C                    6.0000     0.17051945    -1.40054884     0.00000000
    6 H                    1.0000     2.08831265     0.52640396     0.00000000
    7 H                    1.0000     0.88005617     2.00275515     0.00000000
    8 H                    1.0000     1.23738327    -1.66850702     0.00000000
    9 H                    1.0000    -0.30489357    -1.82791261    -0.89517745
   10 H                    1.0000    -0.30489357    -1.82791261     0.89517745
 
      Atomic Mass 
      ----------- 
 
      O                 15.994910
      C                 12.000000
      H                  1.007825
 

 Effective nuclear repulsion energy (a.u.)     120.8821127965

            Nuclear Dipole moment (a.u.) 
            ----------------------------
        X                 Y               Z
 ---------------- ---------------- ----------------
    -0.0000000000    -0.0000000000     0.0000000000
 
      Symmetry information
      --------------------
 
 Group name             Cs        
 Group number              2
 Group order               2
 No. of unique centers     9
 
      Symmetry unique atoms
 
     1    2    3    4    5    6    7    8    9
 
                      Basis "ao basis" -> "ao basis" (spherical)
                      -----
  O (Oxygen)
  ----------
            Exponent  Coefficients 
       -------------- ---------------------------------------------------------
  1 S  1.17200000E+04  0.000710
  1 S  1.75900000E+03  0.005470
  1 S  4.00800000E+02  0.027837
  1 S  1.13700000E+02  0.104800
  1 S  3.70300000E+01  0.283062
  1 S  1.32700000E+01  0.448719
  1 S  5.02500000E+00  0.270952
  1 S  1.01300000E+00  0.015458
 
  2 S  1.17200000E+04 -0.000160
  2 S  1.75900000E+03 -0.001263
  2 S  4.00800000E+02 -0.006267
  2 S  1.13700000E+02 -0.025716
  2 S  3.70300000E+01 -0.070924
  2 S  1.32700000E+01 -0.165411
  2 S  5.02500000E+00 -0.116955
  2 S  1.01300000E+00  0.557368
 
  3 S  3.02300000E-01  1.000000
 
  4 S  7.89600000E-02  1.000000
 
  5 P  1.77000000E+01  0.043018
  5 P  3.85400000E+00  0.228913
  5 P  1.04600000E+00  0.508728
 
  6 P  2.75300000E-01  1.000000
 
  7 P  6.85600000E-02  1.000000
 
  8 D  1.18500000E+00  1.000000
 
  9 D  3.32000000E-01  1.000000
 
  C (Carbon)
  ----------
            Exponent  Coefficients 
       -------------- ---------------------------------------------------------
  1 S  6.66500000E+03  0.000692
  1 S  1.00000000E+03  0.005329
  1 S  2.28000000E+02  0.027077
  1 S  6.47100000E+01  0.101718
  1 S  2.10600000E+01  0.274740
  1 S  7.49500000E+00  0.448564
  1 S  2.79700000E+00  0.285074
  1 S  5.21500000E-01  0.015204
 
  2 S  6.66500000E+03 -0.000146
  2 S  1.00000000E+03 -0.001154
  2 S  2.28000000E+02 -0.005725
  2 S  6.47100000E+01 -0.023312
  2 S  2.10600000E+01 -0.063955
  2 S  7.49500000E+00 -0.149981
  2 S  2.79700000E+00 -0.127262
  2 S  5.21500000E-01  0.544529
 
  3 S  1.59600000E-01  1.000000
 
  4 S  4.69000000E-02  1.000000
 
  5 P  9.43900000E+00  0.038109
  5 P  2.00200000E+00  0.209480
  5 P  5.45600000E-01  0.508557
 
  6 P  1.51700000E-01  1.000000
 
  7 P  4.04100000E-02  1.000000
 
  8 D  5.50000000E-01  1.000000
 
  9 D  1.51000000E-01  1.000000
 
  H (Hydrogen)
  ------------
            Exponent  Coefficients 
       -------------- ---------------------------------------------------------
  1 S  1.30100000E+01  0.019685
  1 S  1.96200000E+00  0.137977
  1 S  4.44600000E-01  0.478148
 
  2 S  1.22000000E-01  1.000000
 
  3 S  2.97400000E-02  1.000000
 
  4 P  7.27000000E-01  1.000000
 
  5 P  1.41000000E-01  1.000000
 


 Summary of "ao basis" -> "ao basis" (spherical)
 ------------------------------------------------------------------------------
       Tag                 Description            Shells   Functions and Types
 ---------------- ------------------------------  ------  ---------------------
 O                        aug-cc-pVDZ                9       23   4s3p2d
 C                        aug-cc-pVDZ                9       23   4s3p2d
 H                        aug-cc-pVDZ                5        9   3s2p


                                 NWChem SCF Module
                                 -----------------
 
 
                                   Me,H,Me Ref 1
 
 

  ao basis        = "ao basis"
  functions       =   146
  atoms           =    10
  closed shells   =    16
  open shells     =     0
  charge          =   0.00
  wavefunction    = RHF 
  input vectors   = atomic
  output vectors  = ./2R1.movecs
  use symmetry    = T
  symmetry adapt  = T


 Summary of "ao basis" -> "ao basis" (spherical)
 ------------------------------------------------------------------------------
       Tag                 Description            Shells   Functions and Types
 ---------------- ------------------------------  ------  ---------------------
 O                        aug-cc-pVDZ                9       23   4s3p2d
 C                        aug-cc-pVDZ                9       23   4s3p2d
 H                        aug-cc-pVDZ                5        9   3s2p


      Symmetry analysis of basis
      --------------------------
 
        a'        101
        a"         45
 

int_init: setting std/high accuracies to  1.0D-16  1.0D-32

 Forming initial guess at       0.2s


 Forcing the number of linearly dependent vectors to be  0
 
      Superposition of Atomic Density Guess
      -------------------------------------
 
 Sum of atomic energies:        -190.76388830
 
      Non-variational initial energy
      ------------------------------

 Total energy =    -193.165004
 1-e energy   =    -496.236505
 2-e energy   =     182.189388
 HOMO         =      -0.269402
 LUMO         =       0.016539
 
 
      Symmetry analysis of molecular orbitals - initial
      -------------------------------------------------
 
  Numbering of irreducible representations: 
 
     1 a'          2 a"      
 
  Orbital symmetries:
 
     1 a'          2 a'          3 a'          4 a'          5 a'      
     6 a'          7 a'          8 a'          9 a'         10 a'      
    11 a"         12 a'         13 a"         14 a'         15 a'      
    16 a"         17 a'         18 a"         19 a'         20 a'      
    21 a'         22 a"         23 a'         24 a'         25 a'      
    26 a"      
 

 Starting SCF solution at       1.0s



 ----------------------------------------------
         Quadratically convergent ROHF

 Convergence threshold     :          1.000E-09
 Maximum no. of iterations :           99
 Final Fock-matrix accuracy:          1.000E-15
 ----------------------------------------------

 Warning: symmetry breaking in RHF:   2.641932978867348E-012

              iter       energy          gnorm     gmax       time
             ----- ------------------- --------- --------- --------
                 1     -191.8981478759  9.17D-01  1.28D-01      1.4
 Warning: symmetry breaking in RHF:   3.929803019463947E-011
                 2     -191.9528783724  3.48D-01  5.37D-02      2.1
 Warning: symmetry breaking in RHF:   3.116326312336666E-011
                 3     -191.9606293068  2.20D-02  4.62D-03      4.1
 Warning: symmetry breaking in RHF:   3.056706490696329E-011
                 4     -191.9606862753  3.23D-04  9.65D-05      7.3
 Warning: symmetry breaking in RHF:   3.055032385475169E-011
                 5     -191.9606862956  1.02D-07  1.60D-08     12.5
 Warning: symmetry breaking in RHF:   3.054763141420273E-011
                 6     -191.9606862956  5.81D-11  1.74D-11     17.6


       Final RHF  results 
       ------------------ 

         Total SCF energy =   -191.960686295555
      One-electron energy =   -499.667115321989
      Two-electron energy =    186.824316229899
 Nuclear repulsion energy =    120.882112796535

        Time for solution =     16.8s


 
       Symmetry analysis of molecular orbitals - final
       -----------------------------------------------
 
  Numbering of irreducible representations: 
 
     1 a'          2 a"      
 
  Orbital symmetries:
 
     1 a'          2 a'          3 a'          4 a'          5 a'      
     6 a'          7 a'          8 a'          9 a'         10 a'      
    11 a"         12 a'         13 a'         14 a"         15 a'      
    16 a"         17 a'         18 a'         19 a'         20 a"      
    21 a'         22 a'         23 a'         24 a"         25 a"      
    26 a'      
 
             Final eigenvalues
             -----------------

              1      
    1  -20.6081
    2  -11.3109
    3  -11.2354
    4  -11.2143
    5   -1.4252
    6   -1.0511
    7   -0.9433
    8   -0.7963
    9   -0.6796
   10   -0.6468
   11   -0.6156
   12   -0.5567
   13   -0.5420
   14   -0.5409
   15   -0.5125
   16   -0.3304
   17    0.0346
   18    0.0451
   19    0.0518
   20    0.0610
   21    0.0683
   22    0.0750
   23    0.1151
   24    0.1196
   25    0.1398
   26    0.1422
 
                       ROHF Final Molecular Orbital Analysis
                       -------------------------------------
 
 Vector    5  Occ=2.000000D+00  E=-1.425197D+00  Symmetry=a'
              MO Center= -1.0D+00,  5.0D-01, -1.0D-19, r^2= 5.8D-01
   Bfn.  Coefficient  Atom+Function         Bfn.  Coefficient  Atom+Function  
  ----- ------------  ---------------      ----- ------------  ---------------
     3      0.490850   1 O  s                 2      0.412683   1 O  s         
    27     -0.253347   2 C  s                50      0.185309   3 C  s         
    70      0.173483   4 H  s                 4      0.169476   1 O  s         
    25      0.153232   2 C  s         
 
 Vector    6  Occ=2.000000D+00  E=-1.051141D+00  Symmetry=a'
              MO Center=  2.6D-01, -2.4D-01, -5.4D-14, r^2= 1.9D+00
   Bfn.  Coefficient  Atom+Function         Bfn.  Coefficient  Atom+Function  
  ----- ------------  ---------------      ----- ------------  ---------------
    25      0.252197   2 C  s                80      0.242887   5 C  s         
    49      0.217740   3 C  s                48      0.196392   3 C  s         
    32     -0.181916   2 C  py               50     -0.168282   3 C  s         
    26      0.162376   2 C  s                 3     -0.154070   1 O  s         
 
 Vector    7  Occ=2.000000D+00  E=-9.432959D-01  Symmetry=a'
              MO Center=  4.5D-01, -1.6D-01, -4.2D-18, r^2= 2.5D+00
   Bfn.  Coefficient  Atom+Function         Bfn.  Coefficient  Atom+Function  
  ----- ------------  ---------------      ----- ------------  ---------------
    48      0.267268   3 C  s                80     -0.255370   5 C  s         
    49      0.215891   3 C  s                29      0.202135   2 C  py        
    50     -0.151374   3 C  s         
 
 Vector    8  Occ=2.000000D+00  E=-7.962602D-01  Symmetry=a'
              MO Center= -5.5D-01,  1.6D-01, -1.1D-13, r^2= 2.5D+00
   Bfn.  Coefficient  Atom+Function         Bfn.  Coefficient  Atom+Function  
  ----- ------------  ---------------      ----- ------------  ---------------
     6      0.307269   1 O  py               70      0.272080   4 H  s         
    26     -0.259319   2 C  s                 5     -0.257344   1 O  px        
    25     -0.193395   2 C  s                28      0.186927   2 C  px        
    49      0.157790   3 C  s         
 
 Vector    9  Occ=2.000000D+00  E=-6.795614D-01  Symmetry=a'
              MO Center=  1.7D-01,  6.7D-01, -1.0D-18, r^2= 2.7D+00
   Bfn.  Coefficient  Atom+Function         Bfn.  Coefficient  Atom+Function  
  ----- ------------  ---------------      ----- ------------  ---------------
     6      0.305396   1 O  py               51     -0.248660   3 C  px        
   102     -0.236586   6 H  s                50      0.222702   3 C  s         
   103     -0.213769   6 H  s                70      0.199650   4 H  s         
    27     -0.190661   2 C  s                 3     -0.181363   1 O  s         
    49     -0.178230   3 C  s                 5      0.173545   1 O  px        
 
 Vector   10  Occ=2.000000D+00  E=-6.468190D-01  Symmetry=a'
              MO Center=  1.1D-01,  1.3D-01,  3.8D-13, r^2= 3.0D+00
   Bfn.  Coefficient  Atom+Function         Bfn.  Coefficient  Atom+Function  
  ----- ------------  ---------------      ----- ------------  ---------------
    50      0.320763   3 C  s               112     -0.289325   7 H  s         
     5     -0.271471   1 O  px               52     -0.252926   3 C  py        
   111     -0.238588   7 H  s                84      0.226081   5 C  py        
    87      0.222021   5 C  py               28      0.219820   2 C  px        
    27     -0.185392   2 C  s                29     -0.177015   2 C  py        
 
 Vector   11  Occ=2.000000D+00  E=-6.156480D-01  Symmetry=a"
              MO Center= -5.5D-01, -2.8D-01,  1.3D-15, r^2= 2.2D+00
   Bfn.  Coefficient  Atom+Function         Bfn.  Coefficient  Atom+Function  
  ----- ------------  ---------------      ----- ------------  ---------------
     7      0.412843   1 O  pz               10      0.301511   1 O  pz        
    85      0.252491   5 C  pz               30      0.220373   2 C  pz        
   129     -0.176177   9 H  s               138      0.176177  10 H  s         
 
 Vector   12  Occ=2.000000D+00  E=-5.567241D-01  Symmetry=a'
              MO Center=  4.8D-01, -4.0D-01,  1.4D-13, r^2= 3.1D+00
   Bfn.  Coefficient  Atom+Function         Bfn.  Coefficient  Atom+Function  
  ----- ------------  ---------------      ----- ------------  ---------------
    83      0.285181   5 C  px              120      0.285885   8 H  s         
     5      0.273667   1 O  px              121      0.220317   8 H  s         
    51      0.214858   3 C  px              102      0.213435   6 H  s         
   103      0.193870   6 H  s               112     -0.191242   7 H  s         
     8      0.174342   1 O  px               28     -0.171721   2 C  px        
 
 Vector   13  Occ=2.000000D+00  E=-5.420426D-01  Symmetry=a'
              MO Center=  3.2D-01, -1.7D-01,  5.4D-19, r^2= 3.3D+00
   Bfn.  Coefficient  Atom+Function         Bfn.  Coefficient  Atom+Function  
  ----- ------------  ---------------      ----- ------------  ---------------
    83      0.271581   5 C  px              120      0.258526   8 H  s         
    51     -0.248814   3 C  px                6     -0.237706   1 O  py        
   102     -0.235544   6 H  s               103     -0.214130   6 H  s         
     5     -0.185771   1 O  px               71     -0.175797   4 H  s         
    70     -0.173954   4 H  s                 9     -0.160436   1 O  py        
 
 Vector   14  Occ=2.000000D+00  E=-5.408859D-01  Symmetry=a"
              MO Center= -5.0D-01, -7.9D-01,  9.4D-14, r^2= 2.4D+00
   Bfn.  Coefficient  Atom+Function         Bfn.  Coefficient  Atom+Function  
  ----- ------------  ---------------      ----- ------------  ---------------
     7      0.394982   1 O  pz               85     -0.340673   5 C  pz        
    10      0.305808   1 O  pz              129      0.258378   9 H  s         
   138     -0.258378  10 H  s         
 
 Vector   15  Occ=2.000000D+00  E=-5.124911D-01  Symmetry=a'
              MO Center=  2.6D-01, -5.8D-02, -2.6D-15, r^2= 3.0D+00
   Bfn.  Coefficient  Atom+Function         Bfn.  Coefficient  Atom+Function  
  ----- ------------  ---------------      ----- ------------  ---------------
    29      0.318889   2 C  py               84     -0.304427   5 C  py        
    52     -0.285192   3 C  py               87     -0.254336   5 C  py        
   111     -0.242191   7 H  s               112     -0.232134   7 H  s         
    27     -0.228103   2 C  s                49      0.153953   3 C  s         
 
 Vector   16  Occ=2.000000D+00  E=-3.303783D-01  Symmetry=a"
              MO Center=  5.1D-01,  5.4D-01, -3.3D-14, r^2= 2.1D+00
   Bfn.  Coefficient  Atom+Function         Bfn.  Coefficient  Atom+Function  
  ----- ------------  ---------------      ----- ------------  ---------------
    53      0.416576   3 C  pz               30      0.294997   2 C  pz        
    56      0.292312   3 C  pz                7     -0.243760   1 O  pz        
    33      0.215173   2 C  pz               10     -0.199320   1 O  pz        
 
 Vector   17  Occ=0.000000D+00  E= 3.458491D-02  Symmetry=a'
              MO Center= -2.8D-01,  1.4D+00, -3.3D-16, r^2= 2.0D+01
   Bfn.  Coefficient  Atom+Function         Bfn.  Coefficient  Atom+Function  
  ----- ------------  ---------------      ----- ------------  ---------------
    82      6.693142   5 C  s                35      3.053037   2 C  py        
    27     -2.189497   2 C  s                72     -1.886791   4 H  s         
    90      1.177768   5 C  py              104     -1.113543   6 H  s         
   113     -0.973287   7 H  s                34     -0.938345   2 C  px        
    57      0.783487   3 C  px              121     -0.754354   8 H  s         
 
 Vector   18  Occ=0.000000D+00  E= 4.510299D-02  Symmetry=a'
              MO Center=  4.6D-01, -9.2D-01,  1.3D-15, r^2= 2.5D+01
   Bfn.  Coefficient  Atom+Function         Bfn.  Coefficient  Atom+Function  
  ----- ------------  ---------------      ----- ------------  ---------------
    50      8.596295   3 C  s                35     -5.689588   2 C  py        
    27     -4.984966   2 C  s               122     -2.847598   8 H  s         
   113      2.744853   7 H  s                82     -2.700945   5 C  s         
    34     -2.374507   2 C  px               57     -2.171515   3 C  px        
    90     -2.028055   5 C  py               58     -1.991073   3 C  py        
 
 Vector   19  Occ=0.000000D+00  E= 5.175865D-02  Symmetry=a'
              MO Center=  1.9D+00,  3.1D-01,  1.6D-15, r^2= 2.3D+01
   Bfn.  Coefficient  Atom+Function         Bfn.  Coefficient  Atom+Function  
  ----- ------------  ---------------      ----- ------------  ---------------
   104      4.593051   6 H  s                35     -4.042736   2 C  py        
    82     -3.891622   5 C  s                57     -2.827752   3 C  px        
    50      1.790377   3 C  s               131     -1.667853   9 H  s         
   140     -1.667853  10 H  s                90     -1.605737   5 C  py        
    72     -1.470459   4 H  s                27      1.309456   2 C  s         
 
 Vector   20  Occ=0.000000D+00  E= 6.095656D-02  Symmetry=a"
              MO Center= -8.1D-01, -2.0D+00,  1.4D-14, r^2= 1.9D+01
   Bfn.  Coefficient  Atom+Function         Bfn.  Coefficient  Atom+Function  
  ----- ------------  ---------------      ----- ------------  ---------------
   131      4.388300   9 H  s               140     -4.388300  10 H  s         
    91      2.059063   5 C  pz              130      0.624454   9 H  s         
   139     -0.624454  10 H  s                88      0.438079   5 C  pz        
    59     -0.320800   3 C  pz        
 
 Vector   21  Occ=0.000000D+00  E= 6.830681D-02  Symmetry=a'
              MO Center=  9.9D-02,  1.2D+00, -2.7D-14, r^2= 2.7D+01
   Bfn.  Coefficient  Atom+Function         Bfn.  Coefficient  Atom+Function  
  ----- ------------  ---------------      ----- ------------  ---------------
   113      6.167206   7 H  s                35      4.993393   2 C  py        
    72     -4.316415   4 H  s                82      4.016825   5 C  s         
   104     -3.371874   6 H  s                50     -3.219523   3 C  s         
    58     -3.124397   3 C  py              122     -2.483111   8 H  s         
    57      2.207621   3 C  px              131      2.174882   9 H  s         
 
 Vector   22  Occ=0.000000D+00  E= 7.503115D-02  Symmetry=a'
              MO Center=  1.9D+00, -9.2D-01, -1.4D-14, r^2= 2.5D+01
   Bfn.  Coefficient  Atom+Function         Bfn.  Coefficient  Atom+Function  
  ----- ------------  ---------------      ----- ------------  ---------------
   122     -8.427015   8 H  s               104      8.269122   6 H  s         
    50      8.220276   3 C  s                27     -6.577554   2 C  s         
    35     -5.696064   2 C  py               57     -4.540448   3 C  px        
   113     -4.260249   7 H  s                89      3.368309   5 C  px        
    82     -2.678168   5 C  s                34     -2.292767   2 C  px        
 
 Vector   23  Occ=0.000000D+00  E= 1.150943D-01  Symmetry=a'
              MO Center=  2.5D-01, -6.3D-01,  1.9D-15, r^2= 1.9D+01
   Bfn.  Coefficient  Atom+Function         Bfn.  Coefficient  Atom+Function  
  ----- ------------  ---------------      ----- ------------  ---------------
    27     20.412786   2 C  s                82    -16.845518   5 C  s         
    35     -8.364623   2 C  py               90     -6.575128   5 C  py        
    72      3.559105   4 H  s                34      3.048114   2 C  px        
    50     -2.871881   3 C  s                58      2.787705   3 C  py        
   104      2.610565   6 H  s               122     -2.263777   8 H  s         
 
 Vector   24  Occ=0.000000D+00  E= 1.195818D-01  Symmetry=a"
              MO Center=  1.4D+00,  8.7D-01,  1.5D-14, r^2= 1.2D+01
   Bfn.  Coefficient  Atom+Function         Bfn.  Coefficient  Atom+Function  
  ----- ------------  ---------------      ----- ------------  ---------------
    36      2.609749   2 C  pz               59     -2.339161   3 C  pz        
   131     -1.743553   9 H  s               140      1.743553  10 H  s         
    91     -1.725271   5 C  pz               13     -0.507564   1 O  pz        
   130     -0.497565   9 H  s               139      0.497565  10 H  s         
    88     -0.275692   5 C  pz               33      0.268478   2 C  pz        
 
 Vector   25  Occ=0.000000D+00  E= 1.397750D-01  Symmetry=a"
              MO Center=  9.5D-02, -4.7D-01,  1.8D-14, r^2= 1.5D+01
   Bfn.  Coefficient  Atom+Function         Bfn.  Coefficient  Atom+Function  
  ----- ------------  ---------------      ----- ------------  ---------------
    91     -3.894144   5 C  pz               36      3.864703   2 C  pz        
   131     -1.607392   9 H  s               140      1.607392  10 H  s         
   130     -1.237610   9 H  s               139      1.237610  10 H  s         
    59     -0.910487   3 C  pz               88     -0.647625   5 C  pz        
    13     -0.477153   1 O  pz              128      0.211867   8 H  pz        
 
 Vector   26  Occ=0.000000D+00  E= 1.422058D-01  Symmetry=a'
              MO Center= -1.0D+00,  3.0D-01,  2.8D-15, r^2= 1.9D+01
   Bfn.  Coefficient  Atom+Function         Bfn.  Coefficient  Atom+Function  
  ----- ------------  ---------------      ----- ------------  ---------------
    50     30.437625   3 C  s                82    -19.919007   5 C  s         
    35    -19.583490   2 C  py               27    -12.510852   2 C  s         
    34    -10.004412   2 C  px               57     -6.814441   3 C  px        
   113      5.469232   7 H  s                90     -4.446639   5 C  py        
    58     -4.108178   3 C  py              131     -2.851518   9 H  s         
 
 Vector   27  Occ=0.000000D+00  E= 1.530117D-01  Symmetry=a'
              MO Center=  3.2D-01,  1.4D+00, -2.8D-15, r^2= 1.8D+01
   Bfn.  Coefficient  Atom+Function         Bfn.  Coefficient  Atom+Function  
  ----- ------------  ---------------      ----- ------------  ---------------
    27     13.205827   2 C  s                82     11.083838   5 C  s         
    50    -10.970901   3 C  s                35     10.803660   2 C  py        
     4     -7.485548   1 O  s                57      7.309417   3 C  px        
   104     -5.301858   6 H  s                72     -2.909061   4 H  s         
   122      2.764276   8 H  s                34     -2.558919   2 C  px        
 
 Vector   28  Occ=0.000000D+00  E= 1.572057D-01  Symmetry=a'
              MO Center=  1.0D-01, -6.3D-01, -6.4D-15, r^2= 2.0D+01
   Bfn.  Coefficient  Atom+Function         Bfn.  Coefficient  Atom+Function  
  ----- ------------  ---------------      ----- ------------  ---------------
    50    -12.771431   3 C  s                27     12.272026   2 C  s         
    57      5.582721   3 C  px              104     -4.739989   6 H  s         
    58      4.629483   3 C  py               34      3.934824   2 C  px        
    90      3.429717   5 C  py              113     -2.403794   7 H  s         
    32      2.334921   2 C  py               72      2.246056   4 H  s         
 
 Vector   29  Occ=0.000000D+00  E= 1.712266D-01  Symmetry=a'
              MO Center=  1.1D+00, -2.2D+00,  4.7D-15, r^2= 1.4D+01
   Bfn.  Coefficient  Atom+Function         Bfn.  Coefficient  Atom+Function  
  ----- ------------  ---------------      ----- ------------  ---------------
    50     11.694774   3 C  s               122     -8.997686   8 H  s         
    35     -7.889714   2 C  py               89      6.519038   5 C  px        
    82     -5.493774   5 C  s                34     -5.395331   2 C  px        
    90     -4.124672   5 C  py              121     -3.824482   8 H  s         
   104      2.679680   6 H  s                57     -2.574865   3 C  px        
 
 Vector   30  Occ=0.000000D+00  E= 1.775338D-01  Symmetry=a"
              MO Center=  4.1D-01, -8.9D-01, -4.3D-14, r^2= 1.3D+01
   Bfn.  Coefficient  Atom+Function         Bfn.  Coefficient  Atom+Function  
  ----- ------------  ---------------      ----- ------------  ---------------
   131      4.466312   9 H  s               140     -4.466312  10 H  s         
    91      3.131986   5 C  pz              130      2.742536   9 H  s         
   139     -2.742536  10 H  s                36      2.298769   2 C  pz        
    59     -1.404732   3 C  pz               88      1.260678   5 C  pz        
    13     -0.653819   1 O  pz              137      0.469460   9 H  pz        
 
 Vector   31  Occ=0.000000D+00  E= 1.869456D-01  Symmetry=a'
              MO Center=  1.8D+00, -1.4D-01,  1.9D-13, r^2= 1.6D+01
   Bfn.  Coefficient  Atom+Function         Bfn.  Coefficient  Atom+Function  
  ----- ------------  ---------------      ----- ------------  ---------------
    82     14.491228   5 C  s                35      9.063987   2 C  py        
   104     -8.957884   6 H  s                27     -8.817052   2 C  s         
    57      6.431028   3 C  px              122      5.682163   8 H  s         
    89     -4.979404   5 C  px              103     -3.967222   6 H  s         
    90      3.672451   5 C  py               34      3.518128   2 C  px        
 
 Vector   32  Occ=0.000000D+00  E= 1.894247D-01  Symmetry=a'
              MO Center=  4.7D-01,  6.8D-01,  3.1D-15, r^2= 1.8D+01
   Bfn.  Coefficient  Atom+Function         Bfn.  Coefficient  Atom+Function  
  ----- ------------  ---------------      ----- ------------  ---------------
    35     11.489479   2 C  py               58     -7.958961   3 C  py        
   113      7.934006   7 H  s                50     -6.670936   3 C  s         
   104     -5.526215   6 H  s                57      5.436728   3 C  px        
     4     -5.184743   1 O  s                27      4.649618   2 C  s         
    34     -4.358346   2 C  px               72     -3.742108   4 H  s         
 
 Vector   33  Occ=0.000000D+00  E= 2.009767D-01  Symmetry=a"
              MO Center=  4.3D-01,  2.0D-01, -1.4D-14, r^2= 7.9D+00
   Bfn.  Coefficient  Atom+Function         Bfn.  Coefficient  Atom+Function  
  ----- ------------  ---------------      ----- ------------  ---------------
   131      1.885890   9 H  s               140     -1.885890  10 H  s         
    59     -1.346075   3 C  pz               91      1.198480   5 C  pz        
    36      0.873741   2 C  pz              130      0.639231   9 H  s         
   139     -0.639231  10 H  s                33     -0.461127   2 C  pz        
    88      0.387564   5 C  pz               30     -0.354444   2 C  pz        
 
 Vector   34  Occ=0.000000D+00  E= 2.093481D-01  Symmetry=a'
              MO Center=  4.1D-01,  6.6D-03, -1.4D-14, r^2= 1.2D+01
   Bfn.  Coefficient  Atom+Function         Bfn.  Coefficient  Atom+Function  
  ----- ------------  ---------------      ----- ------------  ---------------
    27     24.146288   2 C  s                82    -11.390814   5 C  s         
    50     -6.661676   3 C  s                 4     -5.312138   1 O  s         
    34      4.601343   2 C  px               90     -3.878244   5 C  py        
   122      3.681367   8 H  s                89     -3.220326   5 C  px        
   131     -2.547983   9 H  s               140     -2.547983  10 H  s         
 
 Vector   35  Occ=0.000000D+00  E= 2.327700D-01  Symmetry=a'
              MO Center=  4.6D-04,  8.7D-01,  1.2D-14, r^2= 1.5D+01
   Bfn.  Coefficient  Atom+Function         Bfn.  Coefficient  Atom+Function  
  ----- ------------  ---------------      ----- ------------  ---------------
    50     31.944175   3 C  s                27    -25.349013   2 C  s         
    57     -8.341548   3 C  px               34     -8.114728   2 C  px        
    35     -8.018182   2 C  py               82     -6.572339   5 C  s         
   104      5.451004   6 H  s               122     -5.453055   8 H  s         
    89      4.460762   5 C  px              112     -4.347337   7 H  s         
 
 Vector   36  Occ=0.000000D+00  E= 2.536248D-01  Symmetry=a'
              MO Center= -1.1D+00,  7.1D-01, -1.2D-14, r^2= 1.2D+01
   Bfn.  Coefficient  Atom+Function         Bfn.  Coefficient  Atom+Function  
  ----- ------------  ---------------      ----- ------------  ---------------
    82     20.676040   5 C  s                35     13.287030   2 C  py        
    50    -12.983923   3 C  s                57      5.707871   3 C  px        
    27     -5.187596   2 C  s                90      4.407144   5 C  py        
   130     -3.101547   9 H  s               139     -3.101547  10 H  s         
    11      2.997232   1 O  px              103      2.793149   6 H  s         
 
 Vector   37  Occ=0.000000D+00  E= 2.867354D-01  Symmetry=a'
              MO Center= -1.4D-01, -3.7D-02,  4.5D-15, r^2= 1.4D+01
   Bfn.  Coefficient  Atom+Function         Bfn.  Coefficient  Atom+Function  
  ----- ------------  ---------------      ----- ------------  ---------------
    82     34.733777   5 C  s                27    -27.075077   2 C  s         
    35     18.169718   2 C  py               90      8.956038   5 C  py        
    50     -6.010931   3 C  s                72     -3.742246   4 H  s         
   104     -3.692214   6 H  s                57      3.453218   3 C  px        
    58     -2.881450   3 C  py              122      2.801000   8 H  s         
 
 Vector   38  Occ=0.000000D+00  E= 2.890488D-01  Symmetry=a"
              MO Center= -9.7D-01,  5.0D-02,  3.8D-14, r^2= 9.8D+00
   Bfn.  Coefficient  Atom+Function         Bfn.  Coefficient  Atom+Function  
  ----- ------------  ---------------      ----- ------------  ---------------
    36      4.781045   2 C  pz               13     -2.831043   1 O  pz        
    91     -2.440167   5 C  pz               59     -1.983593   3 C  pz        
   131     -1.317524   9 H  s               140      1.317524  10 H  s         
   130     -0.618822   9 H  s               139      0.618822  10 H  s         
    45      0.405521   2 C  d  1             56      0.353286   3 C  pz        
 
 Vector   39  Occ=0.000000D+00  E= 3.017993D-01  Symmetry=a"
              MO Center= -4.2D-01, -1.0D+00, -2.5D-13, r^2= 7.9D+00
   Bfn.  Coefficient  Atom+Function         Bfn.  Coefficient  Atom+Function  
  ----- ------------  ---------------      ----- ------------  ---------------
    13      1.329373   1 O  pz               36     -1.228553   2 C  pz        
   128      1.040073   8 H  pz              131     -1.029058   9 H  s         
   140      1.029058  10 H  s               130      0.957011   9 H  s         
   139     -0.957011  10 H  s               100      0.894451   5 C  d  1      
    45     -0.692360   2 C  d  1            135     -0.609748   9 H  px        
 
 Vector   40  Occ=0.000000D+00  E= 3.144743D-01  Symmetry=a'
              MO Center=  9.6D-01, -4.4D-01,  9.6D-15, r^2= 9.9D+00
   Bfn.  Coefficient  Atom+Function         Bfn.  Coefficient  Atom+Function  
  ----- ------------  ---------------      ----- ------------  ---------------
    50     24.009885   3 C  s                27    -17.144270   2 C  s         
    82     -9.220556   5 C  s                35     -8.915273   2 C  py        
    34     -8.712518   2 C  px               58     -5.796036   3 C  py        
   113      4.574689   7 H  s                57     -4.247252   3 C  px        
    49      2.828589   3 C  s                90     -2.655078   5 C  py        
 
 Vector   41  Occ=0.000000D+00  E= 3.218488D-01  Symmetry=a'
              MO Center= -1.4D-01,  4.9D-01,  6.7D-16, r^2= 1.1D+01
   Bfn.  Coefficient  Atom+Function         Bfn.  Coefficient  Atom+Function  
  ----- ------------  ---------------      ----- ------------  ---------------
    50     38.781302   3 C  s                27    -26.134319   2 C  s         
    35    -20.332891   2 C  py               82    -17.635772   5 C  s         
     4      8.441579   1 O  s                57     -8.202587   3 C  px        
    34     -8.128037   2 C  px              112     -4.713176   7 H  s         
    11      3.957838   1 O  px               54      3.436114   3 C  px        
 
 Vector   42  Occ=0.000000D+00  E= 3.456769D-01  Symmetry=a"
              MO Center=  5.2D-01,  5.1D-01,  3.2D-14, r^2= 7.6D+00
   Bfn.  Coefficient  Atom+Function         Bfn.  Coefficient  Atom+Function  
  ----- ------------  ---------------      ----- ------------  ---------------
   110      1.024565   6 H  pz              119     -0.938957   7 H  pz        
    13      0.627049   1 O  pz               78     -0.608399   4 H  pz        
    98     -0.601909   5 C  d -1            130      0.556979   9 H  s         
   139     -0.556979  10 H  s               135      0.543536   9 H  px        
   144     -0.543536  10 H  px               43     -0.538082   2 C  d -1      
 
 Vector   43  Occ=0.000000D+00  E= 3.495203D-01  Symmetry=a'
              MO Center= -2.6D-01,  1.2D-01, -1.0D-14, r^2= 1.0D+01
   Bfn.  Coefficient  Atom+Function         Bfn.  Coefficient  Atom+Function  
  ----- ------------  ---------------      ----- ------------  ---------------
    82     12.103433   5 C  s                50    -10.667780   3 C  s         
    35      8.679980   2 C  py               34      4.808173   2 C  px        
    12     -3.975638   1 O  py              103      3.285499   6 H  s         
   113     -2.894574   7 H  s                46     -2.519916   2 C  d  2      
    58      2.506199   3 C  py               27     -2.427697   2 C  s         
 
 Vector   44  Occ=0.000000D+00  E= 3.764904D-01  Symmetry=a'
              MO Center=  5.7D-01,  4.7D-01, -6.5D-15, r^2= 9.9D+00
   Bfn.  Coefficient  Atom+Function         Bfn.  Coefficient  Atom+Function  
  ----- ------------  ---------------      ----- ------------  ---------------
    35     12.267767   2 C  py               50    -11.984066   3 C  s         
    27      9.279665   2 C  s                82      8.734328   5 C  s         
    57      8.066631   3 C  px                4     -7.836725   1 O  s         
   104     -6.248585   6 H  s                71      4.551938   4 H  s         
   103     -3.502482   6 H  s                12     -3.065115   1 O  py        
 
 Vector   45  Occ=0.000000D+00  E= 4.107145D-01  Symmetry=a'
              MO Center=  1.2D-01, -7.2D-01,  4.1D-15, r^2= 8.8D+00
   Bfn.  Coefficient  Atom+Function         Bfn.  Coefficient  Atom+Function  
  ----- ------------  ---------------      ----- ------------  ---------------
    50     29.471248   3 C  s                27    -22.919561   2 C  s         
    34     -9.035710   2 C  px               82     -8.554583   5 C  s         
    35     -7.902927   2 C  py               57     -5.454820   3 C  px        
    58     -4.450850   3 C  py               90     -3.010037   5 C  py        
   103     -3.003772   6 H  s                55      2.873489   3 C  py        
 
 Vector   46  Occ=0.000000D+00  E= 4.172998D-01  Symmetry=a'
              MO Center=  4.4D-01,  6.4D-01, -1.3D-13, r^2= 1.1D+01
   Bfn.  Coefficient  Atom+Function         Bfn.  Coefficient  Atom+Function  
  ----- ------------  ---------------      ----- ------------  ---------------
    27     12.097440   2 C  s                 4     -7.781414   1 O  s         
    58      5.690764   3 C  py               32      4.692744   2 C  py        
    35     -4.252466   2 C  py              112     -4.263000   7 H  s         
    55      3.588255   3 C  py               81      3.555283   5 C  s         
   113     -3.413399   7 H  s                49     -3.351604   3 C  s         
 
 Vector   47  Occ=0.000000D+00  E= 4.200254D-01  Symmetry=a"
              MO Center=  3.9D-01, -1.0D+00, -9.3D-14, r^2= 9.5D+00
   Bfn.  Coefficient  Atom+Function         Bfn.  Coefficient  Atom+Function  
  ----- ------------  ---------------      ----- ------------  ---------------
   130      3.884133   9 H  s               139     -3.884133  10 H  s         
    91      3.300901   5 C  pz               88      2.341592   5 C  pz        
   131      1.842835   9 H  s               140     -1.842835  10 H  s         
    36     -1.344176   2 C  pz               98     -1.133921   5 C  d -1      
   119      0.986355   7 H  pz              128     -0.892258   8 H  pz        
 
 Vector   48  Occ=0.000000D+00  E= 4.370717D-01  Symmetry=a'
              MO Center=  4.5D-01, -1.7D+00,  8.0D-15, r^2= 9.0D+00
   Bfn.  Coefficient  Atom+Function         Bfn.  Coefficient  Atom+Function  
  ----- ------------  ---------------      ----- ------------  ---------------
    50     18.907199   3 C  s                27    -16.783833   2 C  s         
    35    -10.345167   2 C  py              121     -7.968088   8 H  s         
     4      7.374862   1 O  s               122     -6.851022   8 H  s         
    57     -6.192642   3 C  px               89      6.211837   5 C  px        
    34     -5.756182   2 C  px              104      4.943274   6 H  s         
 
 Vector   49  Occ=0.000000D+00  E= 4.505654D-01  Symmetry=a'
              MO Center= -4.9D-01, -1.5D+00, -8.9D-15, r^2= 9.1D+00
   Bfn.  Coefficient  Atom+Function         Bfn.  Coefficient  Atom+Function  
  ----- ------------  ---------------      ----- ------------  ---------------
    82     17.221791   5 C  s                35      6.590346   2 C  py        
    50     -6.184113   3 C  s               130     -5.956277   9 H  s         
   139     -5.956277  10 H  s                32     -5.367837   2 C  py        
    87     -5.335797   5 C  py                4     -4.415213   1 O  s         
    49      3.688473   3 C  s                54     -3.603106   3 C  px        
 
 Vector   50  Occ=0.000000D+00  E= 4.548559D-01  Symmetry=a"
              MO Center=  2.5D-01,  2.7D-01,  1.9D-14, r^2= 9.0D+00
   Bfn.  Coefficient  Atom+Function         Bfn.  Coefficient  Atom+Function  
  ----- ------------  ---------------      ----- ------------  ---------------
   130      5.043286   9 H  s               139     -5.043286  10 H  s         
    88      3.100515   5 C  pz               91      2.339054   5 C  pz        
   131      1.736671   9 H  s               140     -1.736671  10 H  s         
    78      1.152731   4 H  pz              119     -1.057647   7 H  pz        
   135      0.965817   9 H  px              144     -0.965817  10 H  px        
 
 Vector   51  Occ=0.000000D+00  E= 4.683310D-01  Symmetry=a'
              MO Center= -9.6D-03,  3.8D-01, -3.8D-16, r^2= 1.0D+01
   Bfn.  Coefficient  Atom+Function         Bfn.  Coefficient  Atom+Function  
  ----- ------------  ---------------      ----- ------------  ---------------
    27     28.574131   2 C  s                82    -20.636903   5 C  s         
     4    -12.515834   1 O  s                35     -5.768457   2 C  py        
    90     -5.253320   5 C  py               50     -4.684328   3 C  s         
   103      3.924689   6 H  s                54     -3.764947   3 C  px        
   104      3.580155   6 H  s                71      3.348967   4 H  s         
 
 Vector   52  Occ=0.000000D+00  E= 4.816301D-01  Symmetry=a"
              MO Center=  5.4D-01,  3.7D-01, -4.1D-14, r^2= 8.3D+00
   Bfn.  Coefficient  Atom+Function         Bfn.  Coefficient  Atom+Function  
  ----- ------------  ---------------      ----- ------------  ---------------
    91     -1.532234   5 C  pz               36      1.470723   2 C  pz        
   110      1.347248   6 H  pz               13     -1.265855   1 O  pz        
   130     -1.127442   9 H  s               139      1.127442  10 H  s         
   131     -1.109662   9 H  s               140      1.109662  10 H  s         
    56     -1.100845   3 C  pz               59     -1.051585   3 C  pz        
 
 Vector   53  Occ=0.000000D+00  E= 5.147831D-01  Symmetry=a'
              MO Center=  4.1D-01, -2.1D-01,  3.1D-14, r^2= 8.4D+00
   Bfn.  Coefficient  Atom+Function         Bfn.  Coefficient  Atom+Function  
  ----- ------------  ---------------      ----- ------------  ---------------
    82      9.187247   5 C  s                27     -8.103535   2 C  s         
   103      4.515165   6 H  s                35      4.421699   2 C  py        
    50     -4.412556   3 C  s                81     -3.379681   5 C  s         
    54     -2.868709   3 C  px               12     -2.550403   1 O  py        
   113     -2.435749   7 H  s                90      2.321577   5 C  py        
 

 center of mass
 --------------
 x =  -0.07644888 y =   0.04302377 z =   0.00000000

 moments of inertia (a.u.)
 ------------------
         196.153679272716           0.000000000000           0.000000000000
           0.000000000000         176.867111530125           0.000000000000
           0.000000000000           0.000000000000         361.484636491294
 
  Mulliken analysis of the total density
  --------------------------------------

    Atom       Charge   Shell Charges
 -----------   ------   -------------------------------------------------------
    1 O    8     8.82   2.00  0.82  1.03  0.23  2.83  1.78  0.09  0.02  0.01
    2 C    6     5.60   2.01  0.67  0.41 -0.11  1.91  0.37  0.12  0.17  0.05
    3 C    6     5.42   2.01  0.64  0.59 -0.30  2.01  0.50  0.02  0.05 -0.10
    4 H    1     0.80   0.70  0.03 -0.00  0.07  0.00
    5 C    6     5.70   2.01  0.65  0.08  0.14  2.05  0.73  0.02  0.06 -0.04
    6 H    1     1.31   0.77  0.51 -0.00  0.03 -0.00
    7 H    1     1.38   0.77  0.60  0.01  0.03 -0.03
    8 H    1     1.08   0.76  0.29  0.02  0.03 -0.02
    9 H    1     0.95   0.76  0.19  0.01  0.03 -0.03
   10 H    1     0.95   0.76  0.19  0.01  0.03 -0.03
 
       Multipole analysis of the density wrt the origin
       ------------------------------------------------
 
     L   x y z        total         open         nuclear
     -   - - -        -----         ----         -------
     0   0 0 0     -0.000000      0.000000     32.000000
 
     1   1 0 0      0.080732      0.000000     -0.000000
     1   0 1 0      0.145906      0.000000     -0.000000
     1   0 0 1     -0.000000      0.000000      0.000000
 
     2   2 0 0    -19.970517      0.000000    100.522656
     2   1 1 0     -1.841852      0.000000      0.121195
     2   1 0 1     -0.000000      0.000000      0.000000
     2   0 2 0    -15.787615      0.000000    123.396494
     2   0 1 1     -0.000000      0.000000      0.000000
     2   0 0 2    -20.628427      0.000000      5.723292
 
                   NWChem MP2 Semi-direct Energy/Gradient Module
                   ---------------------------------------------
 
 
                                   Me,H,Me Ref 1
 
 

int_init: setting std/high accuracies to  1.0D-16  1.0D-32
  Basis functions       =    146
  Molecular orbitals    =    146
  Frozen core           =      4
  Frozen virtuals       =      0
  Active alpha occupied =     12
  Active beta occupied  =     12
  Active alpha virtual  =    130
  Active beta virtual   =    130
  Use MO symmetry       = T
  Use skeleton AO sym   = T

  AO/Fock/Back tols     =   1.0D-15  1.0D-15  1.0D-15

 GA uses MA = F    GA memory limited = T

 Available: 
  local mem=  2.29D+07
 global mem=  2.62D+07
 local disk=  0.00D+00

int_init: setting std/high accuracies to  1.0D-16  1.0D-32
  mp2_memr nvloc                     12
  nvloc new                     12
   1 passes of  12:        5242880                     128546                   6245164.
   1 passes of  12: M     22885656           G       26203160           F      17642776.
 
 Semi-direct pass number   1 of   1  for RHF alpha+beta  at       18.2s

int_init: setting std/high accuracies to  1.0D-16  1.0D-32
  vrange nnbf                  10731
  mp2_eaftype                     20  avail_ma_in_mb                    199
 EAF : mp2_eaftype filesize          20    2645195.
  mp2_eaf for mointskh                      20
Node 0 wrote     12.4 Mb in      0.0 s     Agg I/O rate:  4276.8 Mb/s
 Done moints_semi at       21.0s
  mp2_eaftype                     20  avail_ma_in_mb                    179
 EAF : mp2_eaftype filesize          20    2645195.
  mp2_eaf for kh                     20
  mp2_eaftype                     10  avail_ma_in_mb                    179
 EAF : mp2_eaftype filesize          10     449280.
  mp2_eaf for ta tb                     10
  mp2_eaf for ta                      10
  mp2_eaf for tb                      10
 Done maket at       21.1s
 Done pijab at       21.1s
 Done wijab at       21.1s
 Done lai at       21.5s

int_init: setting std/high accuracies to  1.0D-16  1.0D-32
  mp2_eaftype                     20  avail_ma_in_mb                    158
 EAF : mp2_eaftype filesize          20    2671625.
  mp2_eaf for 2pdm                      20
 Done nonsep at       28.0s
 Done multipass loop at       28.0s


          -------------------------------------------
          SCF energy                -191.960686295555
          Correlation energy          -0.631841370578
          Singlet pairs               -0.397710539055
          Triplet pairs               -0.234130831523
          Total MP2 energy          -192.592527666132
          -------------------------------------------



          ---------------------------------------------------
                    Spin Component Scaled (SCS) MP2
          Same spin pairs                     -0.156087221015
          Same spin scaling factor             0.333333333333
          Opposite spin pairs                 -0.475754149562
          Opposite spin scaling fact.          1.200000000000
          SCS-MP2 correlation energy          -0.622934053147
          Total SCS-MP2 energy              -192.583620348701
          ---------------------------------------------------


int_init: setting std/high accuracies to  1.0D-16  1.0D-32
                                NWChem CPHF Module
                                ------------------
 
 

int_init: setting std/high accuracies to  1.0D-16  1.0D-32
    scftype = RHF 
    nclosed =   16
      nopen =    0
  variables =     2080
  tolerance =   1.0D-06
  max. iter =  999

 Warning: symmetry breaking in RHF:   3.936022599755179E-011
 SCF residual:   7.296028174290947E-011

            ----- linear solve (tol: 1.0E-06 prod-acc: 3.1E-14) -----

               iter nbas    rnorm     rnorm-scal   ratio     time
               ---- ---- ----------- ----------- --------- -------
                  1    1  4.1869E-02  2.9982E-01    0.0000    29.6
                  2    2  1.1571E-02  8.2856E-02    0.2764    30.3
                  3    3  2.9432E-03  2.1076E-02    0.2544    31.0
                  4    4  1.2190E-03  8.7292E-03    0.4142    31.7
                  5    5  3.1800E-04  2.2771E-03    0.2609    32.4
                  6    6  1.3798E-04  9.8808E-04    0.4339    33.0
                  7    7  4.2011E-05  3.0083E-04    0.3045    33.7
                  8    8  1.1645E-05  8.3388E-05    0.2772    34.4
                  9    9  3.3718E-06  2.4145E-05    0.2895    35.0
                 10   10  8.9814E-07  6.4314E-06    0.2664    35.7
                 11   11  2.3777E-07  1.7026E-06    0.2647    36.3
                 12   12  4.6459E-08  3.3269E-07    0.1954    36.9

 CPHF converged to   3.3D-07 in   12 iters


int_init: setting std/high accuracies to  1.0D-16  1.0D-32
                Dipole Moments (a.u.)
                --------------
         Nuclear       SCF       SCF+MP2
       ----------- ----------- -----------
 X      -0.000000    0.080732    0.083460
 Y      -0.000000    0.145906    0.182151
 Z       0.000000   -0.000000   -0.000000
 

 MP2 RHF      natural orbital occupation numbers


              1      
    1    2.0000
    2    2.0000
    3    2.0000
    4    2.0000
    5    1.9863
    6    1.9821
    7    1.9796
    8    1.9683
    9    1.9675
   10    1.9674
   11    1.9663
   12    1.9649
   13    1.9625
   14    1.9572
   15    1.9566
   16    1.9333
   17    0.0504
   18    0.0299
   19    0.0263
   20    0.0220
   21    0.0212
   22    0.0183
   23    0.0172
   24    0.0157
   25    0.0156
   26    0.0150
   27    0.0136
   28    0.0125
   29    0.0111
   30    0.0105
   31    0.0091
   32    0.0089
   33    0.0087
   34    0.0077
   35    0.0075
   36    0.0068
   37    0.0065
   38    0.0061
   39    0.0058
   40    0.0053
   41    0.0051
   42    0.0048
   43    0.0044
   44    0.0032
   45    0.0024
   46    0.0023
   47    0.0020
   48    0.0019
   49    0.0016
   50    0.0016
   51    0.0015
   52    0.0014
   53    0.0013
   54    0.0013
   55    0.0012
   56    0.0012
   57    0.0012
   58    0.0011
   59    0.0010
   60    0.0009
   61    0.0008
   62    0.0008
   63    0.0007
   64    0.0007
   65    0.0007
   66    0.0007
   67    0.0006
   68    0.0006
   69    0.0006
   70    0.0006
   71    0.0005
   72    0.0005
   73    0.0005
   74    0.0004
   75    0.0004
   76    0.0004
   77    0.0004
   78    0.0003
   79    0.0003
   80    0.0003
   81    0.0003
   82    0.0003
   83    0.0003
   84    0.0002
   85    0.0002
   86    0.0002
   87    0.0002
   88    0.0002
   89    0.0002
   90    0.0002
   91    0.0001
   92    0.0001
   93    0.0001
   94    0.0001
   95    0.0001
   96    0.0001
   97    0.0001
   98    0.0001
   99    0.0001
  100    0.0001
  101    0.0001
  102    0.0001
  103    0.0001
  104    0.0001
  105    0.0001
  106    0.0001
  107    0.0001
  108    0.0001
  109    0.0000
  110    0.0000
  111    0.0000
  112    0.0000
  113    0.0000
  114    0.0000
  115    0.0000
  116    0.0000
  117    0.0000
  118    0.0000
  119    0.0000
  120    0.0000
  121    0.0000
  122    0.0000
  123    0.0000
  124    0.0000
  125    0.0000
  126    0.0000
  127    0.0000
  128    0.0000
  129    0.0000
  130    0.0000
  131    0.0000
  132    0.0000
  133    0.0000
  134    0.0000
  135    0.0000
  136    0.0000
  137    0.0000
  138    0.0000
  139   -0.0000
  140   -0.0000
  141   -0.0000
  142   -0.0000
  143   -0.0000
  144   -0.0000
  145   -0.0001
  146   -0.0002
 
  MP2 natural orbitals output to ./2R1.mp2nos
 

int_init: setting std/high accuracies to  1.0D-16  1.0D-32
  Using symmetry

int_init: setting std/high accuracies to  1.0D-16  1.0D-32


                         mp2 ENERGY GRADIENTS

    atom               coordinates                        gradient
                 x          y          z           x          y          z
   1 O      -2.366709   0.883145   0.000000    0.032598  -0.037037   0.000000
   2 C       0.033726   0.144719   0.000000   -0.050000   0.005797   0.000000
   3 C       2.052255   1.744642   0.000000    0.022005  -0.003342   0.000000
   4 H      -2.311016   2.760706   0.000000    0.007884   0.020602   0.000000
   5 C       0.322235  -2.646654   0.000000   -0.001912   0.009226   0.000000
   6 H       3.946339   0.994759   0.000000   -0.007681  -0.000797   0.000000
   7 H       1.663065   3.784658   0.000000   -0.007649   0.001273   0.000000
   8 H       2.338315  -3.153021   0.000000    0.001613   0.000475   0.000000
   9 H      -0.576165  -3.454254  -1.691640    0.001570   0.001901  -0.000127
  10 H      -0.576165  -3.454254   1.691640    0.001570   0.001901   0.000127
 
                 ----------------------------------------
                 |  Time  |  1-e(secs)   |  2-e(secs)   |
                 ----------------------------------------
                 |  CPU   |       0.00   |       4.38   |
                 ----------------------------------------
                 |  WALL  |       0.00   |       4.39   |
                 ----------------------------------------
 -----------------------
 Performance information
 -----------------------

 Timer overhead =  0.00D+00 seconds/call

               Nr. of calls         CPU time (s)                 Wall time (s)                GFlops
             ---------------    -------------------     ------------------------------   -------------------
Name         Min   Avg   Max    Min     Avg     Max     Min     Avg     Max   Mx/calls   Min     Max     Sum
mp2: moin     1     1     1    2.7     2.7     2.7      2.8     2.8     2.8     2.8      0.0     0.0     0.0   
mp2: make     1     1     1   9.10E-2 9.36E-2 9.50E-2  0.10    0.10    0.10    0.10      0.0     0.0     0.0   
mp2: pija     1     1     1   1.10E-2 1.18E-2 1.20E-2  1.18E-2 1.18E-2 1.20E-2 1.20E-2   0.0     0.0     0.0   
mp2: wija     1     1     1   1.20E-2 1.25E-2 1.30E-2  1.26E-2 1.27E-2 1.27E-2 1.27E-2   0.0     0.0     0.0   
mp2: lai      1     1     1   0.33    0.34    0.34     0.34    0.34    0.34    0.34      0.0     0.0     0.0   
mp2: back     1     1     1   0.18    0.19    0.19     0.19    0.19    0.19    0.19      0.0     0.0     0.0   
mp2: nons     1     1     1    5.3     5.8     6.2      5.3     5.8     6.2     6.2      0.0     0.0     0.0   
mp2: laif     1     1     1   0.92    0.92    0.92     0.92    0.92    0.92    0.92      0.0     0.0     0.0   
mp2: cphf     1     1     1    8.7     8.7     8.7      8.8     8.8     8.8     8.8      0.0     0.0     0.0   
mp2: wijf     1     1     1   0.92    0.92    0.92     0.92    0.92    0.92    0.92      0.0     0.0     0.0   
mp2: sep      1     1     1    4.4     4.4     4.4      4.4     4.4     4.4     4.4      0.0     0.0     0.0   
mp2: tota     1     1     1    25.     25.     25.      25.     25.     25.     25.      0.0     0.0     0.0   

 The average no. of pstat calls per process was 1.20D+01
 with a timing overhead of 0.00D+00s


@ Step       Energy      Delta E   Gmax     Grms     Xrms     Xmax   Walltime
@ ---- ---------------- -------- -------- -------- -------- -------- --------
@    0    -192.59252767  0.0D+00  0.04353  0.01073  0.00000  0.00000     43.1
                                                                    



                                Z-matrix (user)
                                -------- 

 Units are Angstrom for bonds and degrees for angles

  Constants are marked with an asterisk (*).

  Constrained variables are marked with a plus sign (+).

 
      Type          Name      I     J     K     L     M      Value     Gradient
      ----------- --------  ----- ----- ----- ----- ----- ---------- ----------
    1 Stretch      R1          2     1                       1.32900   -0.04353
    2 Stretch      R2          3     2                       1.36300    0.00345
    3 Bend         A1          3     2     1               124.50000   -0.00217
    4 Stretch      R5          4     1                       0.99400    0.02083
    5 Bend         A4          4     1     2               105.40000   -0.00723
    6*Torsion      D0          4     1     2     3           0.00000    0.00000
    7 Stretch      R6          5     2                       1.48500   -0.01314
    8 Bend         A5          5     2     3               122.50000   -0.00673
    9*Torsion      D180        5     2     3     4         180.00000    0.00000
   10 Stretch      R7          6     3                       1.07800   -0.00685
   11 Bend         A6          6     3     2               120.00000   -0.00385
   12*Torsion      D180        6     3     2     1         180.00000    0.00000
   13 Stretch      R8          7     3                       1.09900    0.00268
   14 Bend         A7          7     3     2               117.60000   -0.00800
   15*Torsion      D0          7     3     2     1           0.00000    0.00000
   16 Stretch      R9          8     5                       1.10000    0.00145
   17 Bend         A8          8     5     2               110.00000   -0.00094
   18 Torsion      D1          8     5     2     1         180.00000   -0.00000
   19 Stretch      R10         9     5                       1.10000   -0.00131
   20 Bend         A9          9     5     2               110.00000   -0.00150
   21 Torsion      D2          9     5     2     1          60.00000    0.00164
   22 Stretch      R11        10     5                       1.10000   -0.00131
   23 Bend         A10        10     5     2               110.00000   -0.00150
   24 Torsion      D3         10     5     2     1         -60.00000   -0.00164
 
                                 NWChem SCF Module
                                 -----------------
 
 
                                   Me,H,Me Ref 1
 
 

  ao basis        = "ao basis"
  functions       =   146
  atoms           =    10
  closed shells   =    16
  open shells     =     0
  charge          =   0.00
  wavefunction    = RHF 
  input vectors   = ./2R1.movecs
  output vectors  = ./2R1.movecs
  use symmetry    = T
  symmetry adapt  = T


 Summary of "ao basis" -> "ao basis" (spherical)
 ------------------------------------------------------------------------------
       Tag                 Description            Shells   Functions and Types
 ---------------- ------------------------------  ------  ---------------------
 O                        aug-cc-pVDZ                9       23   4s3p2d
 C                        aug-cc-pVDZ                9       23   4s3p2d
 H                        aug-cc-pVDZ                5        9   3s2p


      Symmetry analysis of basis
      --------------------------
 
        a'        101
        a"         45
 

int_init: setting std/high accuracies to  1.0D-16  1.0D-32

 Forming initial guess at      43.2s


 Forcing the number of linearly dependent vectors to be  0

 Loading old vectors from job with title :

Me,H,Me Ref 1

 
      Symmetry analysis of molecular orbitals - initial
      -------------------------------------------------
 
  Numbering of irreducible representations: 
 
     1 a'          2 a"      
 
  Orbital symmetries:
 
     1 a'          2 a'          3 a'          4 a'          5 a'      
     6 a'          7 a'          8 a'          9 a'         10 a'      
    11 a"         12 a'         13 a'         14 a"         15 a'      
    16 a"         17 a'         18 a'         19 a'         20 a"      
    21 a'         22 a'         23 a'         24 a"         25 a"      
    26 a'      
 

 Starting SCF solution at      43.2s



 ----------------------------------------------
         Quadratically convergent ROHF

 Convergence threshold     :          1.000E-09
 Maximum no. of iterations :           99
 Final Fock-matrix accuracy:          1.000E-15
 ----------------------------------------------

 Warning: symmetry breaking in RHF:   3.870620309931318E-011

              iter       energy          gnorm     gmax       time
             ----- ------------------- --------- --------- --------
                 1     -191.9569681053  3.12D-01  5.68D-02     43.1
 Warning: symmetry breaking in RHF:   3.356162342390681E-011
                 2     -191.9639325859  1.93D-02  3.60D-03     45.0
 Warning: symmetry breaking in RHF:   3.353499966443661E-011
                 3     -191.9639824944  2.26D-04  8.67D-05     48.2
 Warning: symmetry breaking in RHF:   3.354091043909906E-011
                 4     -191.9639825054  2.01D-08  2.41D-09     54.0
 Warning: symmetry breaking in RHF:   3.344950045102596E-011
                 5     -191.9639825054  3.24D-10  5.58D-11     57.8


       Final RHF  results 
       ------------------ 

         Total SCF energy =   -191.963982505370
      One-electron energy =   -496.594406802863
      Two-electron energy =    185.330519918174
 Nuclear repulsion energy =    119.299904379318

        Time for solution =     15.4s


 
       Symmetry analysis of molecular orbitals - final
       -----------------------------------------------
 
  Numbering of irreducible representations: 
 
     1 a'          2 a"      
 
  Orbital symmetries:
 
     1 a'          2 a'          3 a'          4 a'          5 a'      
     6 a'          7 a'          8 a'          9 a'         10 a'      
    11 a"         12 a'         13 a'         14 a"         15 a'      
    16 a"         17 a'         18 a'         19 a'         20 a"      
    21 a'         22 a'         23 a'         24 a"         25 a"      
    26 a'      
 
             Final eigenvalues
             -----------------

              1      
    1  -20.5994
    2  -11.3171
    3  -11.2373
    4  -11.2227
    5   -1.4027
    6   -1.0497
    7   -0.9444
    8   -0.7926
    9   -0.6825
   10   -0.6367
   11   -0.6015
   12   -0.5502
   13   -0.5416
   14   -0.5301
   15   -0.5200
   16   -0.3382
   17    0.0347
   18    0.0453
   19    0.0506
   20    0.0623
   21    0.0676
   22    0.0747
   23    0.1146
   24    0.1171
   25    0.1423
   26    0.1452
 
                       ROHF Final Molecular Orbital Analysis
                       -------------------------------------
 
 Vector    5  Occ=2.000000D+00  E=-1.402743D+00  Symmetry=a'
              MO Center= -1.1D+00,  5.1D-01,  4.1D-19, r^2= 6.0D-01
   Bfn.  Coefficient  Atom+Function         Bfn.  Coefficient  Atom+Function  
  ----- ------------  ---------------      ----- ------------  ---------------
     3      0.491053   1 O  s                 2      0.416483   1 O  s         
    27     -0.247887   2 C  s                50      0.201358   3 C  s         
    70      0.195624   4 H  s                 4      0.159521   1 O  s         
 
 Vector    6  Occ=2.000000D+00  E=-1.049703D+00  Symmetry=a'
              MO Center=  2.9D-01, -1.5D-01,  1.6D-19, r^2= 1.9D+00
   Bfn.  Coefficient  Atom+Function         Bfn.  Coefficient  Atom+Function  
  ----- ------------  ---------------      ----- ------------  ---------------
    25      0.262235   2 C  s                80      0.231393   5 C  s         
    48      0.207237   3 C  s                49      0.191938   3 C  s         
    26      0.181953   2 C  s                32     -0.160281   2 C  py        
    50     -0.159996   3 C  s                82      0.150889   5 C  s         
 
 Vector    7  Occ=2.000000D+00  E=-9.444396D-01  Symmetry=a'
              MO Center=  4.6D-01, -2.4D-01,  9.6D-15, r^2= 2.6D+00
   Bfn.  Coefficient  Atom+Function         Bfn.  Coefficient  Atom+Function  
  ----- ------------  ---------------      ----- ------------  ---------------
    80     -0.266650   5 C  s                48      0.261219   3 C  s         
    49      0.227349   3 C  s                29      0.199453   2 C  py        
    50     -0.152652   3 C  s         
 
 Vector    8  Occ=2.000000D+00  E=-7.925549D-01  Symmetry=a'
              MO Center= -4.5D-01,  1.3D-01, -1.9D-13, r^2= 2.7D+00
   Bfn.  Coefficient  Atom+Function         Bfn.  Coefficient  Atom+Function  
  ----- ------------  ---------------      ----- ------------  ---------------
    26     -0.292569   2 C  s                 6      0.289729   1 O  py        
    70      0.276460   4 H  s                 5     -0.253346   1 O  px        
    49      0.229325   3 C  s                25     -0.191701   2 C  s         
    28      0.173897   2 C  px                8     -0.153202   1 O  px        
 
 Vector    9  Occ=2.000000D+00  E=-6.824729D-01  Symmetry=a'
              MO Center=  3.7D-01,  7.1D-01,  2.7D-20, r^2= 2.7D+00
   Bfn.  Coefficient  Atom+Function         Bfn.  Coefficient  Atom+Function  
  ----- ------------  ---------------      ----- ------------  ---------------
    50      0.340241   3 C  s                 6      0.295789   1 O  py        
    27     -0.271368   2 C  s                51     -0.236432   3 C  px        
    26      0.230084   2 C  s               103     -0.207722   6 H  s         
   102     -0.205191   6 H  s                70      0.201592   4 H  s         
   111     -0.200722   7 H  s                31      0.193831   2 C  px        
 
 Vector   10  Occ=2.000000D+00  E=-6.367463D-01  Symmetry=a'
              MO Center=  4.8D-02,  1.5D-01,  6.2D-13, r^2= 3.0D+00
   Bfn.  Coefficient  Atom+Function         Bfn.  Coefficient  Atom+Function  
  ----- ------------  ---------------      ----- ------------  ---------------
     5      0.288169   1 O  px              112      0.268249   7 H  s         
    50     -0.256437   3 C  s                52      0.215974   3 C  py        
    29      0.206468   2 C  py               84     -0.207236   5 C  py        
[...]
          13    -0.00000    -0.11788    -0.00000     0.02619     0.00000     0.00000
          14     0.00000    -0.01836     0.00000    -0.10674    -0.00000     0.00000
          15     0.00908    -0.00000     0.02033    -0.00000    -0.01679    -0.00901
          16     0.00000     0.06206     0.00000    -0.01599     0.00000    -0.00000
          17     0.00000     0.28292    -0.00000     0.27436     0.00000     0.00000
          18     0.06325     0.00000     0.12577    -0.00000     0.08346     0.76541
          19    -0.00000    -0.18737     0.00000    -0.35863     0.00000     0.00000
          20    -0.00000     0.08544    -0.00000    -0.00662     0.00000     0.00000
          21     0.08255     0.00000    -0.15017     0.00000    -0.38882    -0.47862
          22    -0.00000    -0.19443     0.00000     0.04853     0.00000    -0.00000
          23     0.00000    -0.27707    -0.00000    -0.03613    -0.00000    -0.00000
          24    -0.52721    -0.00000     0.06641    -0.00000    -0.21268    -0.05124
          25    -0.47578    -0.23800     0.04554     0.06281    -0.05590    -0.00191
          26    -0.04829     0.11507    -0.02141    -0.14294     0.28836    -0.00221
          27     0.30088     0.00520     0.00352    -0.00362    -0.12247    -0.00818
          28     0.47578    -0.23800    -0.04554     0.06281     0.05590     0.00191
          29     0.04829     0.11507     0.02141    -0.14294    -0.28836     0.00221
          30     0.30088    -0.00520     0.00352     0.00362    -0.12247    -0.00818

                   13          14          15          16          17          18
 
 P.Frequency      805.86      865.63      968.92     1014.97     1057.42     1205.67
 
           1     0.00000    -0.11407    -0.07852     0.07748    -0.00000     0.08551
           2     0.00000     0.03909     0.00989    -0.02759     0.00000     0.02937
           3     0.00611    -0.00000     0.00000     0.00000     0.00661     0.00000
           4     0.00000     0.03562     0.03335    -0.02991     0.00000    -0.04742
           5    -0.00000     0.04242    -0.01849     0.03938     0.00000     0.09103
           6    -0.04560    -0.00000    -0.00000     0.00000    -0.11190    -0.00000
           7     0.00000     0.08449     0.11449     0.01636     0.00000    -0.02027
           8    -0.00000     0.09860    -0.07147     0.05024     0.00000    -0.05595
           9     0.14385     0.00000    -0.00000     0.00000     0.01195     0.00000
          10     0.00000    -0.15349    -0.15598    -0.13652    -0.00000    -0.72074
          11     0.00000     0.04077     0.01011    -0.03907     0.00000    -0.01595
          12    -0.01112    -0.00000     0.00000     0.00000     0.02551    -0.00000
          13     0.00000     0.01970    -0.03286    -0.12772    -0.00000     0.04477
          14     0.00000    -0.15985     0.03507    -0.04208    -0.00000    -0.03817
          15    -0.00646    -0.00000    -0.00000    -0.00000     0.13130     0.00000
          16     0.00000     0.06299     0.31841    -0.00862     0.00000    -0.01812
          17    -0.00000     0.01693     0.48532    -0.02260     0.00000    -0.02402
          18    -0.51024    -0.00000    -0.00000    -0.00000    -0.07722    -0.00000
          19     0.00000     0.23012    -0.43666     0.11907     0.00000    -0.23833
          20     0.00000     0.12277    -0.14312     0.06663     0.00000    -0.09294
          21    -0.67724     0.00000    -0.00000     0.00000     0.13164    -0.00000
          22     0.00000    -0.00281     0.02274     0.04386     0.00000    -0.01372
          23     0.00000    -0.25996     0.21582     0.50863    -0.00000    -0.24118
          24     0.00036     0.00000     0.00000    -0.00000    -0.26710     0.00000
          25    -0.00224     0.00434     0.06432     0.21728     0.05194    -0.04666
          26    -0.02033    -0.15837    -0.03576    -0.32090     0.49623    -0.02762
          27     0.00422     0.00485    -0.01844    -0.05858    -0.14548     0.04112
          28     0.00224     0.00434     0.06432     0.21728    -0.05194    -0.04666
          29     0.02033    -0.15837    -0.03576    -0.32090    -0.49623    -0.02762
          30     0.00422    -0.00485     0.01844     0.05858    -0.14548    -0.04112

                   19          20          21          22          23          24
 
 P.Frequency     1348.80     1398.72     1451.78     1462.32     1481.28     1717.96
 
           1     0.02403    -0.03054     0.01027    -0.00000     0.00766     0.02803
           2    -0.04585     0.01229     0.02415    -0.00000     0.00282     0.01144
           3    -0.00000    -0.00000    -0.00000    -0.00202    -0.00000     0.00000
           4    -0.13489     0.10596     0.01115    -0.00000    -0.01655    -0.15011
           5     0.10610    -0.02752    -0.10728     0.00000    -0.00413    -0.15275
           6     0.00000     0.00000     0.00000     0.02289     0.00000    -0.00000
           7     0.04418    -0.01156    -0.04861    -0.00000    -0.03322     0.11928
           8    -0.02133     0.01510    -0.00902     0.00000    -0.03005     0.10679
           9    -0.00000    -0.00000    -0.00000    -0.00073    -0.00000     0.00000
          10     0.42849    -0.04610    -0.28446    -0.00000    -0.05012    -0.14240
          11    -0.02125     0.01147     0.00333     0.00000    -0.00083    -0.00482
          12    -0.00000    -0.00000     0.00000    -0.01120    -0.00000     0.00000
          13     0.02126    -0.03412     0.01626    -0.00000    -0.04381     0.01115
          14     0.03273     0.11149     0.08141    -0.00000     0.01143     0.03562
          15    -0.00000     0.00000     0.00000     0.04959    -0.00000     0.00000
          16     0.13352    -0.15330     0.11056     0.00000     0.07143     0.04151
          17     0.22670    -0.35248     0.39468     0.00000     0.25354    -0.18058
          18     0.00000     0.00000    -0.00000    -0.01063     0.00000    -0.00000
          19    -0.01232    -0.27031     0.53026     0.00000     0.25157    -0.14678
          20    -0.01448    -0.03649     0.07715     0.00000     0.01469     0.09462
          21    -0.00000    -0.00000     0.00000    -0.00407    -0.00000     0.00000
          22    -0.08517    -0.15297    -0.02577     0.00000    -0.14276    -0.03587
          23    -0.33833    -0.33625    -0.03551     0.00000    -0.37697    -0.10041
          24    -0.00000     0.00000     0.00000    -0.69765     0.00000    -0.00000
          25    -0.00949     0.19476    -0.12066     0.38538     0.43132     0.03654
          26    -0.26208    -0.33043    -0.20375    -0.28963     0.16784     0.06635
          27     0.14021     0.07441     0.20188    -0.04934    -0.32643    -0.03032
          28    -0.00949     0.19476    -0.12066    -0.38538     0.43132     0.03654
          29    -0.26208    -0.33043    -0.20375     0.28963     0.16784     0.06635
          30    -0.14021    -0.07441    -0.20188    -0.04934     0.32643     0.03032

                   25          26          27          28          29          30
 
 P.Frequency     3070.25     3152.85     3188.83     3191.02     3304.07     3793.91
 
           1     0.00002    -0.00000    -0.00054     0.00013     0.00078     0.00459
           2     0.00004     0.00000     0.00010    -0.00032    -0.00018    -0.05998
           3    -0.00000    -0.00004    -0.00000     0.00000     0.00000    -0.00000
           4     0.00087    -0.00000     0.00441     0.00643    -0.00069    -0.00107
           5    -0.00197     0.00000     0.00316     0.00458     0.00261    -0.00210
           6    -0.00000     0.00106    -0.00000     0.00000    -0.00000     0.00000
           7     0.00003    -0.00000    -0.01410    -0.03645    -0.06875    -0.00063
           8     0.00013     0.00000    -0.01644    -0.05306     0.06371     0.00086
           9     0.00000     0.00006     0.00000     0.00000     0.00000     0.00000
          10    -0.00099     0.00000    -0.00152    -0.00284     0.00493    -0.05439
          11    -0.00018     0.00000     0.00055     0.00426    -0.00223     0.96527
          12    -0.00000    -0.00102     0.00000     0.00000    -0.00000    -0.00000
          13     0.00890    -0.00000     0.08360    -0.02801    -0.00179     0.00029
          14     0.04921     0.00000    -0.00140     0.00110    -0.00019     0.00053
          15     0.00000     0.08752    -0.00000    -0.00000    -0.00000    -0.00000
          16    -0.00691     0.00000     0.17279     0.47208     0.74102    -0.00177
          17     0.00252     0.00000    -0.06798    -0.18493    -0.26658    -0.00114
          18     0.00000     0.00026    -0.00000    -0.00000    -0.00000     0.00000
          19     0.00185     0.00000    -0.03773    -0.11368     0.06646     0.00203
          20    -0.00562     0.00000     0.23978     0.75714    -0.51230    -0.00388
          21     0.00000    -0.00004    -0.00000     0.00000     0.00000    -0.00000
          22     0.44097    -0.00000    -0.76670     0.25924     0.01822    -0.00098
          23    -0.11943    -0.00000     0.22327    -0.07405    -0.00657    -0.00050
          24    -0.00000     0.01742     0.00000    -0.00000    -0.00000     0.00000
          25    -0.27591    -0.31270    -0.11921     0.03709     0.00259    -0.00051
          26    -0.22101    -0.25605    -0.11126     0.03336     0.00161     0.00032
          27    -0.50182    -0.53574    -0.24371     0.07701     0.00359     0.00002
          28    -0.27591     0.31270    -0.11921     0.03709     0.00259    -0.00051
          29    -0.22101     0.25605    -0.11126     0.03336     0.00161     0.00032
          30     0.50182    -0.53574     0.24371    -0.07701    -0.00359    -0.00002



 ----------------------------------------------------------------------------
 Normal Eigenvalue ||    Projected Derivative Dipole Moments (debye/angs)
  Mode   [cm**-1]  ||      [d/dqX]             [d/dqY]           [d/dqZ]
 ------ ---------- || ------------------ ------------------ -----------------
    1       -0.000 ||      -0.045               0.038             0.000
    2       -0.000 ||       0.017              -0.015             0.003
    3       -0.000 ||       0.000              -0.000            -0.024
    4       -0.000 ||       0.001              -0.000            -0.046
    5       -0.000 ||       0.000              -0.000            -0.070
    6        0.000 ||      -0.002               0.002            -0.001
    7      186.772 ||       0.000              -0.000             0.203
    8      403.507 ||      -0.177              -0.041             0.000
    9      435.604 ||      -0.000               0.000             1.484
   10      471.606 ||       0.461              -0.448             0.000
   11      487.518 ||      -0.000              -0.000             0.327
   12      719.559 ||      -0.000              -0.000            -0.091
   13      805.856 ||       0.000              -0.000            -1.228
   14      865.629 ||      -0.513              -0.020            -0.000
   15      968.918 ||       0.499               0.040            -0.000
   16     1014.968 ||      -0.808               0.311            -0.000
   17     1057.424 ||      -0.000              -0.000            -0.067
   18     1205.667 ||       1.733              -0.451             0.000
   19     1348.804 ||      -0.503               0.015            -0.000
   20     1398.718 ||      -0.905               0.382             0.000
   21     1451.776 ||      -0.061              -0.111             0.000
   22     1462.317 ||      -0.000               0.000            -0.420
   23     1481.281 ||       0.392               0.120            -0.000
   24     1717.958 ||      -1.529              -0.694             0.000
   25     3070.254 ||       0.133               0.568             0.000
   26     3152.846 ||      -0.000              -0.000            -0.450
   27     3188.830 ||       0.531              -0.094            -0.000
   28     3191.021 ||      -0.024              -0.211            -0.000
   29     3304.073 ||      -0.230               0.315            -0.000
   30     3793.905 ||      -0.540               0.766            -0.000
 ----------------------------------------------------------------------------



  
  
 ----------------------------------------------------------------------------
 Normal Eigenvalue ||           Projected Infra Red Intensities
  Mode   [cm**-1]  || [atomic units] [(debye/angs)**2] [(KM/mol)] [arbitrary]
 ------ ---------- || -------------- ----------------- ---------- -----------
    1       -0.000 ||    0.000149           0.003         0.145       0.068
    2       -0.000 ||    0.000023           0.001         0.022       0.011
    3       -0.000 ||    0.000025           0.001         0.024       0.011
    4       -0.000 ||    0.000092           0.002         0.090       0.042
    5       -0.000 ||    0.000211           0.005         0.206       0.097
    6        0.000 ||    0.000000           0.000         0.000       0.000
    7      186.772 ||    0.001782           0.041         1.737       0.816
    8      403.507 ||    0.001435           0.033         1.399       0.658
    9      435.604 ||    0.095508           2.203        93.106      43.760
   10      471.606 ||    0.017893           0.413        17.443       8.198
   11      487.518 ||    0.004641           0.107         4.525       2.127
   12      719.559 ||    0.000359           0.008         0.350       0.164
   13      805.856 ||    0.065389           1.509        63.745      29.960
   14      865.629 ||    0.011422           0.264        11.134       5.233
   15      968.918 ||    0.010860           0.251        10.587       4.976
   16     1014.968 ||    0.032491           0.750        31.674      14.887
   17     1057.424 ||    0.000192           0.004         0.187       0.088
   18     1205.667 ||    0.138926           3.205       135.432      63.654
   19     1348.804 ||    0.010979           0.253        10.703       5.031
   20     1398.718 ||    0.041811           0.965        40.760      19.157
   21     1451.776 ||    0.000695           0.016         0.677       0.318
   22     1462.317 ||    0.007630           0.176         7.438       3.496
   23     1481.281 ||    0.007290           0.168         7.106       3.340
   24     1717.958 ||    0.122147           2.818       119.075      55.966
   25     3070.254 ||    0.014727           0.340        14.357       6.748
   26     3152.846 ||    0.008790           0.203         8.569       4.027
   27     3188.830 ||    0.012619           0.291        12.302       5.782
   28     3191.021 ||    0.001960           0.045         1.911       0.898
   29     3304.073 ||    0.006594           0.152         6.429       3.021
   30     3793.905 ||    0.038115           0.879        37.156      17.464
 ----------------------------------------------------------------------------



 vib:animation  F

 Task  times  cpu:     2194.8s     wall:     2220.5s
 
 
                                NWChem Input Module
                                -------------------
 
 
 Summary of allocated global arrays
-----------------------------------
  No active global arrays



                         GA Statistics for process    0
                         ------------------------------

       create   destroy   get      put      acc     scatter   gather  read&inc
calls: 5.39e+04 5.39e+04 4.60e+06 7.62e+05 1.76e+06    0        0     7.73e+04 
number of processes/call 1.71e+01 4.64e+01 1.89e+01 0.00e+00 0.00e+00
bytes total:             4.53e+09 5.16e+09 1.27e+09 0.00e+00 0.00e+00 6.18e+05
bytes remote:            2.88e+09 3.54e+09 1.01e+09 0.00e+00 0.00e+00 0.00e+00
Max memory consumed for GA by this process: 48830120 bytes
 
MA_summarize_allocated_blocks: starting scan ...
MA_summarize_allocated_blocks: scan completed: 0 heap blocks, 0 stack blocks
MA usage statistics:

	allocation statistics:
					      heap	     stack
					      ----	     -----
	current number of blocks	         0	         0
	maximum number of blocks	        25	        39
	current total bytes		         0	         0
	maximum total bytes		  44503848	  27113160
	maximum total K-bytes		     44504	     27114
	maximum total M-bytes		        45	        28
 
 
                                     CITATION
                                     --------
                Please cite the following reference when publishing
                           results obtained with NWChem:
 
          E. Apr, E. J. Bylaska, W. A. de Jong, N. Govind, K. Kowalski,
       T. P. Straatsma, M. Valiev, H. J. J. van Dam, Y. Alexeev, J. Anchell,
       V. Anisimov, F. W. Aquino, R. Atta-Fynn, J. Autschbach, N. P. Bauman,
     J. C. Becca, D. E. Bernholdt, K. Bhaskaran-Nair, S. Bogatko, P. Borowski,
        J. Boschen, J. Brabec, A. Bruner, E. Caut, Y. Chen, G. N. Chuev,
      C. J. Cramer, J. Daily, M. J. O. Deegan, T. H. Dunning Jr., M. Dupuis,
   K. G. Dyall, G. I. Fann, S. A. Fischer, A. Fonari, H. Frchtl, L. Gagliardi,
      J. Garza, N. Gawande, S. Ghosh, K. Glaesemann, A. W. Gtz, J. Hammond,
       V. Helms, E. D. Hermes, K. Hirao, S. Hirata, M. Jacquelin, L. Jensen,
   B. G. Johnson, H. Jnsson, R. A. Kendall, M. Klemm, R. Kobayashi, V. Konkov,
      S. Krishnamoorthy, M. Krishnan, Z. Lin, R. D. Lins, R. J. Littlefield,
      A. J. Logsdail, K. Lopata, W. Ma, A. V. Marenich, J. Martin del Campo,
   D. Mejia-Rodriguez, J. E. Moore, J. M. Mullin, T. Nakajima, D. R. Nascimento,
    J. A. Nichols, P. J. Nichols, J. Nieplocha, A. Otero-de-la-Roza, B. Palmer,
    A. Panyala, T. Pirojsirikul, B. Peng, R. Peverati, J. Pittner, L. Pollack,
   R. M. Richard, P. Sadayappan, G. C. Schatz, W. A. Shelton, D. W. Silverstein,
   D. M. A. Smith, T. A. Soares, D. Song, M. Swart, H. L. Taylor, G. S. Thomas,
            V. Tipparaju, D. G. Truhlar, K. Tsemekhman, T. Van Voorhis,
     . Vzquez-Mayagoitia, P. Verma, O. Villa, A. Vishnu, K. D. Vogiatzis,
        D. Wang, J. H. Weare, M. J. Williamson, T. L. Windus, K. Woliski,
        A. T. Wong, Q. Wu, C. Yang, Q. Yu, M. Zacharias, Z. Zhang, Y. Zhao,
                                and R. J. Harrison
                        "NWChem: Past, present, and future
                         J. Chem. Phys. 152, 184102 (2020)
                               doi:10.1063/5.0004997
 
                                      AUTHORS
                                      -------
     E. Apra, E. J. Bylaska, N. Govind, K. Kowalski, M. Valiev, W. A. de Jong,
      T. P. Straatsma, H. J. J. van Dam, D. Wang, T. L. Windus, N. P. Bauman,
       A. Panyala, J. Hammond, J. Autschbach, K. Bhaskaran-Nair, J. Brabec,
    K. Lopata, S. A. Fischer, S. Krishnamoorthy, M. Jacquelin, W. Ma, M. Klemm,
       O. Villa, Y. Chen, V. Anisimov, F. Aquino, S. Hirata, M. T. Hackler,
           Eric Hermes, L. Jensen, J. E. Moore, J. C. Becca, V. Konjkov,
            D. Mejia-Rodriguez, T. Risthaus, M. Malagoli, A. Marenich,
   A. Otero-de-la-Roza, J. Mullin, P. Nichols, R. Peverati, J. Pittner, Y. Zhao,
        P.-D. Fan, A. Fonari, M. J. Williamson, R. J. Harrison, J. R. Rehr,
      M. Dupuis, D. Silverstein, D. M. A. Smith, J. Nieplocha, V. Tipparaju,
      M. Krishnan, B. E. Van Kuiken, A. Vazquez-Mayagoitia, M. Swart, Q. Wu,
   T. Van Voorhis, A. A. Auer, M. Nooijen, L. D. Crosby, E. Brown, G. Cisneros,
     G. I. Fann, H. Fruchtl, J. Garza, K. Hirao, R. A. Kendall, J. A. Nichols,
       K. Tsemekhman, K. Wolinski, J. Anchell, D. E. Bernholdt, P. Borowski,
       T. Clark, D. Clerc, H. Dachsel, M. J. O. Deegan, K. Dyall, D. Elwood,
      E. Glendening, M. Gutowski, A. C. Hess, J. Jaffe, B. G. Johnson, J. Ju,
        R. Kobayashi, R. Kutteh, Z. Lin, R. Littlefield, X. Long, B. Meng,
      T. Nakajima, S. Niu, L. Pollack, M. Rosing, K. Glaesemann, G. Sandrone,
      M. Stave, H. Taylor, G. Thomas, J. H. van Lenthe, A. T. Wong, Z. Zhang.

 Total times  cpu:     2651.1s     wall:     2686.6s
