 Entering Gaussian System, Link 0=g16
 Input=3.gjf
 Output=3.log
 Initial command:
 /sw/contrib/gaussian/g16/A03/g16/l1.exe "/gscratch/scrubbed/gds001/Gau-10487.inp" -scrdir="/gscratch/scrubbed/gds001/"
 Entering Link 1 = /sw/contrib/gaussian/g16/A03/g16/l1.exe PID=     10488.
  
 Copyright (c) 1988,1990,1992,1993,1995,1998,2003,2009,2016,
            Gaussian, Inc.  All Rights Reserved.
  
 This is part of the Gaussian(R) 16 program.  It is based on
 the Gaussian(R) 09 system (copyright 2009, Gaussian, Inc.),
 the Gaussian(R) 03 system (copyright 2003, Gaussian, Inc.),
 the Gaussian(R) 98 system (copyright 1998, Gaussian, Inc.),
 the Gaussian(R) 94 system (copyright 1995, Gaussian, Inc.),
 the Gaussian 92(TM) system (copyright 1992, Gaussian, Inc.),
 the Gaussian 90(TM) system (copyright 1990, Gaussian, Inc.),
 the Gaussian 88(TM) system (copyright 1988, Gaussian, Inc.),
 the Gaussian 86(TM) system (copyright 1986, Carnegie Mellon
 University), and the Gaussian 82(TM) system (copyright 1983,
 Carnegie Mellon University). Gaussian is a federally registered
 trademark of Gaussian, Inc.
  
 This software contains proprietary and confidential information,
 including trade secrets, belonging to Gaussian, Inc.
  
 This software is provided under written license and may be
 used, copied, transmitted, or stored only in accord with that
 written license.
  
 The following legend is applicable only to US Government
 contracts under FAR:
  
                    RESTRICTED RIGHTS LEGEND
  
 Use, reproduction and disclosure by the US Government is
 subject to restrictions as set forth in subparagraphs (a)
 and (c) of the Commercial Computer Software - Restricted
 Rights clause in FAR 52.227-19.
  
 Gaussian, Inc.
 340 Quinnipiac St., Bldg. 40, Wallingford CT 06492
  
  
 ---------------------------------------------------------------
 Warning -- This program may not be used in any manner that
 competes with the business of Gaussian, Inc. or will provide
 assistance to any competitor of Gaussian, Inc.  The licensee
 of this program is prohibited from giving any competitor of
 Gaussian, Inc. access to this program.  By using this program,
 the user acknowledges that Gaussian, Inc. is engaged in the
 business of creating and licensing software in the field of
 computational chemistry and represents and warrants to the
 licensee that it is not a competitor of Gaussian, Inc. and that
 it will not use this program in any manner prohibited above.
 ---------------------------------------------------------------
  

 Cite this work as:
 Gaussian 16, Revision A.03,
 M. J. Frisch, G. W. Trucks, H. B. Schlegel, G. E. Scuseria, 
 M. A. Robb, J. R. Cheeseman, G. Scalmani, V. Barone, 
 G. A. Petersson, H. Nakatsuji, X. Li, M. Caricato, A. V. Marenich, 
 J. Bloino, B. G. Janesko, R. Gomperts, B. Mennucci, H. P. Hratchian, 
 J. V. Ortiz, A. F. Izmaylov, J. L. Sonnenberg, D. Williams-Young, 
 F. Ding, F. Lipparini, F. Egidi, J. Goings, B. Peng, A. Petrone, 
 T. Henderson, D. Ranasinghe, V. G. Zakrzewski, J. Gao, N. Rega, 
 G. Zheng, W. Liang, M. Hada, M. Ehara, K. Toyota, R. Fukuda, 
 J. Hasegawa, M. Ishida, T. Nakajima, Y. Honda, O. Kitao, H. Nakai, 
 T. Vreven, K. Throssell, J. A. Montgomery, Jr., J. E. Peralta, 
 F. Ogliaro, M. J. Bearpark, J. J. Heyd, E. N. Brothers, K. N. Kudin, 
 V. N. Staroverov, T. A. Keith, R. Kobayashi, J. Normand, 
 K. Raghavachari, A. P. Rendell, J. C. Burant, S. S. Iyengar, 
 J. Tomasi, M. Cossi, J. M. Millam, M. Klene, C. Adamo, R. Cammi, 
 J. W. Ochterski, R. L. Martin, K. Morokuma, O. Farkas, 
 J. B. Foresman, and D. J. Fox, Gaussian, Inc., Wallingford CT, 2016.
 
 ******************************************
 Gaussian 16:  ES64L-G16RevA.03 25-Dec-2016
                27-Oct-2020 
 ******************************************
 %nprocshared=28
 Will use up to   28 processors via shared memory.
 %mem=41GB
 %chk=3.chk
 -------------------------------------------------------
 # MP2/6-31G** Opt=(Recalc=50) Freq=(vibrot, anharmonic)
 -------------------------------------------------------
 1/10=4,18=20,19=15,38=1,71=50,80=1/1,3;
 2/9=110,12=2,17=6,18=5,40=1/2;
 3/5=1,6=6,7=101,11=9,25=1,30=1,71=2,140=1/1,2,3;
 4//1;
 5/5=2,38=5/2;
 8/6=3,8=1,10=2,19=11,30=-1/1;
 9/15=3,16=-3/6;
 11/6=1,8=1,15=11,17=12,24=-1,27=1,28=-2,29=300,32=6,42=3/1,2,10;
 10/6=2,21=1/2;
 8/6=4,8=1,10=2,19=11,30=-1/11,4;
 10/5=1,20=4/2;
 11/12=2,14=11,16=1,17=2,28=-2,42=3/2,10,12;
 6/7=2,8=2,9=2,10=2/1;
 7/10=1,12=2,25=1,44=2/1,2,3,16;
 1/10=4,18=20,19=15,71=50,80=1/3(3);
 2/9=110/2;
 7/9=1,25=1,44=-1/16;
 99//99;
 2/9=110/2;
 3/5=1,6=6,7=101,11=9,25=1,30=1,71=2,140=1/1,2,3;
 4/5=5,16=3,69=1/1;
 5/5=2,38=5/2;
 8/6=3,8=1,10=2,19=11,30=-1/1;
 9/15=3,16=-3/6;
 11/6=1,8=1,15=11,17=12,24=-1,27=1,28=-2,29=300,32=6,42=3/1,2,10;
 10/6=2,21=1/2;
 8/6=4,8=1,10=2,19=11,30=-1/11,4;
 10/5=1,20=4/2;
 11/12=2,14=11,16=1,17=2,28=-2,42=3/2,10,12;
 7/10=1,12=2,25=1,44=2/1,2,3,16;
 1/18=20,19=15,71=50,80=1/3(-12);
 2/9=110/2;
 6/7=2,8=2,9=2,10=2/1;
 7/9=1,25=1,44=-1/16;
 99//99;
 ------
 H,Me,H
 ------
 Symbolic Z-matrix:
 Charge =  0 Multiplicity = 1
 C                    -1.73625   2.24841   0.00367 
 C                    -2.05982   0.9466    0.00978 
 O                    -0.46606   2.76283  -0.01428 
 C                    -0.99029  -0.08614  -0.00341 
 O                     0.20336   0.19898  -0.02 
 H                    -2.46378   3.05182   0.01251 
 C                    -3.46718   0.44709   0.02958 
 H                     0.16987   2.0112   -0.02193 
 H                    -1.34069  -1.13176   0.0027 
 H                    -4.19172   1.26829   0.03836 
 H                    -3.6439   -0.16319   0.92132 
 H                    -3.66807  -0.16552  -0.85542 
 

 GradGradGradGradGradGradGradGradGradGradGradGradGradGradGradGradGradGrad
 Berny optimization.
 Initialization pass.
                           ----------------------------
                           !    Initial Parameters    !
                           ! (Angstroms and Degrees)  !
 --------------------------                            --------------------------
 ! Name  Definition              Value          Derivative Info.                !
 --------------------------------------------------------------------------------
 ! R1    R(1,2)                  1.3414         calculate D2E/DX2 analytically  !
 ! R2    R(1,3)                  1.3705         calculate D2E/DX2 analytically  !
 ! R3    R(1,6)                  1.0839         calculate D2E/DX2 analytically  !
 ! R4    R(2,4)                  1.4868         calculate D2E/DX2 analytically  !
 ! R5    R(2,7)                  1.4935         calculate D2E/DX2 analytically  !
 ! R6    R(3,8)                  0.9846         calculate D2E/DX2 analytically  !
 ! R7    R(4,5)                  1.2273         calculate D2E/DX2 analytically  !
 ! R8    R(4,9)                  1.1028         calculate D2E/DX2 analytically  !
 ! R9    R(7,10)                 1.0952         calculate D2E/DX2 analytically  !
 ! R10   R(7,11)                 1.0949         calculate D2E/DX2 analytically  !
 ! R11   R(7,12)                 1.0949         calculate D2E/DX2 analytically  !
 ! A1    A(2,1,3)              126.0064         calculate D2E/DX2 analytically  !
 ! A2    A(2,1,6)              123.8756         calculate D2E/DX2 analytically  !
 ! A3    A(3,1,6)              110.118          calculate D2E/DX2 analytically  !
 ! A4    A(1,2,4)              120.0348         calculate D2E/DX2 analytically  !
 ! A5    A(1,2,7)              123.4998         calculate D2E/DX2 analytically  !
 ! A6    A(4,2,7)              116.4654         calculate D2E/DX2 analytically  !
 ! A7    A(1,3,8)              108.1891         calculate D2E/DX2 analytically  !
 ! A8    A(2,4,5)              122.5717         calculate D2E/DX2 analytically  !
 ! A9    A(2,4,9)              115.466          calculate D2E/DX2 analytically  !
 ! A10   A(5,4,9)              121.9622         calculate D2E/DX2 analytically  !
 ! A11   A(2,7,10)             111.8841         calculate D2E/DX2 analytically  !
 ! A12   A(2,7,11)             110.4442         calculate D2E/DX2 analytically  !
 ! A13   A(2,7,12)             110.4442         calculate D2E/DX2 analytically  !
 ! A14   A(10,7,11)            107.7361         calculate D2E/DX2 analytically  !
 ! A15   A(10,7,12)            107.7361         calculate D2E/DX2 analytically  !
 ! A16   A(11,7,12)            108.4711         calculate D2E/DX2 analytically  !
 ! D1    D(3,1,2,4)             -0.0001         calculate D2E/DX2 analytically  !
 ! D2    D(3,1,2,7)            179.9999         calculate D2E/DX2 analytically  !
 ! D3    D(6,1,2,4)            179.9999         calculate D2E/DX2 analytically  !
 ! D4    D(6,1,2,7)             -0.0001         calculate D2E/DX2 analytically  !
 ! D5    D(2,1,3,8)             -0.0005         calculate D2E/DX2 analytically  !
 ! D6    D(6,1,3,8)            179.9995         calculate D2E/DX2 analytically  !
 ! D7    D(1,2,4,5)              0.0013         calculate D2E/DX2 analytically  !
 ! D8    D(1,2,4,9)           -179.9985         calculate D2E/DX2 analytically  !
 ! D9    D(7,2,4,5)           -179.9987         calculate D2E/DX2 analytically  !
 ! D10   D(7,2,4,9)              0.0015         calculate D2E/DX2 analytically  !
 ! D11   D(1,2,7,10)            -0.0001         calculate D2E/DX2 analytically  !
 ! D12   D(1,2,7,11)          -120.0062         calculate D2E/DX2 analytically  !
 ! D13   D(1,2,7,12)           120.0061         calculate D2E/DX2 analytically  !
 ! D14   D(4,2,7,10)           179.9999         calculate D2E/DX2 analytically  !
 ! D15   D(4,2,7,11)            59.9938         calculate D2E/DX2 analytically  !
 ! D16   D(4,2,7,12)           -59.9939         calculate D2E/DX2 analytically  !
 --------------------------------------------------------------------------------
 Trust Radius=3.00D-01 FncErr=1.00D-07 GrdErr=1.00D-07 EigMax=2.50D+02 EigMin=1.00D-04
 Number of steps in this run=     53 maximum allowed number of steps=    100.
 GradGradGradGradGradGradGradGradGradGradGradGradGradGradGradGradGradGrad

                          Input orientation:                          
 ---------------------------------------------------------------------
 Center     Atomic      Atomic             Coordinates (Angstroms)
 Number     Number       Type             X           Y           Z
 ---------------------------------------------------------------------
      1          6           0       -1.736252    2.248405    0.003674
      2          6           0       -2.059819    0.946599    0.009783
      3          8           0       -0.466058    2.762835   -0.014276
      4          6           0       -0.990286   -0.086139   -0.003410
      5          8           0        0.203361    0.198983   -0.019996
      6          1           0       -2.463776    3.051822    0.012514
      7          6           0       -3.467183    0.447085    0.029581
      8          1           0        0.169871    2.011195   -0.021929
      9          1           0       -1.340688   -1.131764    0.002702
     10          1           0       -4.191721    1.268291    0.038361
     11          1           0       -3.643897   -0.163192    0.921321
     12          1           0       -3.668065   -0.165520   -0.855420
 ---------------------------------------------------------------------
                    Distance matrix (angstroms):
                    1          2          3          4          5
     1  C    0.000000
     2  C    1.341429   0.000000
     3  O    1.370530   2.416478   0.000000
     4  C    2.450839   1.486816   2.896824   0.000000
     5  O    2.821841   2.383653   2.649809   1.227341   0.000000
     6  H    1.083904   2.143631   2.018689   3.466732   3.905556
     7  C    2.498309   1.493512   3.790959   2.533857   3.679254
     8  H    1.920997   2.471010   0.984595   2.396898   1.812522
     9  H    3.403236   2.199270   3.991637   1.102792   2.038502
    10  H    2.644080   2.156226   4.014598   3.476408   4.523669
    11  H    3.208891   2.138186   4.419913   2.811176   3.977266
    12  H    3.208891   2.138186   4.419913   2.811178   3.977278
                    6          7          8          9         10
     6  H    0.000000
     7  C    2.791374   0.000000
     8  H    2.831994   3.959451   0.000000
     9  H    4.331722   2.648673   3.487203   0.000000
    10  H    2.483435   1.095176   4.424820   3.726919   0.000000
    11  H    3.543293   1.094927   4.490268   2.662098   1.768862
    12  H    3.543292   1.094927   4.490273   2.662083   1.768862
                   11         12
    11  H    0.000000
    12  H    1.776907   0.000000
 Stoichiometry    C4H6O2
 Framework group  C1[X(C4H6O2)]
 Deg. of freedom    30
 Full point group                 C1      NOp   1
 Largest Abelian subgroup         C1      NOp   1
 Largest concise Abelian subgroup C1      NOp   1
                         Standard orientation:                         
 ---------------------------------------------------------------------
 Center     Atomic      Atomic             Coordinates (Angstroms)
 Number     Number       Type             X           Y           Z
 ---------------------------------------------------------------------
      1          6           0       -0.166910   -1.186293   -0.000001
      2          6           0        0.616410   -0.097329   -0.000002
      3          8           0       -1.537423   -1.192942   -0.000003
      4          6           0        0.006060    1.258435   -0.000009
      5          8           0       -1.208317    1.436351    0.000010
      6          1           0        0.210837   -2.202243    0.000003
      7          6           0        2.108792   -0.155407    0.000004
      8          1           0       -1.849302   -0.259047    0.000002
      9          1           0        0.719293    2.099534   -0.000035
     10          1           0        2.477170   -1.186770    0.000011
     11          1           0        2.510904    0.342412    0.888457
     12          1           0        2.510911    0.342404   -0.888450
 ---------------------------------------------------------------------
 Rotational constants (GHZ):           4.8273207           3.5237041           2.0633445
 Standard basis: 6-31G(d,p) (6D, 7F)
 There are   120 symmetry adapted cartesian basis functions of A   symmetry.
 There are   120 symmetry adapted basis functions of A   symmetry.
   120 basis functions,   210 primitive gaussians,   120 cartesian basis functions
    23 alpha electrons       23 beta electrons
       nuclear repulsion energy       226.4652850770 Hartrees.
 NAtoms=   12 NActive=   12 NUniq=   12 SFac= 1.00D+00 NAtFMM=   60 NAOKFM=F Big=F
 Integral buffers will be    131072 words long.
 Raffenetti 1 integral format.
 Two-electron integral symmetry is turned on.
 One-electron integrals computed using PRISM.
 NBasis=   120 RedAO= T EigKep=  1.77D-03  NBF=   120
 NBsUse=   120 1.00D-06 EigRej= -1.00D+00 NBFU=   120
 ExpMin= 1.61D-01 ExpMax= 5.48D+03 ExpMxC= 8.25D+02 IAcc=3 IRadAn=         5 AccDes= 0.00D+00
 Harris functional with IExCor=  205 and IRadAn=       5 diagonalized for initial guess.
 HarFok:  IExCor=  205 AccDes= 0.00D+00 IRadAn=         5 IDoV= 1 UseB2=F ITyADJ=14
 ICtDFT=  3500011 ScaDFX=  1.000000  1.000000  1.000000  1.000000
 FoFCou: FMM=F IPFlag=           0 FMFlag=      100000 FMFlg1=           0
         NFxFlg=           0 DoJE=T BraDBF=F KetDBF=T FulRan=T
         wScrn=  0.000000 ICntrl=       500 IOpCl=  0 I1Cent=   200000004 NGrid=           0
         NMat0=    1 NMatS0=      1 NMatT0=    0 NMatD0=    1 NMtDS0=    0 NMtDT0=    0
 Petite list used in FoFCou.
 Keep R1 ints in memory in canonical form, NReq=32275772.
 Requested convergence on RMS density matrix=1.00D-08 within 128 cycles.
 Requested convergence on MAX density matrix=1.00D-06.
 Requested convergence on             energy=1.00D-06.
 No special actions if energy rises.
 SCF Done:  E(RHF) =  -304.675617312     A.U. after   14 cycles
            NFock= 14  Conv=0.71D-08     -V/T= 2.0028
 ExpMin= 1.61D-01 ExpMax= 5.48D+03 ExpMxC= 8.25D+02 IAcc=3 IRadAn=         5 AccDes= 0.00D+00
 HarFok:  IExCor=  205 AccDes= 0.00D+00 IRadAn=         5 IDoV=-2 UseB2=F ITyADJ=14
 ICtDFT= 12500011 ScaDFX=  1.000000  1.000000  1.000000  1.000000
 Range of M.O.s used for correlation:     7   120
 NBasis=   120 NAE=    23 NBE=    23 NFC=     6 NFV=     0
 NROrb=    114 NOA=    17 NOB=    17 NVA=    97 NVB=    97
 Disk-based method using ON**2 memory for 17 occupieds at a time.
 Permanent disk used for amplitudes=     6155329 words.
 Estimated scratch disk usage=    55550080 words.
 Actual    scratch disk usage=    52404352 words.
 JobTyp=1 Pass  1:  I=   7 to  23 NPSUse= 28 ParTrn=T ParDer=T DoDerP=T.
 (rs|ai) integrals will be sorted in core.
 Spin components of T(2) and E(2):
     alpha-alpha T2 =       0.3699836286D-01 E2=     -0.1157786537D+00
     alpha-beta  T2 =       0.2113042024D+00 E2=     -0.6719838202D+00
     beta-beta   T2 =       0.3699836286D-01 E2=     -0.1157786537D+00
 ANorm=    0.1133711131D+01
 E2 =    -0.9035411275D+00 EUMP2 =    -0.30557915843995D+03
 G2DrvN: will do    13 centers at a time, making    1 passes.
 Calling FoFCou, ICntrl=  3107 FMM=F I1Cent=   0 AccDes= 0.00D+00.
 End of G2Drv F.D. properties file   721 does not exist.
 End of G2Drv F.D. properties file   722 does not exist.
 End of G2Drv F.D. properties file   788 does not exist.
          IDoAtm=111111111111
          Differentiating once with respect to electric field.
                with respect to dipole field.
          Differentiating once with respect to nuclear coordinates.
 Keep R1 ints in memory in canonical form, NReq=32277242.
          There are    39 degrees of freedom in the 1st order CPHF.  IDoFFX=6 NUNeed=    39.
     36 vectors produced by pass  0 Test12= 5.72D-15 2.56D-09 XBig12= 1.63D+01 2.73D+00.
 AX will form    36 AO Fock derivatives at one time.
     36 vectors produced by pass  1 Test12= 5.72D-15 2.56D-09 XBig12= 9.68D-01 2.07D-01.
     36 vectors produced by pass  2 Test12= 5.72D-15 2.56D-09 XBig12= 3.38D-02 3.98D-02.
     36 vectors produced by pass  3 Test12= 5.72D-15 2.56D-09 XBig12= 4.27D-04 4.53D-03.
     36 vectors produced by pass  4 Test12= 5.72D-15 2.56D-09 XBig12= 3.35D-06 2.62D-04.
     36 vectors produced by pass  5 Test12= 5.72D-15 2.56D-09 XBig12= 1.69D-08 1.78D-05.
     28 vectors produced by pass  6 Test12= 5.72D-15 2.56D-09 XBig12= 6.55D-11 9.73D-07.
      5 vectors produced by pass  7 Test12= 5.72D-15 2.56D-09 XBig12= 2.66D-13 9.24D-08.
      2 vectors produced by pass  8 Test12= 5.72D-15 2.56D-09 XBig12= 1.29D-15 4.98D-09.
 InvSVY:  IOpt=1 It=  1 EMax= 8.88D-16
 Solved reduced A of dimension   251 with    39 vectors.
 End of Minotr F.D. properties file   721 does not exist.
 End of Minotr F.D. properties file   722 does not exist.
 End of Minotr F.D. properties file   788 does not exist.
 MDV=  5502926848.
 Form MO integral derivatives with frozen-active canonical formalism.
 Discarding MO integrals.
 Reordered first order wavefunction length =      9954722
 In DefCFB: NBatch=  1 ICI= 23 ICA= 97 LFMax= 49
            Large arrays: LIAPS=   128505600 LIARS=    28110600 words.
 Semi-Direct transformation.
 ModeAB=           2 MOrb=            23 LenV=    5502455139
 LASXX=     17139439 LTotXX=    17139439 LenRXX=    17139439
 LTotAB=    17585064 MaxLAS=    20037600 LenRXY=    20037600
 NonZer=    34278878 LenScr=    51904512 LnRSAI=           0
 LnScr1=           0 LExtra=           0 Total=     89081551
 MaxDsk=          -1 SrtSym=           F ITran=            4
 JobTyp=0 Pass  1:  I=   1 to  23.
 (rs|ai) integrals will be sorted in core.
 SymMOI:  orbitals are not symmetric.
 Spin components of T(2) and E(2):
     alpha-alpha T2 =       0.3699836286D-01 E2=     -0.1157786537D+00
     alpha-beta  T2 =       0.2113042024D+00 E2=     -0.6719838202D+00
     beta-beta   T2 =       0.3699836286D-01 E2=     -0.1157786537D+00
 ANorm=    0.1603309657D+01
 E2 =    -0.9035411275D+00 EUMP2 =    -0.30557915843995D+03
          IDoAtm=111111111111
          Differentiating once with respect to electric field.
                with respect to dipole field.
          Differentiating once with respect to nuclear coordinates.
          There are     1 degrees of freedom in the 1st order CPHF.  IDoFFX=0 NUNeed=     1.
 LinEq1:  Iter=  0 NonCon=     1 RMS=6.13D-03 Max=1.68D-01 NDo=     1
 LinEq1:  Iter=  1 NonCon=     1 RMS=2.17D-03 Max=3.51D-02 NDo=     1
 LinEq1:  Iter=  2 NonCon=     1 RMS=7.50D-04 Max=1.53D-02 NDo=     1
 LinEq1:  Iter=  3 NonCon=     1 RMS=2.93D-04 Max=4.38D-03 NDo=     1
 LinEq1:  Iter=  4 NonCon=     1 RMS=8.30D-05 Max=1.06D-03 NDo=     1
 LinEq1:  Iter=  5 NonCon=     1 RMS=3.34D-05 Max=5.24D-04 NDo=     1
 LinEq1:  Iter=  6 NonCon=     1 RMS=1.13D-05 Max=3.03D-04 NDo=     1
 LinEq1:  Iter=  7 NonCon=     1 RMS=3.24D-06 Max=3.83D-05 NDo=     1
 LinEq1:  Iter=  8 NonCon=     1 RMS=1.51D-06 Max=3.68D-05 NDo=     1
 LinEq1:  Iter=  9 NonCon=     1 RMS=3.29D-07 Max=3.31D-06 NDo=     1
 LinEq1:  Iter= 10 NonCon=     1 RMS=7.32D-08 Max=9.07D-07 NDo=     1
 LinEq1:  Iter= 11 NonCon=     1 RMS=1.71D-08 Max=1.58D-07 NDo=     1
 LinEq1:  Iter= 12 NonCon=     1 RMS=4.86D-09 Max=4.50D-08 NDo=     1
 LinEq1:  Iter= 13 NonCon=     1 RMS=1.32D-09 Max=9.19D-09 NDo=     1
 LinEq1:  Iter= 14 NonCon=     1 RMS=2.37D-10 Max=1.74D-09 NDo=     1
 LinEq1:  Iter= 15 NonCon=     0 RMS=4.81D-11 Max=6.37D-10 NDo=     1
 Linear equations converged to 1.000D-10 1.000D-09 after    15 iterations.
 End of Minotr F.D. properties file   721 does not exist.
 End of Minotr F.D. properties file   722 does not exist.
 End of Minotr F.D. properties file   788 does not exist.
 Symmetrizing basis deriv contribution to polar:
 IMax=3 JMax=2 DiffMx= 0.00D+00
 G2DrvN: will do    13 centers at a time, making    1 passes.
 Calling FoFCou, ICntrl=  3107 FMM=F I1Cent=   0 AccDes= 0.00D+00.
 End of G2Drv F.D. properties file   721 does not exist.
 End of G2Drv F.D. properties file   722 does not exist.
 End of G2Drv F.D. properties file   788 does not exist.
 R2 and R3 integrals will be kept in memory, NReq=    53600580.
 DD1Dir will call FoFMem   1 times, MxPair=       552
 NAB=   276 NAA=     0 NBB=     0.
 Discarding MO integrals.

 **********************************************************************

            Population analysis using the SCF density.

 **********************************************************************

 Orbital symmetries:
       Occupied  (A) (A) (A) (A) (A) (A) (A) (A) (A) (A) (A) (A)
                 (A) (A) (A) (A) (A) (A) (A) (A) (A) (A) (A)
       Virtual   (A) (A) (A) (A) (A) (A) (A) (A) (A) (A) (A) (A)
                 (A) (A) (A) (A) (A) (A) (A) (A) (A) (A) (A) (A)
                 (A) (A) (A) (A) (A) (A) (A) (A) (A) (A) (A) (A)
                 (A) (A) (A) (A) (A) (A) (A) (A) (A) (A) (A) (A)
                 (A) (A) (A) (A) (A) (A) (A) (A) (A) (A) (A) (A)
                 (A) (A) (A) (A) (A) (A) (A) (A) (A) (A) (A) (A)
                 (A) (A) (A) (A) (A) (A) (A) (A) (A) (A) (A) (A)
                 (A) (A) (A) (A) (A) (A) (A) (A) (A) (A) (A) (A)
                 (A)
 The electronic state is 1-A.
 Alpha  occ. eigenvalues --  -20.59265 -20.57299 -11.35021 -11.32789 -11.24200
 Alpha  occ. eigenvalues --  -11.23863  -1.40709  -1.38047  -1.09622  -0.94304
 Alpha  occ. eigenvalues --   -0.88860  -0.80450  -0.68400  -0.66397  -0.63404
 Alpha  occ. eigenvalues --   -0.60389  -0.60013  -0.56174  -0.55648  -0.53383
 Alpha  occ. eigenvalues --   -0.53067  -0.42881  -0.34790
 Alpha virt. eigenvalues --    0.09729   0.22957   0.23937   0.26522   0.28368
 Alpha virt. eigenvalues --    0.30194   0.31750   0.33942   0.40431   0.42742
 Alpha virt. eigenvalues --    0.45954   0.56048   0.60363   0.70640   0.73258
 Alpha virt. eigenvalues --    0.73802   0.77799   0.79064   0.82015   0.83670
 Alpha virt. eigenvalues --    0.90796   0.92879   0.95164   0.99625   1.00780
 Alpha virt. eigenvalues --    1.03527   1.07130   1.10122   1.10610   1.13815
 Alpha virt. eigenvalues --    1.18232   1.19864   1.21908   1.28566   1.29853
 Alpha virt. eigenvalues --    1.33629   1.35371   1.42288   1.46170   1.49789
 Alpha virt. eigenvalues --    1.52313   1.55755   1.65229   1.70048   1.72584
 Alpha virt. eigenvalues --    1.80216   1.86233   1.88815   1.97944   1.99148
 Alpha virt. eigenvalues --    2.01928   2.07731   2.08858   2.10029   2.13503
 Alpha virt. eigenvalues --    2.20234   2.28245   2.30593   2.33225   2.34607
 Alpha virt. eigenvalues --    2.38073   2.39724   2.43075   2.46425   2.53533
 Alpha virt. eigenvalues --    2.61285   2.67383   2.69230   2.74227   2.75134
 Alpha virt. eigenvalues --    2.80802   2.87257   2.89175   2.94151   2.94249
 Alpha virt. eigenvalues --    3.00501   3.03184   3.05074   3.14934   3.19187
 Alpha virt. eigenvalues --    3.21048   3.24016   3.33689   3.40886   3.52749
 Alpha virt. eigenvalues --    3.54268   3.70457   3.78464   3.80717   3.88921
 Alpha virt. eigenvalues --    3.99611   4.36960   4.45138   4.56803   4.72371
 Alpha virt. eigenvalues --    4.87672   5.04162
          Condensed to atoms (all electrons):
               1          2          3          4          5          6
     1  C    4.471590   0.606229   0.301058  -0.037930  -0.001289   0.419865
     2  C    0.606229   5.387989  -0.050836   0.369149  -0.076619  -0.055725
     3  O    0.301058  -0.050836   8.158024  -0.004151  -0.022290  -0.034857
     4  C   -0.037930   0.369149  -0.004151   4.378527   0.502535   0.001355
     5  O   -0.001289  -0.076619  -0.022290   0.502535   8.185759  -0.000104
     6  H    0.419865  -0.055725  -0.034857   0.001355  -0.000104   0.496615
     7  C   -0.031784   0.292896   0.002029  -0.037470   0.002234   0.000550
     8  H   -0.027377  -0.006105   0.303295  -0.005150   0.038156   0.003368
     9  H    0.002298  -0.096711  -0.000188   0.414200  -0.035770  -0.000094
    10  H   -0.001985  -0.040788   0.000023   0.002555  -0.000044   0.001441
    11  H   -0.000498  -0.048515  -0.000021  -0.002856   0.000037   0.000001
    12  H   -0.000498  -0.048515  -0.000021  -0.002856   0.000037   0.000001
               7          8          9         10         11         12
     1  C   -0.031784  -0.027377   0.002298  -0.001985  -0.000498  -0.000498
     2  C    0.292896  -0.006105  -0.096711  -0.040788  -0.048515  -0.048515
     3  O    0.002029   0.303295  -0.000188   0.000023  -0.000021  -0.000021
     4  C   -0.037470  -0.005150   0.414200   0.002555  -0.002856  -0.002856
     5  O    0.002234   0.038156  -0.035770  -0.000044   0.000037   0.000037
     6  H    0.000550   0.003368  -0.000094   0.001441   0.000001   0.000001
     7  C    4.891828   0.000134   0.005516   0.408765   0.405667   0.405667
     8  H    0.000134   0.277402   0.000687   0.000003   0.000001   0.000001
     9  H    0.005516   0.000687   0.575794  -0.000147   0.000724   0.000724
    10  H    0.408765   0.000003  -0.000147   0.551541  -0.025344  -0.025344
    11  H    0.405667   0.000001   0.000724  -0.025344   0.579262  -0.036118
    12  H    0.405667   0.000001   0.000724  -0.025344  -0.036118   0.579263
 Mulliken charges:
               1
     1  C    0.300321
     2  C   -0.232447
     3  O   -0.652064
     4  C    0.422090
     5  O   -0.592643
     6  H    0.167584
     7  C   -0.346032
     8  H    0.415584
     9  H    0.132969
    10  H    0.129323
    11  H    0.127658
    12  H    0.127658
 Sum of Mulliken charges =  -0.00000
 Mulliken charges with hydrogens summed into heavy atoms:
               1
     1  C    0.467904
     2  C   -0.232447
     3  O   -0.236480
     4  C    0.555059
     5  O   -0.592643
     7  C    0.038608
 APT charges:
               1
     1  C    0.567470
     2  C   -0.470156
     3  O   -0.682006
     4  C    0.770993
     5  O   -0.585882
     6  H    0.035936
     7  C    0.122212
     8  H    0.346509
     9  H   -0.057636
    10  H   -0.004008
    11  H   -0.021717
    12  H   -0.021717
 Sum of APT charges =  -0.00000
 APT charges with hydrogens summed into heavy atoms:
               1
     1  C    0.603406
     2  C   -0.470156
     3  O   -0.335497
     4  C    0.713357
     5  O   -0.585882
     7  C    0.074771
 Electronic spatial extent (au):  <R**2>=            585.2940
 Charge=             -0.0000 electrons
 Dipole moment (field-independent basis, Debye):
    X=              3.3461    Y=             -0.2807    Z=             -0.0000  Tot=              3.3579
 Quadrupole moment (field-independent basis, Debye-Ang):
   XX=            -37.8832   YY=            -35.6868   ZZ=            -36.2746
   XY=              0.7583   XZ=              0.0000   YZ=             -0.0001
 Traceless Quadrupole moment (field-independent basis, Debye-Ang):
   XX=             -1.2683   YY=              0.9280   ZZ=              0.3403
   XY=              0.7583   XZ=              0.0000   YZ=             -0.0001
 Octapole moment (field-independent basis, Debye-Ang**2):
  XXX=             -8.0677  YYY=             -5.1966  ZZZ=              0.0000  XYY=             11.0632
  XXY=              1.4191  XXZ=              0.0000  XZZ=             -3.4033  YZZ=              1.8266
  YYZ=             -0.0001  XYZ=              0.0000
 Hexadecapole moment (field-independent basis, Debye-Ang**3):
 XXXX=           -405.5999 YYYY=           -270.9901 ZZZZ=            -40.2265 XXXY=             -4.4268
 XXXZ=             -0.0001 YYYX=              3.8901 YYYZ=             -0.0002 ZZZX=             -0.0000
 ZZZY=              0.0000 XXYY=           -131.7315 XXZZ=            -74.1372 YYZZ=            -54.5351
 XXYZ=             -0.0001 YYXZ=              0.0000 ZZXY=              1.3576
 N-N= 2.264652850770D+02 E-N=-1.168120021151D+03  KE= 3.038177204437D+02
  Exact polarizability:  56.804   4.105  58.027  -0.000  -0.000  25.791
 Approx polarizability:  47.837   3.974  48.300  -0.000  -0.000  26.376
 Calling FoFJK, ICntrl=  10100127 FMM=F ISym2X=0 I1Cent= 0 IOpClX= 0 NMat=1 NMatS=1 NMatT=0.
 ***** Axes restored to original set *****
 -------------------------------------------------------------------
 Center     Atomic                   Forces (Hartrees/Bohr)
 Number     Number              X              Y              Z
 -------------------------------------------------------------------
      1        6           0.029866623    0.024689652   -0.000438365
      2        6           0.007447903   -0.031200974   -0.000060370
      3        8          -0.015820774   -0.006707121    0.000224057
      4        6          -0.028308180    0.021814929    0.000356154
      5        8           0.021365441   -0.004164584   -0.000285222
      6        1          -0.002028120   -0.002322830    0.000030497
      7        6          -0.007836096    0.000747543    0.000105539
      8        1          -0.007884616   -0.000644545    0.000108093
      9        1           0.003205056   -0.000949669   -0.000042028
     10        1           0.003133070   -0.002813184   -0.000038967
     11        1          -0.001615866    0.000771015   -0.003340359
     12        1          -0.001524441    0.000779769    0.003380971
 -------------------------------------------------------------------
 Cartesian Forces:  Max     0.031200974 RMS     0.011509761
 FormGI is forming the generalized inverse of G from B-inverse, IUseBI=4.

 GradGradGradGradGradGradGradGradGradGradGradGradGradGradGradGradGradGrad
 Berny optimization.
 Internal  Forces:  Max     0.024733729 RMS     0.006967449
 Search for a local minimum.
 Step number   1 out of a maximum of   53
 All quantities printed in internal units (Hartrees-Bohrs-Radians)
 Mixed Optimization -- RFO/linear search
 Second derivative matrix not updated -- analytic derivatives used.
 ITU=  0
     Eigenvalues ---    0.00114   0.00813   0.01133   0.02104   0.03577
     Eigenvalues ---    0.06050   0.06308   0.06631   0.08910   0.12384
     Eigenvalues ---    0.13222   0.13939   0.14658   0.16002   0.17916
     Eigenvalues ---    0.19673   0.20392   0.22994   0.30541   0.32344
     Eigenvalues ---    0.34708   0.34873   0.35064   0.35802   0.36889
     Eigenvalues ---    0.37919   0.48406   0.52293   0.72754   0.83973
 RFO step:  Lambda=-7.29149222D-03 EMin= 1.13620624D-03
 Linear search not attempted -- first point.
 Iteration  1 RMS(Cart)=  0.05011949 RMS(Int)=  0.00099852
 Iteration  2 RMS(Cart)=  0.00121097 RMS(Int)=  0.00006949
 Iteration  3 RMS(Cart)=  0.00000048 RMS(Int)=  0.00006949
 Variable       Old X    -DE/DX   Delta X   Delta X   Delta X     New X
                                 (Linear)    (Quad)   (Total)
    R1        2.53493   0.01557   0.00000   0.04203   0.04203   2.57697
    R2        2.58993  -0.02473   0.00000  -0.07678  -0.07678   2.51314
    R3        2.04828  -0.00036   0.00000   0.00174   0.00174   2.05003
    R4        2.80968  -0.01429   0.00000  -0.08104  -0.08104   2.72863
    R5        2.82233   0.00756   0.00000   0.01765   0.01765   2.83998
    R6        1.86062  -0.00460   0.00000   0.00921   0.00921   1.86983
    R7        2.31934   0.01982   0.00000   0.03697   0.03697   2.35631
    R8        2.08397  -0.00012   0.00000  -0.00224  -0.00224   2.08173
    R9        2.06958  -0.00418   0.00000  -0.01146  -0.01146   2.05812
   R10        2.06911  -0.00289   0.00000  -0.00838  -0.00838   2.06073
   R11        2.06911  -0.00289   0.00000  -0.00838  -0.00838   2.06073
    A1        2.19923  -0.00229   0.00000  -0.01384  -0.01384   2.18539
    A2        2.16204  -0.00199   0.00000  -0.03380  -0.03380   2.12823
    A3        1.92192   0.00428   0.00000   0.04764   0.04764   1.96956
    A4        2.09500  -0.00460   0.00000  -0.03047  -0.03047   2.06453
    A5        2.15548  -0.00331   0.00000  -0.02695  -0.02695   2.12853
    A6        2.03270   0.00791   0.00000   0.05742   0.05742   2.09012
    A7        1.88826  -0.01197   0.00000  -0.04948  -0.04948   1.83878
    A8        2.13928   0.01162   0.00000   0.03460   0.03460   2.17388
    A9        2.01526  -0.00233   0.00000   0.02098   0.02098   2.03624
   A10        2.12864  -0.00929   0.00000  -0.05558  -0.05558   2.07306
   A11        1.95275  -0.00187   0.00000  -0.02204  -0.02193   1.93082
   A12        1.92761   0.00304   0.00000   0.02031   0.02022   1.94784
   A13        1.92762   0.00304   0.00000   0.02031   0.02022   1.94784
   A14        1.88035  -0.00082   0.00000  -0.00319  -0.00309   1.87726
   A15        1.88035  -0.00082   0.00000  -0.00319  -0.00309   1.87726
   A16        1.89318  -0.00279   0.00000  -0.01327  -0.01354   1.87964
    D1       -0.00000  -0.00000   0.00000  -0.00000  -0.00000  -0.00000
    D2        3.14159  -0.00000   0.00000  -0.00000  -0.00000   3.14159
    D3        3.14159  -0.00000   0.00000  -0.00000  -0.00000   3.14159
    D4       -0.00000  -0.00000   0.00000  -0.00000  -0.00000  -0.00000
    D5       -0.00001  -0.00000   0.00000   0.00001   0.00001  -0.00000
    D6        3.14158  -0.00000   0.00000   0.00001   0.00001   3.14159
    D7        0.00002  -0.00000   0.00000  -0.00002  -0.00002   0.00001
    D8       -3.14157  -0.00000   0.00000  -0.00002  -0.00002  -3.14158
    D9       -3.14157  -0.00000   0.00000  -0.00002  -0.00002  -3.14159
   D10        0.00003  -0.00000   0.00000  -0.00002  -0.00002   0.00001
   D11       -0.00000   0.00000   0.00000   0.00000   0.00000  -0.00000
   D12       -2.09450   0.00022   0.00000   0.00484   0.00499  -2.08952
   D13        2.09450  -0.00022   0.00000  -0.00484  -0.00499   2.08952
   D14        3.14159   0.00000   0.00000   0.00000   0.00000   3.14159
   D15        1.04709   0.00022   0.00000   0.00484   0.00499   1.05208
   D16       -1.04709  -0.00022   0.00000  -0.00484  -0.00498  -1.05208
         Item               Value     Threshold  Converged?
 Maximum Force            0.024734     0.000450     NO 
 RMS     Force            0.006967     0.000300     NO 
 Maximum Displacement     0.140600     0.001800     NO 
 RMS     Displacement     0.049752     0.001200     NO 
 Predicted change in Energy=-3.768255D-03
 GradGradGradGradGradGradGradGradGradGradGradGradGradGradGradGradGradGrad

                          Input orientation:                          
 ---------------------------------------------------------------------
 Center     Atomic      Atomic             Coordinates (Angstroms)
 Number     Number       Type             X           Y           Z
 ---------------------------------------------------------------------
      1          6           0       -1.720824    2.244483    0.003472
      2          6           0       -2.046486    0.920281    0.009637
      3          8           0       -0.482694    2.729619   -0.014001
      4          6           0       -0.975337   -0.047913   -0.003663
      5          8           0        0.237817    0.239741   -0.020535
      6          1           0       -2.477648    3.021645    0.012744
      7          6           0       -3.474527    0.452457    0.029672
      8          1           0        0.109275    1.936793   -0.021008
      9          1           0       -1.268567   -1.109761    0.001709
     10          1           0       -4.156397    1.301663    0.037834
     11          1           0       -3.687586   -0.149050    0.913961
     12          1           0       -3.711536   -0.151357   -0.846916
 ---------------------------------------------------------------------
                    Distance matrix (angstroms):
                    1          2          3          4          5
     1  C    0.000000
     2  C    1.363673   0.000000
     3  O    1.329898   2.391592   0.000000
     4  C    2.410576   1.443931   2.820902   0.000000
     5  O    2.802827   2.383713   2.592040   1.246906   0.000000
     6  H    1.084827   2.145143   2.016391   3.417512   3.887653
     7  C    2.507491   1.502850   3.760111   2.549005   3.718772
     8  H    1.855946   2.383599   0.989470   2.261801   1.701913
     9  H    3.384596   2.174003   3.919016   1.101605   2.022584
    10  H    2.611916   2.144288   3.941807   3.455752   4.521085
    11  H    3.228954   2.157424   4.406720   2.865058   4.053793
    12  H    3.228954   2.157425   4.406721   2.865059   4.053796
                    6          7          8          9         10
     6  H    0.000000
     7  C    2.755862   0.000000
     8  H    2.805390   3.879363   0.000000
     9  H    4.304708   2.703251   3.343719   0.000000
    10  H    2.403574   1.089111   4.313098   3.762424   0.000000
    11  H    3.511331   1.090492   4.431824   2.758047   1.758394
    12  H    3.511329   1.090492   4.431828   2.758043   1.758394
                   11         12
    11  H    0.000000
    12  H    1.761041   0.000000
 Stoichiometry    C4H6O2
 Framework group  C1[X(C4H6O2)]
 Deg. of freedom    30
 Full point group                 C1      NOp   1
 Largest Abelian subgroup         C1      NOp   1
 Largest concise Abelian subgroup C1      NOp   1
                         Standard orientation:                         
 ---------------------------------------------------------------------
 Center     Atomic      Atomic             Coordinates (Angstroms)
 Number     Number       Type             X           Y           Z
 ---------------------------------------------------------------------
      1          6           0       -0.112595   -1.184238   -0.000001
      2          6           0        0.623595   -0.036357   -0.000000
      3          8           0       -1.441187   -1.243166   -0.000000
      4          6           0       -0.077254    1.226080   -0.000002
      5          8           0       -1.318383    1.345963    0.000002
      6          1           0        0.352508   -2.164303   -0.000003
      7          6           0        2.126327   -0.055194    0.000001
      8          1           0       -1.745205   -0.301559    0.000004
      9          1           0        0.543450    2.136168   -0.000009
     10          1           0        2.497209   -1.079210    0.000003
     11          1           0        2.534081    0.442393    0.880522
     12          1           0        2.534083    0.442391   -0.880519
 ---------------------------------------------------------------------
 Rotational constants (GHZ):           4.9962340           3.5109781           2.0886108
 Standard basis: 6-31G(d,p) (6D, 7F)
 There are   120 symmetry adapted cartesian basis functions of A   symmetry.
 There are   120 symmetry adapted basis functions of A   symmetry.
   120 basis functions,   210 primitive gaussians,   120 cartesian basis functions
    23 alpha electrons       23 beta electrons
       nuclear repulsion energy       227.8947260133 Hartrees.
 NAtoms=   12 NActive=   12 NUniq=   12 SFac= 1.00D+00 NAtFMM=   60 NAOKFM=F Big=F
 Integral buffers will be    131072 words long.
 Raffenetti 1 integral format.
 Two-electron integral symmetry is turned on.
 One-electron integrals computed using PRISM.
 NBasis=   120 RedAO= T EigKep=  1.77D-03  NBF=   120
 NBsUse=   120 1.00D-06 EigRej= -1.00D+00 NBFU=   120
 Initial guess from the checkpoint file:  "3.chk"
 B after Tr=     0.000000   -0.000000   -0.000000
         Rot=    0.999604   -0.000000   -0.000000   -0.028141 Ang=  -3.23 deg.
 ExpMin= 1.61D-01 ExpMax= 5.48D+03 ExpMxC= 8.25D+02 IAcc=2 IRadAn=         4 AccDes= 0.00D+00
 Harris functional with IExCor=  205 and IRadAn=       4 diagonalized for initial guess.
 HarFok:  IExCor=  205 AccDes= 0.00D+00 IRadAn=         4 IDoV= 1 UseB2=F ITyADJ=14
 ICtDFT=  3500011 ScaDFX=  1.000000  1.000000  1.000000  1.000000
 FoFCou: FMM=F IPFlag=           0 FMFlag=      100000 FMFlg1=           0
         NFxFlg=           0 DoJE=T BraDBF=F KetDBF=T FulRan=T
         wScrn=  0.000000 ICntrl=       500 IOpCl=  0 I1Cent=   200000004 NGrid=           0
         NMat0=    1 NMatS0=      1 NMatT0=    0 NMatD0=    1 NMtDS0=    0 NMtDT0=    0
 Petite list used in FoFCou.
 Keep R1 ints in memory in canonical form, NReq=32276291.
 Requested convergence on RMS density matrix=1.00D-08 within 128 cycles.
 Requested convergence on MAX density matrix=1.00D-06.
 Requested convergence on             energy=1.00D-06.
 No special actions if energy rises.
 SCF Done:  E(RHF) =  -304.677089163     A.U. after   13 cycles
            NFock= 13  Conv=0.37D-08     -V/T= 2.0026
 ExpMin= 1.61D-01 ExpMax= 5.48D+03 ExpMxC= 8.25D+02 IAcc=3 IRadAn=         5 AccDes= 0.00D+00
 HarFok:  IExCor=  205 AccDes= 0.00D+00 IRadAn=         5 IDoV=-2 UseB2=F ITyADJ=14
 ICtDFT= 12500011 ScaDFX=  1.000000  1.000000  1.000000  1.000000
 Range of M.O.s used for correlation:     7   120
 NBasis=   120 NAE=    23 NBE=    23 NFC=     6 NFV=     0
 NROrb=    114 NOA=    17 NOB=    17 NVA=    97 NVB=    97
 Fully direct method using O(ONN) memory.
 JobTyp=1 Pass  1:  I=   7 to  23 NPSUse= 28 ParTrn=T ParDer=T DoDerP=T.
 Spin components of T(2) and E(2):
     alpha-alpha T2 =       0.3735042436D-01 E2=     -0.1166181358D+00
     alpha-beta  T2 =       0.2112073821D+00 E2=     -0.6724642520D+00
     beta-beta   T2 =       0.3735042436D-01 E2=     -0.1166181358D+00
 ANorm=    0.1133978938D+01
 E2 =    -0.9057005236D+00 EUMP2 =    -0.30558278968657D+03
          IDoAtm=111111111111
          Differentiating once with respect to electric field.
                with respect to dipole field.
          Differentiating once with respect to nuclear coordinates.
 Keep R1 ints in memory in canonical form, NReq=32281417.
          There are     1 degrees of freedom in the 1st order CPHF.  IDoFFX=0 NUNeed=     1.
 LinEq1:  Iter=  0 NonCon=     1 RMS=6.39D-03 Max=1.74D-01 NDo=     1
 AX will form     1 AO Fock derivatives at one time.
 LinEq1:  Iter=  1 NonCon=     1 RMS=2.24D-03 Max=3.95D-02 NDo=     1
 LinEq1:  Iter=  2 NonCon=     1 RMS=8.02D-04 Max=1.68D-02 NDo=     1
 LinEq1:  Iter=  3 NonCon=     1 RMS=3.16D-04 Max=4.59D-03 NDo=     1
 LinEq1:  Iter=  4 NonCon=     1 RMS=9.18D-05 Max=1.15D-03 NDo=     1
 LinEq1:  Iter=  5 NonCon=     1 RMS=3.94D-05 Max=8.42D-04 NDo=     1
 LinEq1:  Iter=  6 NonCon=     1 RMS=1.39D-05 Max=3.70D-04 NDo=     1
 LinEq1:  Iter=  7 NonCon=     1 RMS=3.93D-06 Max=4.22D-05 NDo=     1
 LinEq1:  Iter=  8 NonCon=     1 RMS=1.74D-06 Max=3.81D-05 NDo=     1
 LinEq1:  Iter=  9 NonCon=     1 RMS=3.83D-07 Max=4.62D-06 NDo=     1
 LinEq1:  Iter= 10 NonCon=     1 RMS=8.99D-08 Max=9.53D-07 NDo=     1
 LinEq1:  Iter= 11 NonCon=     1 RMS=2.63D-08 Max=3.41D-07 NDo=     1
 LinEq1:  Iter= 12 NonCon=     1 RMS=7.15D-09 Max=6.62D-08 NDo=     1
 LinEq1:  Iter= 13 NonCon=     1 RMS=1.69D-09 Max=1.61D-08 NDo=     1
 LinEq1:  Iter= 14 NonCon=     1 RMS=2.94D-10 Max=2.08D-09 NDo=     1
 LinEq1:  Iter= 15 NonCon=     0 RMS=7.64D-11 Max=6.61D-10 NDo=     1
 Linear equations converged to 1.000D-10 1.000D-09 after    15 iterations.
 End of Minotr F.D. properties file   721 does not exist.
 End of Minotr F.D. properties file   722 does not exist.
 End of Minotr F.D. properties file   788 does not exist.
 Symmetrizing basis deriv contribution to polar:
 IMax=3 JMax=2 DiffMx= 0.00D+00
 Calling FoFJK, ICntrl=  10002127 FMM=F ISym2X=0 I1Cent= 0 IOpClX= 0 NMat=1 NMatS=1 NMatT=0.
 ***** Axes restored to original set *****
 -------------------------------------------------------------------
 Center     Atomic                   Forces (Hartrees/Bohr)
 Number     Number              X              Y              Z
 -------------------------------------------------------------------
      1        6          -0.002164459    0.001221384    0.000027896
      2        6          -0.002069203   -0.001127003    0.000029667
      3        8           0.001363613    0.002069158   -0.000021202
      4        6          -0.000815488   -0.001709542    0.000013216
      5        8           0.002069179    0.000908256   -0.000029317
      6        1          -0.000214104   -0.000020449    0.000002943
      7        6          -0.000229364    0.000109894    0.000002898
      8        1           0.002088016   -0.001406350   -0.000026650
      9        1           0.000178535   -0.000061750   -0.000002240
     10        1           0.000002525   -0.000006203   -0.000000034
     11        1          -0.000105156    0.000011254   -0.000036958
     12        1          -0.000104096    0.000011352    0.000039781
 -------------------------------------------------------------------
 Cartesian Forces:  Max     0.002164459 RMS     0.000958536

 GradGradGradGradGradGradGradGradGradGradGradGradGradGradGradGradGradGrad
 Berny optimization.
 Using GEDIIS/GDIIS optimizer.
 FormGI is forming the generalized inverse of G from B-inverse, IUseBI=4.
 Internal  Forces:  Max     0.003455870 RMS     0.000910593
 Search for a local minimum.
 Step number   2 out of a maximum of   53
 All quantities printed in internal units (Hartrees-Bohrs-Radians)
 Mixed Optimization -- En-DIIS/RFO-DIIS
 Update second derivatives using D2CorX and points    1    2
 DE= -3.63D-03 DEPred=-3.77D-03 R= 9.64D-01
 TightC=F SS=  1.41D+00  RLast= 1.83D-01 DXNew= 5.0454D-01 5.4994D-01
 Trust test= 9.64D-01 RLast= 1.83D-01 DXMaxT set to 5.05D-01
 ITU=  1  0
 Use linear search instead of GDIIS.
     Eigenvalues ---    0.00114   0.00813   0.01132   0.02104   0.03576
     Eigenvalues ---    0.06050   0.06306   0.06631   0.08909   0.12439
     Eigenvalues ---    0.13222   0.13869   0.14655   0.16001   0.17914
     Eigenvalues ---    0.19699   0.20469   0.23311   0.31196   0.32283
     Eigenvalues ---    0.34708   0.34812   0.35047   0.35704   0.36790
     Eigenvalues ---    0.37878   0.49250   0.53910   0.72578   0.82746
 RFO step:  Lambda=-6.83648826D-05 EMin= 1.13620383D-03
 Quartic linear search produced a step of -0.02347.
 Iteration  1 RMS(Cart)=  0.00493417 RMS(Int)=  0.00000874
 Iteration  2 RMS(Cart)=  0.00001046 RMS(Int)=  0.00000127
 Iteration  3 RMS(Cart)=  0.00000000 RMS(Int)=  0.00000127
 Variable       Old X    -DE/DX   Delta X   Delta X   Delta X     New X
                                 (Linear)    (Quad)   (Total)
    R1        2.57697   0.00207  -0.00099   0.00464   0.00365   2.58062
    R2        2.51314   0.00346   0.00180   0.00441   0.00621   2.51935
    R3        2.05003   0.00013  -0.00004   0.00023   0.00019   2.05021
    R4        2.72863   0.00164   0.00190   0.00283   0.00473   2.73337
    R5        2.83998   0.00038  -0.00041   0.00090   0.00049   2.84046
    R6        1.86983   0.00238  -0.00022   0.00484   0.00463   1.87445
    R7        2.35631   0.00222  -0.00087   0.00366   0.00279   2.35910
    R8        2.08173   0.00001   0.00005  -0.00048  -0.00043   2.08130
    R9        2.05812  -0.00001   0.00027  -0.00036  -0.00009   2.05803
   R10        2.06073  -0.00002   0.00020  -0.00032  -0.00012   2.06061
   R11        2.06073  -0.00002   0.00020  -0.00032  -0.00012   2.06061
    A1        2.18539   0.00008   0.00032   0.00062   0.00094   2.18633
    A2        2.12823  -0.00021   0.00079  -0.00171  -0.00092   2.12732
    A3        1.96956   0.00013  -0.00112   0.00109  -0.00003   1.96953
    A4        2.06453  -0.00116   0.00072  -0.00453  -0.00381   2.06072
    A5        2.12853   0.00009   0.00063  -0.00207  -0.00144   2.12709
    A6        2.09012   0.00106  -0.00135   0.00660   0.00525   2.09537
    A7        1.83878   0.00156   0.00116   0.00178   0.00294   1.84172
    A8        2.17388  -0.00077  -0.00081  -0.00108  -0.00189   2.17199
    A9        2.03624   0.00058  -0.00049   0.00355   0.00305   2.03929
   A10        2.07306   0.00019   0.00130  -0.00247  -0.00116   2.07190
   A11        1.93082  -0.00006   0.00051  -0.00194  -0.00142   1.92939
   A12        1.94784   0.00014  -0.00047   0.00175   0.00128   1.94912
   A13        1.94784   0.00014  -0.00047   0.00175   0.00128   1.94912
   A14        1.87726  -0.00006   0.00007  -0.00049  -0.00042   1.87684
   A15        1.87726  -0.00006   0.00007  -0.00049  -0.00042   1.87684
   A16        1.87964  -0.00010   0.00032  -0.00070  -0.00038   1.87926
    D1       -0.00000   0.00000   0.00000   0.00000   0.00000   0.00000
    D2        3.14159   0.00000   0.00000   0.00000   0.00000  -3.14159
    D3        3.14159   0.00000   0.00000   0.00000   0.00000  -3.14159
    D4       -0.00000   0.00000   0.00000   0.00000   0.00000  -0.00000
    D5       -0.00000   0.00000  -0.00000   0.00000   0.00000   0.00000
    D6        3.14159   0.00000  -0.00000   0.00000   0.00000  -3.14159
    D7        0.00001   0.00000   0.00000  -0.00001  -0.00001  -0.00000
    D8       -3.14158  -0.00000   0.00000  -0.00001  -0.00001   3.14159
    D9       -3.14159   0.00000   0.00000  -0.00001  -0.00001   3.14159
   D10        0.00001  -0.00000   0.00000  -0.00001  -0.00001  -0.00000
   D11       -0.00000   0.00000  -0.00000   0.00000   0.00000  -0.00000
   D12       -2.08952   0.00003  -0.00012   0.00077   0.00065  -2.08887
   D13        2.08952  -0.00003   0.00012  -0.00077  -0.00065   2.08887
   D14        3.14159   0.00000  -0.00000  -0.00000  -0.00000   3.14159
   D15        1.05208   0.00003  -0.00012   0.00077   0.00065   1.05272
   D16       -1.05208  -0.00003   0.00012  -0.00077  -0.00065  -1.05272
         Item               Value     Threshold  Converged?
 Maximum Force            0.003456     0.000450     NO 
 RMS     Force            0.000911     0.000300     NO 
 Maximum Displacement     0.016923     0.001800     NO 
 RMS     Displacement     0.004936     0.001200     NO 
 Predicted change in Energy=-3.626598D-05
 GradGradGradGradGradGradGradGradGradGradGradGradGradGradGradGradGradGrad

                          Input orientation:                          
 ---------------------------------------------------------------------
 Center     Atomic      Atomic             Coordinates (Angstroms)
 Number     Number       Type             X           Y           Z
 ---------------------------------------------------------------------
      1          6           0       -1.721778    2.243169    0.003489
      2          6           0       -2.048901    0.917338    0.009674
      3          8           0       -0.480681    2.729741   -0.014027
      4          6           0       -0.972934   -0.049251   -0.003693
      5          8           0        0.240216    0.244751   -0.020579
      6          1           0       -2.478796    3.020279    0.012766
      7          6           0       -3.478209    0.452569    0.029721
      8          1           0        0.115238    1.936815   -0.021095
      9          1           0       -1.259612   -1.112651    0.001600
     10          1           0       -4.156975    1.304197    0.037837
     11          1           0       -3.694068   -0.148026    0.913871
     12          1           0       -3.718012   -0.150330   -0.846657
 ---------------------------------------------------------------------
                    Distance matrix (angstroms):
                    1          2          3          4          5
     1  C    0.000000
     2  C    1.365605   0.000000
     3  O    1.333184   2.396806   0.000000
     4  C    2.411641   1.446436   2.822272   0.000000
     5  O    2.800656   2.386072   2.587453   1.248381   0.000000
     6  H    1.084925   2.146435   2.019305   3.419051   3.885575
     7  C    2.508384   1.503109   3.764652   2.555258   3.724567
     8  H    1.862548   2.392442   0.991919   2.264703   1.696673
     9  H    3.387496   2.178049   3.920581   1.101377   2.022996
    10  H    2.610179   2.143462   3.943349   3.460009   4.523397
    11  H    3.230564   2.158506   4.412301   2.873369   4.062765
    12  H    3.230563   2.158506   4.412300   2.873370   4.062765
                    6          7          8          9         10
     6  H    0.000000
     7  C    2.755404   0.000000
     8  H    2.811415   3.888243   0.000000
     9  H    4.309019   2.715305   3.345141   0.000000
    10  H    2.400385   1.089063   4.319199   3.773218   0.000000
    11  H    3.510987   1.090427   4.442020   2.772962   1.758030
    12  H    3.510987   1.090427   4.442019   2.772964   1.758030
                   11         12
    11  H    0.000000
    12  H    1.760692   0.000000
 Stoichiometry    C4H6O2
 Framework group  C1[X(C4H6O2)]
 Deg. of freedom    30
 Full point group                 C1      NOp   1
 Largest Abelian subgroup         C1      NOp   1
 Largest concise Abelian subgroup C1      NOp   1
                         Standard orientation:                         
 ---------------------------------------------------------------------
 Center     Atomic      Atomic             Coordinates (Angstroms)
 Number     Number       Type             X           Y           Z
 ---------------------------------------------------------------------
      1          6           0       -0.108646   -1.183405    0.000000
      2          6           0        0.627116   -0.032957    0.000000
      3          8           0       -1.440386   -1.245441    0.000000
      4          6           0       -0.081375    1.228081    0.000001
      5          8           0       -1.324780    1.339429   -0.000001
      6          1           0        0.358650   -2.162536   -0.000000
      7          6           0        2.130103   -0.052038   -0.000000
      8          1           0       -1.750026   -0.303089   -0.000001
      9          1           0        0.531770    2.143004    0.000003
     10          1           0        2.499347   -1.076596    0.000000
     11          1           0        2.539201    0.444612    0.880345
     12          1           0        2.539201    0.444611   -0.880347
 ---------------------------------------------------------------------
 Rotational constants (GHZ):           5.0032065           3.4976787           2.0850985
 Standard basis: 6-31G(d,p) (6D, 7F)
 There are   120 symmetry adapted cartesian basis functions of A   symmetry.
 There are   120 symmetry adapted basis functions of A   symmetry.
   120 basis functions,   210 primitive gaussians,   120 cartesian basis functions
    23 alpha electrons       23 beta electrons
       nuclear repulsion energy       227.6779988395 Hartrees.
 NAtoms=   12 NActive=   12 NUniq=   12 SFac= 1.00D+00 NAtFMM=   60 NAOKFM=F Big=F
 Integral buffers will be    131072 words long.
 Raffenetti 1 integral format.
 Two-electron integral symmetry is turned on.
 One-electron integrals computed using PRISM.
 NBasis=   120 RedAO= T EigKep=  1.79D-03  NBF=   120
 NBsUse=   120 1.00D-06 EigRej= -1.00D+00 NBFU=   120
 Initial guess from the checkpoint file:  "3.chk"
 B after Tr=    -0.000000    0.000000    0.000000
         Rot=    0.999999   -0.000000   -0.000000   -0.001244 Ang=  -0.14 deg.
 Keep R1 ints in memory in canonical form, NReq=32276291.
 Requested convergence on RMS density matrix=1.00D-08 within 128 cycles.
 Requested convergence on MAX density matrix=1.00D-06.
 Requested convergence on             energy=1.00D-06.
 No special actions if energy rises.
 SCF Done:  E(RHF) =  -304.676650982     A.U. after   10 cycles
            NFock= 10  Conv=0.77D-08     -V/T= 2.0027
 ExpMin= 1.61D-01 ExpMax= 5.48D+03 ExpMxC= 8.25D+02 IAcc=3 IRadAn=         5 AccDes= 0.00D+00
 HarFok:  IExCor=  205 AccDes= 0.00D+00 IRadAn=         5 IDoV=-2 UseB2=F ITyADJ=14
 ICtDFT= 12500011 ScaDFX=  1.000000  1.000000  1.000000  1.000000
 Range of M.O.s used for correlation:     7   120
 NBasis=   120 NAE=    23 NBE=    23 NFC=     6 NFV=     0
 NROrb=    114 NOA=    17 NOB=    17 NVA=    97 NVB=    97
 Fully direct method using O(ONN) memory.
 JobTyp=1 Pass  1:  I=   7 to  23 NPSUse= 28 ParTrn=T ParDer=T DoDerP=T.
 Spin components of T(2) and E(2):
     alpha-alpha T2 =       0.3741278532D-01 E2=     -0.1166723129D+00
     alpha-beta  T2 =       0.2115698383D+00 E2=     -0.6728292542D+00
     beta-beta   T2 =       0.3741278532D-01 E2=     -0.1166723129D+00
 ANorm=    0.1134193726D+01
 E2 =    -0.9061738801D+00 EUMP2 =    -0.30558282486223D+03
          IDoAtm=111111111111
          Differentiating once with respect to electric field.
                with respect to dipole field.
          Differentiating once with respect to nuclear coordinates.
 Keep R1 ints in memory in canonical form, NReq=32281278.
          There are     1 degrees of freedom in the 1st order CPHF.  IDoFFX=0 NUNeed=     1.
 LinEq1:  Iter=  0 NonCon=     1 RMS=6.42D-03 Max=1.76D-01 NDo=     1
 AX will form     1 AO Fock derivatives at one time.
 LinEq1:  Iter=  1 NonCon=     1 RMS=2.25D-03 Max=3.98D-02 NDo=     1
 LinEq1:  Iter=  2 NonCon=     1 RMS=8.08D-04 Max=1.70D-02 NDo=     1
 LinEq1:  Iter=  3 NonCon=     1 RMS=3.19D-04 Max=4.62D-03 NDo=     1
 LinEq1:  Iter=  4 NonCon=     1 RMS=9.29D-05 Max=1.15D-03 NDo=     1
 LinEq1:  Iter=  5 NonCon=     1 RMS=4.00D-05 Max=8.63D-04 NDo=     1
 LinEq1:  Iter=  6 NonCon=     1 RMS=1.41D-05 Max=3.74D-04 NDo=     1
 LinEq1:  Iter=  7 NonCon=     1 RMS=3.99D-06 Max=4.31D-05 NDo=     1
 LinEq1:  Iter=  8 NonCon=     1 RMS=1.77D-06 Max=3.84D-05 NDo=     1
 LinEq1:  Iter=  9 NonCon=     1 RMS=3.89D-07 Max=4.71D-06 NDo=     1
 LinEq1:  Iter= 10 NonCon=     1 RMS=9.09D-08 Max=9.58D-07 NDo=     1
 LinEq1:  Iter= 11 NonCon=     1 RMS=2.66D-08 Max=3.48D-07 NDo=     1
 LinEq1:  Iter= 12 NonCon=     1 RMS=7.27D-09 Max=6.73D-08 NDo=     1
 LinEq1:  Iter= 13 NonCon=     1 RMS=1.72D-09 Max=1.62D-08 NDo=     1
 LinEq1:  Iter= 14 NonCon=     1 RMS=3.00D-10 Max=2.15D-09 NDo=     1
 LinEq1:  Iter= 15 NonCon=     0 RMS=7.76D-11 Max=6.68D-10 NDo=     1
 Linear equations converged to 1.000D-10 1.000D-09 after    15 iterations.
 End of Minotr F.D. properties file   721 does not exist.
 End of Minotr F.D. properties file   722 does not exist.
 End of Minotr F.D. properties file   788 does not exist.
 Symmetrizing basis deriv contribution to polar:
 IMax=3 JMax=2 DiffMx= 0.00D+00
 Calling FoFJK, ICntrl=  10002127 FMM=F ISym2X=0 I1Cent= 0 IOpClX= 0 NMat=1 NMatS=1 NMatT=0.
 ***** Axes restored to original set *****
 -------------------------------------------------------------------
 Center     Atomic                   Forces (Hartrees/Bohr)
 Number     Number              X              Y              Z
 -------------------------------------------------------------------
      1        6           0.000395396    0.000332369   -0.000005834
      2        6           0.000129647   -0.000212285   -0.000001479
      3        8          -0.000596571    0.000095557    0.000007937
      4        6          -0.000249885   -0.000053597    0.000003435
      5        8           0.000187527    0.000071770   -0.000002606
      6        1           0.000014570    0.000020749   -0.000000198
      7        6           0.000030289    0.000012323   -0.000000415
      8        1           0.000118512   -0.000293255   -0.000001194
      9        1          -0.000011306    0.000016758    0.000000117
     10        1          -0.000033163    0.000025263    0.000000418
     11        1           0.000007947   -0.000007784    0.000033538
     12        1           0.000007037   -0.000007869   -0.000033720
 -------------------------------------------------------------------
 Cartesian Forces:  Max     0.000596571 RMS     0.000158628

 GradGradGradGradGradGradGradGradGradGradGradGradGradGradGradGradGradGrad
 Berny optimization.
 Using GEDIIS/GDIIS optimizer.
 FormGI is forming the generalized inverse of G from B-inverse, IUseBI=4.
 Internal  Forces:  Max     0.000517280 RMS     0.000106252
 Search for a local minimum.
 Step number   3 out of a maximum of   53
 All quantities printed in internal units (Hartrees-Bohrs-Radians)
 Mixed Optimization -- En-DIIS/RFO-DIIS
 Swapping is turned off.
 Update second derivatives using D2CorX and points    1    2    3
 DE= -3.52D-05 DEPred=-3.63D-05 R= 9.70D-01
 TightC=F SS=  1.41D+00  RLast= 1.34D-02 DXNew= 8.4853D-01 4.0276D-02
 Trust test= 9.70D-01 RLast= 1.34D-02 DXMaxT set to 5.05D-01
 ITU=  1  1  0
     Eigenvalues ---    0.00114   0.00813   0.01132   0.02104   0.03576
     Eigenvalues ---    0.06050   0.06301   0.06631   0.08909   0.12253
     Eigenvalues ---    0.13222   0.13859   0.14645   0.16001   0.17908
     Eigenvalues ---    0.19810   0.20588   0.23331   0.31289   0.32255
     Eigenvalues ---    0.34676   0.34708   0.35048   0.35270   0.36935
     Eigenvalues ---    0.37798   0.49026   0.56930   0.72416   0.81761
 En-DIIS/RFO-DIIS/Sim-DIIS IScMMF=       -3 using points:     3    2
 RFO step:  Lambda=-1.38179420D-06.
 DidBck=F Rises=F RFO-DIIS coefs:    0.99183    0.00817
 Iteration  1 RMS(Cart)=  0.00068156 RMS(Int)=  0.00000024
 Iteration  2 RMS(Cart)=  0.00000035 RMS(Int)=  0.00000000
 Variable       Old X    -DE/DX   Delta X   Delta X   Delta X     New X
                                 (Linear)    (Quad)   (Total)
    R1        2.58062   0.00013  -0.00003   0.00056   0.00053   2.58115
    R2        2.51935  -0.00052  -0.00005  -0.00116  -0.00121   2.51814
    R3        2.05021   0.00000  -0.00000   0.00005   0.00005   2.05026
    R4        2.73337  -0.00008  -0.00004  -0.00044  -0.00048   2.73289
    R5        2.84046  -0.00002  -0.00000   0.00001   0.00001   2.84047
    R6        1.87445   0.00031  -0.00004   0.00110   0.00106   1.87552
    R7        2.35910   0.00020  -0.00002   0.00052   0.00050   2.35960
    R8        2.08130  -0.00001   0.00000  -0.00012  -0.00012   2.08118
    R9        2.05803   0.00004   0.00000   0.00011   0.00011   2.05814
   R10        2.06061   0.00003   0.00000   0.00008   0.00008   2.06069
   R11        2.06061   0.00003   0.00000   0.00008   0.00008   2.06069
    A1        2.18633  -0.00013  -0.00001  -0.00058  -0.00059   2.18575
    A2        2.12732   0.00009   0.00001   0.00013   0.00013   2.12745
    A3        1.96953   0.00004   0.00000   0.00045   0.00045   1.96999
    A4        2.06072   0.00002   0.00003  -0.00014  -0.00011   2.06062
    A5        2.12709  -0.00001   0.00001  -0.00010  -0.00008   2.12701
    A6        2.09537  -0.00001  -0.00004   0.00023   0.00019   2.09556
    A7        1.84172  -0.00015  -0.00002  -0.00059  -0.00062   1.84110
    A8        2.17199  -0.00003   0.00002  -0.00020  -0.00018   2.17181
    A9        2.03929  -0.00000  -0.00002   0.00026   0.00023   2.03953
   A10        2.07190   0.00003   0.00001  -0.00006  -0.00005   2.07185
   A11        1.92939   0.00002   0.00001   0.00007   0.00008   1.92947
   A12        1.94912  -0.00002  -0.00001  -0.00004  -0.00005   1.94906
   A13        1.94912  -0.00002  -0.00001  -0.00004  -0.00005   1.94906
   A14        1.87684   0.00000   0.00000  -0.00006  -0.00005   1.87678
   A15        1.87684   0.00000   0.00000  -0.00006  -0.00005   1.87678
   A16        1.87926   0.00002   0.00000   0.00013   0.00013   1.87939
    D1        0.00000   0.00000  -0.00000  -0.00000  -0.00000  -0.00000
    D2       -3.14159   0.00000  -0.00000   0.00000   0.00000  -3.14159
    D3       -3.14159   0.00000  -0.00000  -0.00000  -0.00000   3.14159
    D4       -0.00000   0.00000  -0.00000   0.00000   0.00000   0.00000
    D5        0.00000  -0.00000  -0.00000  -0.00000  -0.00000  -0.00000
    D6       -3.14159  -0.00000  -0.00000  -0.00000  -0.00000   3.14159
    D7       -0.00000   0.00000   0.00000   0.00000   0.00000   0.00000
    D8        3.14159   0.00000   0.00000   0.00000   0.00000  -3.14159
    D9        3.14159   0.00000   0.00000   0.00000   0.00000  -3.14159
   D10       -0.00000   0.00000   0.00000   0.00000   0.00000   0.00000
   D11       -0.00000  -0.00000  -0.00000   0.00000   0.00000   0.00000
   D12       -2.08887  -0.00000  -0.00001   0.00005   0.00005  -2.08882
   D13        2.08887   0.00000   0.00001  -0.00005  -0.00005   2.08882
   D14        3.14159   0.00000   0.00000   0.00000   0.00000  -3.14159
   D15        1.05272  -0.00000  -0.00001   0.00005   0.00005   1.05277
   D16       -1.05272   0.00000   0.00001  -0.00005  -0.00005  -1.05277
         Item               Value     Threshold  Converged?
 Maximum Force            0.000517     0.000450     NO 
 RMS     Force            0.000106     0.000300     YES
 Maximum Displacement     0.003257     0.001800     NO 
 RMS     Displacement     0.000682     0.001200     YES
 Predicted change in Energy=-6.908998D-07
 GradGradGradGradGradGradGradGradGradGradGradGradGradGradGradGradGradGrad

                          Input orientation:                          
 ---------------------------------------------------------------------
 Center     Atomic      Atomic             Coordinates (Angstroms)
 Number     Number       Type             X           Y           Z
 ---------------------------------------------------------------------
      1          6           0       -1.721721    2.243462    0.003487
      2          6           0       -2.048828    0.917338    0.009673
      3          8           0       -0.480965    2.729149   -0.014023
      4          6           0       -0.972887   -0.048902   -0.003695
      5          8           0        0.240416    0.245590   -0.020581
      6          1           0       -2.478705    3.020645    0.012764
      7          6           0       -3.478152    0.452597    0.029720
      8          1           0        0.114387    1.935091   -0.021080
      9          1           0       -1.259122   -1.112357    0.001590
     10          1           0       -4.157005    1.304232    0.037837
     11          1           0       -3.693992   -0.147970    0.913947
     12          1           0       -3.717937   -0.150276   -0.846733
 ---------------------------------------------------------------------
                    Distance matrix (angstroms):
                    1          2          3          4          5
     1  C    0.000000
     2  C    1.365885   0.000000
     3  O    1.332544   2.396125   0.000000
     4  C    2.411583   1.446183   2.821287   0.000000
     5  O    2.800366   2.385959   2.586213   1.248645   0.000000
     6  H    1.084953   2.146790   2.019072   3.419046   3.885313
     7  C    2.508572   1.503114   3.764005   2.555185   3.724665
     8  H    1.861985   2.390872   0.992482   2.262453   1.694195
     9  H    3.387554   2.177926   3.919558   1.101315   2.023147
    10  H    2.610352   2.143569   3.942885   3.459956   4.523432
    11  H    3.230748   2.158507   4.411630   2.873376   4.062978
    12  H    3.230748   2.158507   4.411630   2.873376   4.062978
                    6          7          8          9         10
     6  H    0.000000
     7  C    2.755731   0.000000
     8  H    2.811351   3.886734   0.000000
     9  H    4.309201   2.715505   3.342750   0.000000
    10  H    2.400707   1.089123   4.318129   3.773452   0.000000
    11  H    3.511292   1.090469   4.440401   2.773270   1.758078
    12  H    3.511292   1.090469   4.440401   2.773269   1.758078
                   11         12
    11  H    0.000000
    12  H    1.760844   0.000000
 Stoichiometry    C4H6O2
 Framework group  C1[X(C4H6O2)]
 Deg. of freedom    30
 Full point group                 C1      NOp   1
 Largest Abelian subgroup         C1      NOp   1
 Largest concise Abelian subgroup C1      NOp   1
                         Standard orientation:                         
 ---------------------------------------------------------------------
 Center     Atomic      Atomic             Coordinates (Angstroms)
 Number     Number       Type             X           Y           Z
 ---------------------------------------------------------------------
      1          6           0       -0.108278   -1.183606    0.000000
      2          6           0        0.627108   -0.032585    0.000000
      3          8           0       -1.439387   -1.245439   -0.000000
      4          6           0       -0.081970    1.227833   -0.000000
      5          8           0       -1.325722    1.338274    0.000000
      6          1           0        0.359348   -2.162611    0.000000
      7          6           0        2.130108   -0.051104    0.000000
      8          1           0       -1.748499   -0.302322    0.000000
      9          1           0        0.530412    2.143193   -0.000001
     10          1           0        2.499837   -1.075549   -0.000000
     11          1           0        2.538983    0.445688    0.880422
     12          1           0        2.538983    0.445688   -0.880422
 ---------------------------------------------------------------------
 Rotational constants (GHZ):           5.0057789           3.4979629           2.0856508
 Standard basis: 6-31G(d,p) (6D, 7F)
 There are   120 symmetry adapted cartesian basis functions of A   symmetry.
 There are   120 symmetry adapted basis functions of A   symmetry.
   120 basis functions,   210 primitive gaussians,   120 cartesian basis functions
    23 alpha electrons       23 beta electrons
       nuclear repulsion energy       227.7011099880 Hartrees.
 NAtoms=   12 NActive=   12 NUniq=   12 SFac= 1.00D+00 NAtFMM=   60 NAOKFM=F Big=F
 Integral buffers will be    131072 words long.
 Raffenetti 1 integral format.
 Two-electron integral symmetry is turned on.
 One-electron integrals computed using PRISM.
 NBasis=   120 RedAO= T EigKep=  1.79D-03  NBF=   120
 NBsUse=   120 1.00D-06 EigRej= -1.00D+00 NBFU=   120
 Initial guess from the checkpoint file:  "3.chk"
 B after Tr=     0.000000   -0.000000   -0.000000
         Rot=    1.000000   -0.000000    0.000000   -0.000236 Ang=  -0.03 deg.
 Keep R1 ints in memory in canonical form, NReq=32276291.
 Requested convergence on RMS density matrix=1.00D-08 within 128 cycles.
 Requested convergence on MAX density matrix=1.00D-06.
 Requested convergence on             energy=1.00D-06.
 No special actions if energy rises.
 SCF Done:  E(RHF) =  -304.676598295     A.U. after    9 cycles
            NFock=  9  Conv=0.76D-08     -V/T= 2.0027
 ExpMin= 1.61D-01 ExpMax= 5.48D+03 ExpMxC= 8.25D+02 IAcc=3 IRadAn=         5 AccDes= 0.00D+00
 HarFok:  IExCor=  205 AccDes= 0.00D+00 IRadAn=         5 IDoV=-2 UseB2=F ITyADJ=14
 ICtDFT= 12500011 ScaDFX=  1.000000  1.000000  1.000000  1.000000
 Range of M.O.s used for correlation:     7   120
 NBasis=   120 NAE=    23 NBE=    23 NFC=     6 NFV=     0
 NROrb=    114 NOA=    17 NOB=    17 NVA=    97 NVB=    97
 Fully direct method using O(ONN) memory.
 JobTyp=1 Pass  1:  I=   7 to  23 NPSUse= 28 ParTrn=T ParDer=T DoDerP=T.
 Spin components of T(2) and E(2):
     alpha-alpha T2 =       0.3742018219D-01 E2=     -0.1166884542D+00
     alpha-beta  T2 =       0.2115791340D+00 E2=     -0.6728504127D+00
     beta-beta   T2 =       0.3742018219D-01 E2=     -0.1166884542D+00
 ANorm=    0.1134204346D+01
 E2 =    -0.9062273210D+00 EUMP2 =    -0.30558282561626D+03
          IDoAtm=111111111111
          Differentiating once with respect to electric field.
                with respect to dipole field.
          Differentiating once with respect to nuclear coordinates.
 Keep R1 ints in memory in canonical form, NReq=32281278.
          There are     1 degrees of freedom in the 1st order CPHF.  IDoFFX=0 NUNeed=     1.
 LinEq1:  Iter=  0 NonCon=     1 RMS=6.42D-03 Max=1.76D-01 NDo=     1
 AX will form     1 AO Fock derivatives at one time.
 LinEq1:  Iter=  1 NonCon=     1 RMS=2.26D-03 Max=3.98D-02 NDo=     1
 LinEq1:  Iter=  2 NonCon=     1 RMS=8.09D-04 Max=1.70D-02 NDo=     1
 LinEq1:  Iter=  3 NonCon=     1 RMS=3.19D-04 Max=4.63D-03 NDo=     1
 LinEq1:  Iter=  4 NonCon=     1 RMS=9.30D-05 Max=1.15D-03 NDo=     1
 LinEq1:  Iter=  5 NonCon=     1 RMS=4.00D-05 Max=8.64D-04 NDo=     1
 LinEq1:  Iter=  6 NonCon=     1 RMS=1.42D-05 Max=3.75D-04 NDo=     1
 LinEq1:  Iter=  7 NonCon=     1 RMS=4.01D-06 Max=4.33D-05 NDo=     1
 LinEq1:  Iter=  8 NonCon=     1 RMS=1.77D-06 Max=3.85D-05 NDo=     1
 LinEq1:  Iter=  9 NonCon=     1 RMS=3.90D-07 Max=4.73D-06 NDo=     1
 LinEq1:  Iter= 10 NonCon=     1 RMS=9.14D-08 Max=9.68D-07 NDo=     1
 LinEq1:  Iter= 11 NonCon=     1 RMS=2.69D-08 Max=3.52D-07 NDo=     1
 LinEq1:  Iter= 12 NonCon=     1 RMS=7.32D-09 Max=6.78D-08 NDo=     1
 LinEq1:  Iter= 13 NonCon=     1 RMS=1.72D-09 Max=1.62D-08 NDo=     1
 LinEq1:  Iter= 14 NonCon=     1 RMS=3.01D-10 Max=2.16D-09 NDo=     1
 LinEq1:  Iter= 15 NonCon=     0 RMS=7.82D-11 Max=6.74D-10 NDo=     1
 Linear equations converged to 1.000D-10 1.000D-09 after    15 iterations.
 End of Minotr F.D. properties file   721 does not exist.
 End of Minotr F.D. properties file   722 does not exist.
 End of Minotr F.D. properties file   788 does not exist.
 Symmetrizing basis deriv contribution to polar:
 IMax=3 JMax=2 DiffMx= 0.00D+00
 Calling FoFJK, ICntrl=  10002127 FMM=F ISym2X=0 I1Cent= 0 IOpClX= 0 NMat=1 NMatS=1 NMatT=0.
 ***** Axes restored to original set *****
 -------------------------------------------------------------------
 Center     Atomic                   Forces (Hartrees/Bohr)
 Number     Number              X              Y              Z
 -------------------------------------------------------------------
      1        6           0.000002720   -0.000007516   -0.000000022
      2        6           0.000031728   -0.000020843   -0.000000409
      3        8          -0.000041741    0.000049704    0.000000515
      4        6          -0.000044453    0.000013814    0.000000595
      5        8          -0.000001082    0.000014706   -0.000000016
      6        1           0.000001304    0.000002919   -0.000000028
      7        6           0.000006546   -0.000001678   -0.000000089
      8        1           0.000040098   -0.000054086   -0.000000480
      9        1          -0.000002343    0.000002504    0.000000033
     10        1          -0.000000041    0.000000373   -0.000000000
     11        1           0.000003649    0.000000053    0.000001110
     12        1           0.000003614    0.000000049   -0.000001209
 -------------------------------------------------------------------
 Cartesian Forces:  Max     0.000054086 RMS     0.000018807

 GradGradGradGradGradGradGradGradGradGradGradGradGradGradGradGradGradGrad
 Berny optimization.
 Using GEDIIS/GDIIS optimizer.
 FormGI is forming the generalized inverse of G from B-inverse, IUseBI=4.
 Internal  Forces:  Max     0.000067330 RMS     0.000014670
 Search for a local minimum.
 Step number   4 out of a maximum of   53
 All quantities printed in internal units (Hartrees-Bohrs-Radians)
 Mixed Optimization -- En-DIIS/RFO-DIIS
 Swapping is turned off.
 Update second derivatives using D2CorX and points    1    2    3    4
 DE= -7.54D-07 DEPred=-6.91D-07 R= 1.09D+00
 Trust test= 1.09D+00 RLast= 2.13D-03 DXMaxT set to 5.05D-01
 ITU=  0  1  1  0
     Eigenvalues ---    0.00114   0.00813   0.01132   0.02104   0.03576
     Eigenvalues ---    0.06050   0.06306   0.06631   0.08909   0.12262
     Eigenvalues ---    0.13213   0.13874   0.14562   0.16001   0.17876
     Eigenvalues ---    0.19548   0.20572   0.22797   0.30250   0.31912
     Eigenvalues ---    0.34461   0.34708   0.34869   0.35085   0.36862
     Eigenvalues ---    0.37740   0.48963   0.58222   0.72815   0.82535
 En-DIIS/RFO-DIIS/Sim-DIIS IScMMF=       -3 using points:     4    3    2
 RFO step:  Lambda=-2.57169115D-08.
 DidBck=F Rises=F RFO-DIIS coefs:    1.11377   -0.11504    0.00127
 Iteration  1 RMS(Cart)=  0.00011132 RMS(Int)=  0.00000001
 Iteration  2 RMS(Cart)=  0.00000001 RMS(Int)=  0.00000000
 Variable       Old X    -DE/DX   Delta X   Delta X   Delta X     New X
                                 (Linear)    (Quad)   (Total)
    R1        2.58115  -0.00001   0.00006  -0.00003   0.00003   2.58118
    R2        2.51814  -0.00000  -0.00015   0.00010  -0.00004   2.51810
    R3        2.05026   0.00000   0.00001   0.00000   0.00001   2.05027
    R4        2.73289  -0.00006  -0.00006  -0.00015  -0.00021   2.73268
    R5        2.84047  -0.00001   0.00000  -0.00002  -0.00002   2.84045
    R6        1.87552   0.00007   0.00012   0.00010   0.00021   1.87573
    R7        2.35960   0.00000   0.00005  -0.00000   0.00005   2.35965
    R8        2.08118  -0.00000  -0.00001  -0.00000  -0.00001   2.08117
    R9        2.05814   0.00000   0.00001  -0.00001   0.00000   2.05814
   R10        2.06069   0.00000   0.00001  -0.00001   0.00000   2.06069
   R11        2.06069   0.00000   0.00001  -0.00001   0.00000   2.06069
    A1        2.18575  -0.00001  -0.00007   0.00002  -0.00004   2.18570
    A2        2.12745   0.00001   0.00002   0.00001   0.00003   2.12748
    A3        1.96999   0.00000   0.00005  -0.00004   0.00001   1.97000
    A4        2.06062  -0.00001  -0.00001  -0.00002  -0.00002   2.06059
    A5        2.12701   0.00002  -0.00001   0.00006   0.00005   2.12706
    A6        2.09556  -0.00001   0.00001  -0.00004  -0.00003   2.09553
    A7        1.84110  -0.00000  -0.00007  -0.00000  -0.00007   1.84103
    A8        2.17181  -0.00002  -0.00002  -0.00003  -0.00005   2.17176
    A9        2.03953   0.00001   0.00002   0.00003   0.00005   2.03958
   A10        2.07185   0.00001  -0.00000   0.00000  -0.00000   2.07185
   A11        1.92947   0.00000   0.00001   0.00002   0.00003   1.92950
   A12        1.94906  -0.00000  -0.00001  -0.00003  -0.00003   1.94903
   A13        1.94906  -0.00000  -0.00001  -0.00003  -0.00003   1.94903
   A14        1.87678   0.00000  -0.00001   0.00002   0.00001   1.87680
   A15        1.87678   0.00000  -0.00001   0.00002   0.00001   1.87680
   A16        1.87939   0.00000   0.00002   0.00000   0.00002   1.87941
    D1       -0.00000  -0.00000  -0.00000   0.00000   0.00000   0.00000
    D2       -3.14159  -0.00000   0.00000  -0.00000  -0.00000   3.14159
    D3        3.14159  -0.00000  -0.00000   0.00000   0.00000  -3.14159
    D4        0.00000  -0.00000   0.00000  -0.00000  -0.00000  -0.00000
    D5       -0.00000   0.00000  -0.00000   0.00000   0.00000   0.00000
    D6        3.14159   0.00000  -0.00000   0.00000   0.00000  -3.14159
    D7        0.00000  -0.00000   0.00000  -0.00000  -0.00000  -0.00000
    D8       -3.14159  -0.00000   0.00000  -0.00000  -0.00000   3.14159
    D9       -3.14159  -0.00000   0.00000  -0.00000  -0.00000   3.14159
   D10        0.00000  -0.00000   0.00000  -0.00000  -0.00000  -0.00000
   D11        0.00000   0.00000   0.00000  -0.00000  -0.00000  -0.00000
   D12       -2.08882  -0.00000   0.00000  -0.00002  -0.00001  -2.08884
[...]
    11   1    -0.03  -0.10   0.00     0.40   0.01   0.00    -0.07   0.00   0.02
    12   1    -0.03  -0.10  -0.00     0.40   0.01  -0.00     0.07  -0.00   0.02
                     10                     11                     12
                      A                      A                      A
 Frequencies --    961.6656               967.7458              1038.4773
 Red. masses --      3.9300                 1.1967                 1.4598
 Frc consts  --      2.1414                 0.6603                 0.9275
 IR Inten    --     53.9097                53.8331                11.1065
  Atom  AN      X      Y      Z        X      Y      Z        X      Y      Z
     1   6     0.03  -0.31  -0.00    -0.00   0.00  -0.09     0.00  -0.00   0.08
     2   6    -0.08  -0.04   0.00     0.00   0.00   0.03    -0.00   0.00   0.02
     3   8    -0.05   0.02  -0.00     0.00  -0.00  -0.02    -0.00  -0.00   0.00
     4   6     0.03   0.38  -0.00    -0.00  -0.00  -0.08     0.00  -0.00  -0.18
     5   8    -0.02  -0.06   0.00     0.00   0.00   0.01     0.00  -0.00   0.04
     6   1    -0.06  -0.36   0.00     0.00   0.00   0.58    -0.00  -0.00  -0.60
     7   6     0.07  -0.03   0.00    -0.00   0.00   0.03     0.00   0.00   0.02
     8   1     0.39   0.19   0.00    -0.00  -0.00   0.64     0.00   0.00  -0.17
     9   1    -0.20   0.54   0.00     0.00  -0.00   0.41     0.00  -0.00   0.74
    10   1     0.29   0.05  -0.00    -0.00  -0.00  -0.08    -0.00  -0.00  -0.04
    11   1     0.02   0.05  -0.02     0.17   0.01  -0.06     0.10   0.00  -0.03
    12   1     0.02   0.05   0.02    -0.17  -0.01  -0.06    -0.10  -0.00  -0.03
                     13                     14                     15
                      A                      A                      A
 Frequencies --   1040.3877              1099.1013              1255.4851
 Red. masses --      1.3927                 1.4000                 3.4981
 Frc consts  --      0.8882                 0.9964                 3.2487
 IR Inten    --      8.0321                 1.9847                43.8114
  Atom  AN      X      Y      Z        X      Y      Z        X      Y      Z
     1   6    -0.01   0.08   0.00    -0.00   0.00   0.01     0.17  -0.00   0.00
     2   6     0.02  -0.04   0.00     0.00  -0.00  -0.11     0.37  -0.09   0.00
     3   8     0.04   0.01   0.00     0.00  -0.00   0.01    -0.12   0.01   0.00
     4   6    -0.01   0.03  -0.00     0.00  -0.00   0.05    -0.02   0.05  -0.00
     5   8    -0.02   0.00   0.00    -0.00   0.00  -0.01    -0.02   0.02   0.00
     6   1     0.05   0.11  -0.00    -0.00  -0.00  -0.12    -0.31  -0.24  -0.00
     7   6    -0.02  -0.15   0.00    -0.00   0.00   0.14    -0.17   0.02  -0.00
     8   1    -0.08  -0.05  -0.00    -0.00   0.00  -0.10    -0.33  -0.13  -0.00
     9   1    -0.06   0.06   0.00    -0.00  -0.00  -0.21    -0.39   0.31   0.00
    10   1     0.70   0.12  -0.00    -0.00   0.00  -0.28    -0.38  -0.05   0.00
    11   1    -0.38   0.26  -0.06     0.60   0.09  -0.19    -0.23  -0.00   0.03
    12   1    -0.38   0.26   0.06    -0.60  -0.09  -0.19    -0.23  -0.00  -0.03
                     16                     17                     18
                      A                      A                      A
 Frequencies --   1298.3409              1416.2149              1452.4656
 Red. masses --      1.6523                 1.6134                 1.4557
 Frc consts  --      1.6410                 1.9066                 1.8093
 IR Inten    --    181.7604                 4.4741                62.6069
  Atom  AN      X      Y      Z        X      Y      Z        X      Y      Z
     1   6     0.12  -0.03   0.00     0.16  -0.03   0.00    -0.06  -0.00   0.00
     2   6     0.00   0.05  -0.00    -0.05   0.12  -0.00     0.07   0.11  -0.00
     3   8    -0.16  -0.00  -0.00    -0.06   0.03   0.00     0.00  -0.07  -0.00
     4   6    -0.00  -0.05   0.00    -0.03   0.02   0.00     0.06  -0.02  -0.00
     5   8     0.00   0.01  -0.00    -0.01  -0.04   0.00    -0.07   0.01   0.00
     6   1     0.82   0.30  -0.00    -0.34  -0.28  -0.00    -0.33  -0.14   0.00
     7   6    -0.00  -0.03   0.00     0.01  -0.04   0.00     0.05  -0.02   0.00
     8   1     0.36   0.22  -0.00    -0.35  -0.14  -0.00     0.62   0.24   0.00
     9   1     0.01  -0.07   0.00     0.64  -0.41  -0.00     0.19  -0.11  -0.00
    10   1     0.07  -0.00  -0.00     0.12   0.01  -0.00    -0.27  -0.13  -0.00
    11   1    -0.05   0.04  -0.01    -0.00   0.08  -0.06    -0.31   0.16   0.05
    12   1    -0.05   0.04   0.01    -0.00   0.08   0.06    -0.31   0.16  -0.05
                     19                     20                     21
                      A                      A                      A
 Frequencies --   1465.6714              1479.9479              1538.6088
 Red. masses --      1.9560                 1.3986                 1.0437
 Frc consts  --      2.4757                 1.8049                 1.4558
 IR Inten    --     16.2656                25.9344                 5.3409
  Atom  AN      X      Y      Z        X      Y      Z        X      Y      Z
     1   6    -0.06   0.05  -0.00     0.02   0.00  -0.00    -0.00  -0.00  -0.00
     2   6     0.09  -0.15   0.00    -0.06  -0.07   0.00     0.00  -0.00  -0.01
     3   8     0.02  -0.00   0.00     0.01   0.04   0.00     0.00   0.00   0.00
     4   6     0.06   0.13  -0.00    -0.02   0.04  -0.00     0.00   0.00   0.00
     5   8    -0.13  -0.03   0.00     0.02  -0.02  -0.00    -0.00  -0.00  -0.00
     6   1     0.30   0.22   0.00     0.22   0.10  -0.00     0.00   0.00   0.00
     7   6    -0.05   0.05  -0.00     0.15   0.01  -0.00    -0.00  -0.00  -0.06
     8   1     0.05   0.01   0.00    -0.32  -0.13  -0.00    -0.00   0.00  -0.00
     9   1     0.77  -0.32  -0.00     0.06  -0.01  -0.00     0.00  -0.00  -0.01
    10   1     0.03   0.07  -0.00    -0.50  -0.21   0.00    -0.00  -0.00   0.71
    11   1     0.09  -0.17   0.06    -0.44   0.07   0.22     0.30  -0.39   0.05
    12   1     0.09  -0.17  -0.06    -0.44   0.07  -0.22    -0.30   0.39   0.05
                     22                     23                     24
                      A                      A                      A
 Frequencies --   1564.9057              1674.7606              1750.6827
 Red. masses --      1.0634                 3.1556                 5.4386
 Frc consts  --      1.5343                 5.2148                 9.8209
 IR Inten    --     16.3874               215.6463               160.9529
  Atom  AN      X      Y      Z        X      Y      Z        X      Y      Z
     1   6    -0.03  -0.01  -0.00    -0.08  -0.17  -0.00     0.28   0.22   0.00
     2   6     0.01  -0.03   0.00     0.04   0.17  -0.00    -0.25  -0.20   0.00
     3   8     0.01   0.01   0.00     0.03   0.05   0.00    -0.08  -0.03  -0.00
     4   6     0.00   0.02  -0.00     0.28  -0.09  -0.00     0.33  -0.05  -0.00
     5   8    -0.01  -0.00   0.00    -0.16   0.03   0.00    -0.18   0.02   0.00
     6   1     0.12   0.06  -0.00     0.36   0.00   0.00    -0.53  -0.10  -0.00
     7   6    -0.01  -0.05   0.00    -0.01  -0.00   0.00     0.04   0.02  -0.00
     8   1    -0.08  -0.03  -0.00    -0.75  -0.20  -0.00     0.21   0.10   0.00
     9   1     0.04  -0.01  -0.00    -0.16   0.18  -0.00    -0.33   0.33  -0.00
    10   1    -0.35  -0.16  -0.00     0.08   0.03   0.00    -0.10  -0.03  -0.00
    11   1     0.21   0.48  -0.38    -0.06  -0.04   0.04     0.14   0.04  -0.06
    12   1     0.21   0.48   0.38    -0.06  -0.04  -0.04     0.14   0.04   0.06
                     25                     26                     27
                      A                      A                      A
 Frequencies --   3060.7785              3121.4145              3203.7918
 Red. masses --      1.0874                 1.0364                 1.1030
 Frc consts  --      6.0021                 5.9495                 6.6704
 IR Inten    --     97.4506                28.7496                18.0952
  Atom  AN      X      Y      Z        X      Y      Z        X      Y      Z
     1   6     0.00  -0.00   0.00     0.00  -0.00   0.00    -0.00   0.00  -0.00
     2   6    -0.00   0.00  -0.00     0.00   0.00   0.00     0.00   0.00   0.00
     3   8    -0.00   0.00   0.00    -0.00  -0.00  -0.00    -0.00   0.00  -0.00
     4   6    -0.04  -0.07   0.00    -0.00  -0.00   0.00     0.00   0.00   0.00
     5   8    -0.00   0.00   0.00    -0.00   0.00  -0.00    -0.00  -0.00   0.00
     6   1    -0.01   0.01  -0.00    -0.00   0.01  -0.00     0.00  -0.00  -0.00
     7   6     0.00   0.00  -0.00    -0.05  -0.01  -0.00     0.00  -0.00  -0.09
     8   1     0.02  -0.02  -0.00     0.00   0.00   0.00     0.00  -0.00  -0.00
     9   1     0.53   0.84  -0.00     0.02   0.04  -0.00    -0.00  -0.00  -0.00
    10   1    -0.00   0.02   0.00     0.16  -0.48  -0.00    -0.00   0.00  -0.02
    11   1    -0.01  -0.02  -0.03     0.21   0.28   0.50     0.26   0.33   0.56
    12   1    -0.01  -0.02   0.03     0.21   0.28  -0.50    -0.26  -0.33   0.56
                     28                     29                     30
                      A                      A                      A
 Frequencies --   3222.4138              3248.7531              3345.1140
 Red. masses --      1.1018                 1.0914                 1.0697
 Frc consts  --      6.7408                 6.7869                 7.0521
 IR Inten    --     10.9422                43.4476               119.0363
  Atom  AN      X      Y      Z        X      Y      Z        X      Y      Z
     1   6    -0.00   0.00  -0.00     0.03  -0.08   0.00     0.02  -0.02   0.00
     2   6    -0.00  -0.00   0.00     0.00   0.01  -0.00     0.00  -0.01   0.00
     3   8     0.00  -0.00  -0.00    -0.00   0.01   0.00     0.02  -0.06  -0.00
     4   6    -0.00  -0.00   0.00     0.00  -0.00  -0.00    -0.01   0.01   0.00
     5   8    -0.00   0.00  -0.00    -0.00  -0.00   0.00     0.01   0.00  -0.00
     6   1     0.03  -0.05   0.00    -0.41   0.87  -0.00    -0.10   0.21  -0.00
     7   6     0.00  -0.09   0.00     0.00  -0.00   0.00     0.00  -0.00  -0.00
     8   1    -0.00   0.01   0.00     0.09  -0.22  -0.00    -0.40   0.88   0.00
     9   1     0.00   0.01  -0.00    -0.01  -0.02   0.00     0.02   0.01  -0.00
    10   1    -0.29   0.81   0.00    -0.02   0.05   0.00    -0.00   0.01   0.00
    11   1     0.13   0.15   0.30     0.00   0.01   0.01    -0.00   0.00  -0.00
    12   1     0.13   0.15  -0.30     0.00   0.01  -0.01    -0.00   0.00   0.00

 -------------------
 - Thermochemistry -
 -------------------
 Temperature   298.150 Kelvin.  Pressure   1.00000 Atm.
 Atom     1 has atomic number  6 and mass  12.00000
 Atom     2 has atomic number  6 and mass  12.00000
 Atom     3 has atomic number  8 and mass  15.99491
 Atom     4 has atomic number  6 and mass  12.00000
 Atom     5 has atomic number  8 and mass  15.99491
 Atom     6 has atomic number  1 and mass   1.00783
 Atom     7 has atomic number  6 and mass  12.00000
 Atom     8 has atomic number  1 and mass   1.00783
 Atom     9 has atomic number  1 and mass   1.00783
 Atom    10 has atomic number  1 and mass   1.00783
 Atom    11 has atomic number  1 and mass   1.00783
 Atom    12 has atomic number  1 and mass   1.00783
 Molecular mass:    86.03678 amu.
 Principal axes and moments of inertia in atomic units:
                           1         2         3
     Eigenvalues --   360.53154 515.94064 865.31320
           X            0.99995   0.00966  -0.00000
           Y           -0.00966   0.99995  -0.00000
           Z            0.00000   0.00000   1.00000
 This molecule is an asymmetric top.
 Rotational symmetry number  1.
 Rotational temperatures (Kelvin)      0.24024     0.16788     0.10010
 Rotational constants (GHZ):           5.00578     3.49796     2.08565
 Zero-point vibrational energy     256480.8 (Joules/Mol)
                                   61.30038 (Kcal/Mol)
 Warning -- explicit consideration of   7 degrees of freedom as
           vibrations may cause significant error
 Vibrational temperatures:    158.45   333.53   407.10   424.13   468.33
          (Kelvin)            546.30   757.24   932.31  1257.98  1383.62
                             1392.37  1494.14  1496.89  1581.36  1806.36
                             1868.02  2037.62  2089.77  2108.77  2129.31
                             2213.71  2251.55  2409.61  2518.84  4403.78
                             4491.02  4609.54  4636.33  4674.23  4812.87
 
 Zero-point correction=                           0.097688 (Hartree/Particle)
 Thermal correction to Energy=                    0.103970
 Thermal correction to Enthalpy=                  0.104914
 Thermal correction to Gibbs Free Energy=         0.067867
 Sum of electronic and zero-point Energies=           -305.485137
 Sum of electronic and thermal Energies=              -305.478856
 Sum of electronic and thermal Enthalpies=            -305.477912
 Sum of electronic and thermal Free Energies=         -305.514959
 
                     E (Thermal)             CV                S
                      KCal/Mol        Cal/Mol-Kelvin    Cal/Mol-Kelvin
 Total                   65.242             21.539             77.973
 Electronic               0.000              0.000              0.000
 Translational            0.889              2.981             39.270
 Rotational               0.889              2.981             26.579
 Vibrational             63.465             15.577             12.125
 Vibration     1          0.606              1.941              3.267
 Vibration     2          0.653              1.792              1.865
 Vibration     3          0.682              1.705              1.516
 Vibration     4          0.689              1.683              1.446
 Vibration     5          0.710              1.624              1.282
 Vibration     6          0.750              1.513              1.040
 Vibration     7          0.881              1.192              0.596
                       Q            Log10(Q)             Ln(Q)
 Total Bot       0.607558D-31        -31.216412        -71.878445
 Total V=0       0.521290D+14         13.717079         31.584742
 Vib (Bot)       0.134866D-43        -43.870096       -101.014629
 Vib (Bot)    1  0.185973D+01          0.269450          0.620432
 Vib (Bot)    2  0.848966D+00         -0.071110         -0.163736
 Vib (Bot)    3  0.678430D+00         -0.168495         -0.387975
 Vib (Bot)    4  0.647017D+00         -0.189084         -0.435382
 Vib (Bot)    5  0.575595D+00         -0.239883         -0.552351
 Vib (Bot)    6  0.476282D+00         -0.322136         -0.741746
 Vib (Bot)    7  0.304913D+00         -0.515824         -1.187730
 Vib (V=0)       0.115717D+02          1.063395          2.448559
 Vib (V=0)    1  0.242577D+01          0.384850          0.886150
 Vib (V=0)    2  0.148526D+01          0.171803          0.395592
 Vib (V=0)    3  0.134277D+01          0.128003          0.294737
 Vib (V=0)    4  0.131770D+01          0.119816          0.275887
 Vib (V=0)    5  0.126244D+01          0.101210          0.233044
 Vib (V=0)    6  0.119054D+01          0.075744          0.174406
 Vib (V=0)    7  0.108564D+01          0.035685          0.082168
 Electronic      0.100000D+01          0.000000          0.000000
 Translational   0.313675D+08          7.496480         17.261283
 Rotational      0.143616D+06          5.157204         11.874901
 ***** Axes restored to original set *****
 -------------------------------------------------------------------
 Center     Atomic                   Forces (Hartrees/Bohr)
 Number     Number              X              Y              Z
 -------------------------------------------------------------------
      1        6           0.000002732   -0.000007487   -0.000000022
      2        6           0.000031714   -0.000020835   -0.000000409
      3        8          -0.000041739    0.000049691    0.000000514
      4        6          -0.000044407    0.000013802    0.000000595
      5        8          -0.000001097    0.000014705   -0.000000015
      6        1           0.000001300    0.000002914   -0.000000028
      7        6           0.000006537   -0.000001671   -0.000000089
      8        1           0.000040089   -0.000054080   -0.000000480
      9        1          -0.000002352    0.000002499    0.000000033
     10        1          -0.000000039    0.000000374   -0.000000000
     11        1           0.000003648    0.000000046    0.000001119
     12        1           0.000003613    0.000000042   -0.000001219
 -------------------------------------------------------------------
 Cartesian Forces:  Max     0.000054080 RMS     0.000018800

 **********************************************************************

             Second-order Perturbative Anharmonic Analysis

 **********************************************************************

     ==================================================
                      Reference System
     ==================================================

 NOTE: The system is set in Eckart orientation for the anharmonic
       treatment.
 
 Atom           X                  Y                  Z
 ----------------------------------------------------------------
  C      -0.0194640019157   -1.1896785609900    0.0000000194926
  C       0.7047668938562   -0.0316058761468    0.0000000240497
  O      -1.3499134194527   -1.2643693398929   -0.0000000857033
  C      -0.0164557219979    1.2219027916916   -0.0000002272258
  O      -1.2612162397923    1.3203218704930    0.0000001899668
  H       0.4575989221645   -2.1641192832010    0.0000001128209
  C       2.2078756218758   -0.0356022461440    0.0000000716213
  H      -1.6681234112868   -0.3242822818717    0.0000001739056
  H       0.5870534820834    2.1431364606076   -0.0000008256583
  H       2.5874847921696   -1.0564280220791   -0.0000000687702
  H       2.6119316568889    0.4651164113811    0.8804221346365
  H       2.6119316654383    0.4651166558032   -0.8804218473670
 ----------------------------------------------------------------

     ==================================================
               Analysis of the Rotor Symmetry
     ==================================================

 Framework Group : C1  
 Rotor Type      : Asymmetric Top
 Asymm. param.   : Kappa = -0.032705
 Inertia moments : X=   360.53154 , Y=   515.94064 , Z=   865.31320
 Representation  : IIIr Representation, Ix < Iy < Iz

 Axes Definition for the Symmetric-Top Representation
 ----------------------------------------------------
 Axis Z automatically chosen to be collinear with Z from Eckart orient.
 NOTE: In Vibro-rotational analysis, this will be referred to as the
       spectroscopic orientation.

     ==================================================
                   Data Source Definition
     ==================================================

 Main data sources
 -----------------
 Harmonic data taken from: current calculation
 Anharmonic data taken from: current calculation

     ==================================================
           Input Data Extraction and Preparation
     ==================================================

 Data for Harmonic Potential Energy Surface
 ------------------------------------------

 Definition of the model system: Active modes
 --------------------------------------------
 The 30 Active Modes are:
     1     2     3     4     5     6     7     8     9    10    11    12    13
    14    15    16    17    18    19    20    21    22    23    24    25    26
    27    28    29    30

 Data for Anharmonic Potential Energy Surface
 --------------------------------------------
 ERROR: Missing anharmonic PES.
 Error termination via Lnk1e in /sw/contrib/gaussian/g16/A03/g16/l717.exe at Tue Oct 27 14:57:41 2020.
 Job cpu time:       1 days 21 hours 36 minutes 11.4 seconds.
 Elapsed time:       0 days  1 hours 40 minutes 22.1 seconds.
 File lengths (MBytes):  RWF=   1476 Int=      0 D2E=      0 Chk=     48 Scr=      8
