 argument  1 = 3R1.nw
  NWChem w/ OpenMP: maximum threads =    1



============================== echo of input deck ==============================
echo
start 3R1
title "3 Ref Closed"
memory stack 17500 mb heap 1000 mb global 4500 mb noverify
charge 0

geometry noautoz noautosym
O       -1.2755576000      1.4284096800      0.1043758500
C       -1.1931925000      0.0935859200      0.1011008100
C       -0.0192707600     -0.6203514400     -0.0003011600
H        0.9238878488     -0.0852018062     -0.0459540046
H       -0.4758440957      2.0246193886      0.0418071999
H       -2.1667512800     -0.4013667400      0.1884443000
C        0.0008514900     -2.1318743700      0.0024413100
H        0.9725969558     -2.6500170534      0.0454189262
H       -0.4519729114     -2.3520078889     -0.9764497882
H       -0.6492562894     -2.5692048673      0.7774966408
end

set lindep:n_dep 0

set cphf:maxsub 95
set cphf:maxiter 999
set int:acc_std 1d-16
set fock:densityscreen f

scf
 maxiter 99
 vectors input atomic
 thresh 1d-9
 tol2e 1d-15
end

mp2
 freeze atomic
 tight
end

driver
 clear
 maxiter 999
 tight
end

set "mp2:aotol2e fock" 1d-15
set mp2:aotol2e 1d-15
set mp2:backtol 1d-15

basis spherical
 * library aug-cc-pVDZ
end

task mp2 optimize
task mp2 frequencies


================================================================================


                                         
                                         


             Northwest Computational Chemistry Package (NWChem) 7.2.0
             --------------------------------------------------------


                    Environmental Molecular Sciences Laboratory
                       Pacific Northwest National Laboratory
                                Richland, WA 99352

                              Copyright (c) 1994-2022
                       Pacific Northwest National Laboratory
                            Battelle Memorial Institute

             NWChem is an open-source computational chemistry package
                        distributed under the terms of the
                      Educational Community License (ECL) 2.0
             A copy of the license is included with this distribution
                              in the LICENSE.TXT file

                                  ACKNOWLEDGMENT
                                  --------------

            This software and its documentation were developed at the
            EMSL at Pacific Northwest National Laboratory, a multiprogram
            national laboratory, operated for the U.S. Department of Energy
            by Battelle under Contract Number DE-AC05-76RL01830. Support
            for this work was provided by the Department of Energy Office
            of Biological and Environmental Research, Office of Basic
            Energy Sciences, and the Office of Advanced Scientific Computing.


           Job information
           ---------------

    hostname        = nid006731
    program         = nwchem
    date            = Wed Apr  2 11:24:33 2025

    compiled        = Fri_Sep_29_01:47:45_2023
    source          = /opt/nwchem
    nwchem branch   = 7.2.0
    nwchem revision = v7.2.0-beta1-323-g0ec4a55be4
    ga revision     = 5.8.0
    use scalapack   = T
    input           = 3R1.nw
    prefix          = 3R1.
    data base       = ./3R1.db
    status          = startup
    nproc           =       63
    time left       =     -1s



           Memory information
           ------------------

    heap     =  131071998 doubles =   1000.0 Mbytes
    stack    = 2293759995 doubles =  17500.0 Mbytes
    global   =  589824000 doubles =   4500.0 Mbytes (distinct from heap & stack)
    total    = 3014655993 doubles =  23000.0 Mbytes
    verify   = no 
    hardfail = no 


           Directory information
           ---------------------

  0 permanent = .
  0 scratch   = .




                                NWChem Input Module
                                -------------------


                                   3 Ref Closed
                                   ------------

 Scaling coordinates for geometry "geometry" by  1.889725989
 (inverse scale =  0.529177249)



                             Geometry "geometry" -> ""
                             -------------------------

 Output coordinates in angstroms (scale by  1.889725989 to convert to a.u.)

  No.       Tag          Charge          X              Y              Z
 ---- ---------------- ---------- -------------- -------------- --------------
    1 O                    8.0000    -0.67176163     1.75833908     0.05796286
    2 C                    6.0000    -0.58939653     0.42351532     0.05468782
    3 C                    6.0000     0.58452521    -0.29042204    -0.04671415
    4 H                    1.0000     1.52768382     0.24472760    -0.09236700
    5 H                    1.0000     0.12795188     2.35454879    -0.00460579
    6 H                    1.0000    -1.56295531    -0.07143734     0.14203131
    7 C                    6.0000     0.60464746    -1.80194497    -0.04397168
    8 H                    1.0000     1.57639293    -2.32008765    -0.00099407
    9 H                    1.0000     0.15182306    -2.02207849    -1.02286278
   10 H                    1.0000    -0.04546031    -2.23927547     0.73108365

      Atomic Mass 
      ----------- 

      O                 15.994910
      C                 12.000000
      H                  1.007825


 Effective nuclear repulsion energy (a.u.)     115.0654229717

            Nuclear Dipole moment (a.u.) 
            ----------------------------
        X                 Y               Z
 ---------------- ---------------- ----------------
     0.0000000000    -0.0000000000     0.0000000000


            XYZ format geometry
            -------------------
    10
 geometry
 O                    -0.67176163     1.75833908     0.05796286
 C                    -0.58939653     0.42351532     0.05468782
 C                     0.58452521    -0.29042204    -0.04671415
 H                     1.52768382     0.24472760    -0.09236700
 H                     0.12795188     2.35454879    -0.00460579
 H                    -1.56295531    -0.07143734     0.14203131
 C                     0.60464746    -1.80194497    -0.04397168
 H                     1.57639293    -2.32008765    -0.00099407
 H                     0.15182306    -2.02207849    -1.02286278
 H                    -0.04546031    -2.23927547     0.73108365

 ==============================================================================
                                internuclear distances
 ------------------------------------------------------------------------------
       center one      |      center two      | atomic units |  angstroms
 ------------------------------------------------------------------------------
    2 C                |   1 O                |     2.52726  |     1.33737
    3 C                |   2 C                |     2.60349  |     1.37771
    4 H                |   3 C                |     2.05104  |     1.08537
    5 H                |   1 O                |     1.88871  |     0.99946
    6 H                |   2 C                |     2.07046  |     1.09564
    7 C                |   3 C                |     2.85662  |     1.51166
    8 H                |   7 C                |     2.08265  |     1.10209
    9 H                |   7 C                |     2.08019  |     1.10079
   10 H                |   7 C                |     2.08265  |     1.10209
 ------------------------------------------------------------------------------
                         number of included internuclear distances:          9
 ==============================================================================



 ==============================================================================
                                 internuclear angles
 ------------------------------------------------------------------------------
        center 1       |       center 2       |       center 3       |  degrees
 ------------------------------------------------------------------------------
    2 C                |   1 O                |   5 H                |   123.09
    1 O                |   2 C                |   3 C                |   124.74
    1 O                |   2 C                |   6 H                |   113.33
    3 C                |   2 C                |   6 H                |   121.93
    2 C                |   3 C                |   4 H                |   119.21
    2 C                |   3 C                |   7 C                |   121.96
    4 H                |   3 C                |   7 C                |   118.78
    3 C                |   7 C                |   8 H                |   118.81
    3 C                |   7 C                |   9 H                |   101.12
    3 C                |   7 C                |  10 H                |   112.97
    8 H                |   7 C                |   9 H                |   107.66
    8 H                |   7 C                |  10 H                |   107.83
    9 H                |   7 C                |  10 H                |   107.66
 ------------------------------------------------------------------------------
                            number of included internuclear angles:         13
 ==============================================================================




  Deleted DRIVER restart files 



 Summary of "ao basis" -> "" (spherical)
 ------------------------------------------------------------------------------
       Tag                 Description            Shells   Functions and Types
 ---------------- ------------------------------  ------  ---------------------
 *                        aug-cc-pVDZ                 on all atoms 




                           NWChem Geometry Optimization
                           ----------------------------




                                   3 Ref Closed


 maximum gradient threshold         (gmax) =   0.000015
 rms gradient threshold             (grms) =   0.000010
 maximum cartesian step threshold   (xmax) =   0.000060
 rms cartesian step threshold       (xrms) =   0.000040
 fixed trust radius                (trust) =   0.300000
 maximum step size to saddle      (sadstp) =   0.100000
 energy precision                  (eprec) =   1.0D-07
 maximum number of steps          (nptopt) =  999
 initial hessian option           (inhess) =    0
 line search option               (linopt) =    1
 hessian update option            (modupd) =    1
 saddle point option              (modsad) =    0
 initial eigen-mode to follow     (moddir) =    0
 initial variable to follow       (vardir) =    0
 follow first negative mode     (firstneg) =    T
 apply conjugacy                    (opcg) =    F
 source of zmatrix                         =           


          -------------------
          Energy Minimization
          -------------------


 Using diagonal initial Hessian 

          --------
          Step   0
          --------


                         Geometry "geometry" -> "geometry"
                         ---------------------------------

 Output coordinates in angstroms (scale by  1.889725989 to convert to a.u.)

  No.       Tag          Charge          X              Y              Z
 ---- ---------------- ---------- -------------- -------------- --------------
    1 O                    8.0000    -0.67176163     1.75833908     0.05796286
    2 C                    6.0000    -0.58939653     0.42351532     0.05468782
    3 C                    6.0000     0.58452521    -0.29042204    -0.04671415
    4 H                    1.0000     1.52768382     0.24472760    -0.09236700
    5 H                    1.0000     0.12795188     2.35454879    -0.00460579
    6 H                    1.0000    -1.56295531    -0.07143734     0.14203131
    7 C                    6.0000     0.60464746    -1.80194497    -0.04397168
    8 H                    1.0000     1.57639293    -2.32008765    -0.00099407
    9 H                    1.0000     0.15182306    -2.02207849    -1.02286278
   10 H                    1.0000    -0.04546031    -2.23927547     0.73108365

      Atomic Mass 
      ----------- 

      O                 15.994910
      C                 12.000000
      H                  1.007825


 Effective nuclear repulsion energy (a.u.)     115.0654229717

            Nuclear Dipole moment (a.u.) 
            ----------------------------
        X                 Y               Z
 ---------------- ---------------- ----------------
     0.0000000000    -0.0000000000     0.0000000000

                      Basis "ao basis" -> "ao basis" (spherical)
                      -----
  O (Oxygen)
  ----------
            Exponent  Coefficients 
       -------------- ---------------------------------------------------------
  1 S  1.17200000E+04  0.000710
  1 S  1.75900000E+03  0.005470
  1 S  4.00800000E+02  0.027837
  1 S  1.13700000E+02  0.104800
  1 S  3.70300000E+01  0.283062
  1 S  1.32700000E+01  0.448719
  1 S  5.02500000E+00  0.270952
  1 S  1.01300000E+00  0.015458

  2 S  1.17200000E+04 -0.000160
  2 S  1.75900000E+03 -0.001263
  2 S  4.00800000E+02 -0.006267
  2 S  1.13700000E+02 -0.025716
  2 S  3.70300000E+01 -0.070924
  2 S  1.32700000E+01 -0.165411
  2 S  5.02500000E+00 -0.116955
  2 S  1.01300000E+00  0.557368

  3 S  3.02300000E-01  1.000000

  4 S  7.89600000E-02  1.000000

  5 P  1.77000000E+01  0.043018
  5 P  3.85400000E+00  0.228913
  5 P  1.04600000E+00  0.508728

  6 P  2.75300000E-01  1.000000

  7 P  6.85600000E-02  1.000000

  8 D  1.18500000E+00  1.000000

  9 D  3.32000000E-01  1.000000

  C (Carbon)
  ----------
            Exponent  Coefficients 
       -------------- ---------------------------------------------------------
  1 S  6.66500000E+03  0.000692
  1 S  1.00000000E+03  0.005329
  1 S  2.28000000E+02  0.027077
  1 S  6.47100000E+01  0.101718
  1 S  2.10600000E+01  0.274740
  1 S  7.49500000E+00  0.448564
  1 S  2.79700000E+00  0.285074
  1 S  5.21500000E-01  0.015204

  2 S  6.66500000E+03 -0.000146
  2 S  1.00000000E+03 -0.001154
  2 S  2.28000000E+02 -0.005725
  2 S  6.47100000E+01 -0.023312
  2 S  2.10600000E+01 -0.063955
  2 S  7.49500000E+00 -0.149981
  2 S  2.79700000E+00 -0.127262
  2 S  5.21500000E-01  0.544529

  3 S  1.59600000E-01  1.000000

  4 S  4.69000000E-02  1.000000

  5 P  9.43900000E+00  0.038109
  5 P  2.00200000E+00  0.209480
  5 P  5.45600000E-01  0.508557

  6 P  1.51700000E-01  1.000000

  7 P  4.04100000E-02  1.000000

  8 D  5.50000000E-01  1.000000

  9 D  1.51000000E-01  1.000000

  H (Hydrogen)
  ------------
            Exponent  Coefficients 
       -------------- ---------------------------------------------------------
  1 S  1.30100000E+01  0.019685
  1 S  1.96200000E+00  0.137977
  1 S  4.44600000E-01  0.478148

  2 S  1.22000000E-01  1.000000

  3 S  2.97400000E-02  1.000000

  4 P  7.27000000E-01  1.000000

  5 P  1.41000000E-01  1.000000



 Summary of "ao basis" -> "ao basis" (spherical)
 ------------------------------------------------------------------------------
       Tag                 Description            Shells   Functions and Types
 ---------------- ------------------------------  ------  ---------------------
 O                        aug-cc-pVDZ                9       23   4s3p2d
 C                        aug-cc-pVDZ                9       23   4s3p2d
 H                        aug-cc-pVDZ                5        9   3s2p


                                 NWChem SCF Module
                                 -----------------


                                   3 Ref Closed



  ao basis        = "ao basis"
  functions       =   146
  atoms           =    10
  closed shells   =    16
  open shells     =     0
  charge          =   0.00
  wavefunction    = RHF 
  input vectors   = atomic
  output vectors  = ./3R1.movecs
  use symmetry    = F
  symmetry adapt  = F


 Summary of "ao basis" -> "ao basis" (spherical)
 ------------------------------------------------------------------------------
       Tag                 Description            Shells   Functions and Types
 ---------------- ------------------------------  ------  ---------------------
 O                        aug-cc-pVDZ                9       23   4s3p2d
 C                        aug-cc-pVDZ                9       23   4s3p2d
 H                        aug-cc-pVDZ                5        9   3s2p



int_init: setting std/high accuracies to  1.0D-16  1.0D-32

 Forming initial guess at       0.7s


 Forcing the number of linearly dependent vectors to be  0

      Superposition of Atomic Density Guess
      -------------------------------------

 Sum of atomic energies:        -190.76388830

      Non-variational initial energy
      ------------------------------

 Total energy =    -193.005193
 1-e energy   =    -484.702494
 2-e energy   =     176.631878
 HOMO         =      -0.242838
 LUMO         =       0.023093


 Starting SCF solution at       1.0s



 ----------------------------------------------
         Quadratically convergent ROHF

 Convergence threshold     :          1.000E-09
 Maximum no. of iterations :           99
 Final Fock-matrix accuracy:          1.000E-15
 ----------------------------------------------


              iter       energy          gnorm     gmax       time
             ----- ------------------- --------- --------- --------
                 1     -191.8817657510  8.75D-01  1.03D-01      0.7
                 2     -191.9315266704  3.41D-01  5.14D-02      1.1
                 3     -191.9390460979  1.68D-02  3.29D-03      1.7
                 4     -191.9390851616  1.03D-04  2.39D-05      2.8
                 5     -191.9390851633  3.16D-09  4.83D-10      4.7
                 6     -191.9390851633  3.57D-11  5.37D-12      5.5


       Final RHF  results 
       ------------------ 

         Total SCF energy =   -191.939085163259
      One-electron energy =   -488.286267334749
      Two-electron energy =    181.281759199748
 Nuclear repulsion energy =    115.065422971742

        Time for solution =      5.1s


             Final eigenvalues
             -----------------

              1      
    1  -20.5929
    2  -11.3022
    3  -11.2290
    4  -11.2276
    5   -1.3968
    6   -1.0457
    7   -0.9177
    8   -0.8108
    9   -0.6874
   10   -0.6352
   11   -0.5823
   12   -0.5638
   13   -0.5513
   14   -0.5080
   15   -0.4967
   16   -0.3139
   17    0.0346
   18    0.0434
   19    0.0482
   20    0.0628
   21    0.0679
   22    0.0766
   23    0.1138
   24    0.1208
   25    0.1320
   26    0.1374

                       ROHF Final Molecular Orbital Analysis
                       -------------------------------------

 Vector    5  Occ=2.000000D+00  E=-1.396804D+00
              MO Center= -5.7D-01,  1.6D+00,  5.0D-02, r^2= 5.8D-01
   Bfn.  Coefficient  Atom+Function         Bfn.  Coefficient  Atom+Function  
  ----- ------------  ---------------      ----- ------------  ---------------
     3      0.489884   1 O  s                 2      0.419577   1 O  s         
    27     -0.217128   2 C  s                79      0.166291   5 H  s         
    49     -0.156127   3 C  s                50      0.152368   3 C  s         

 Vector    6  Occ=2.000000D+00  E=-1.045737D+00
              MO Center=  2.8D-01, -5.7D-01, -3.2D-02, r^2= 1.8D+00
   Bfn.  Coefficient  Atom+Function         Bfn.  Coefficient  Atom+Function  
  ----- ------------  ---------------      ----- ------------  ---------------
    48      0.281085   3 C  s                98      0.226509   7 C  s         
    25      0.191631   2 C  s                26      0.165978   2 C  s         
    49      0.166631   3 C  s                50     -0.151984   3 C  s         

 Vector    7  Occ=2.000000D+00  E=-9.176879D-01
              MO Center=  7.3D-02, -5.1D-01, -1.6D-02, r^2= 3.5D+00
   Bfn.  Coefficient  Atom+Function         Bfn.  Coefficient  Atom+Function  
  ----- ------------  ---------------      ----- ------------  ---------------
    98     -0.270939   7 C  s                25      0.254238   2 C  s         
     6     -0.185871   1 O  py               26      0.180253   2 C  s         
    50     -0.157890   3 C  s         

 Vector    8  Occ=2.000000D+00  E=-8.107797D-01
              MO Center= -8.0D-02,  4.6D-01,  1.5D-02, r^2= 3.2D+00
   Bfn.  Coefficient  Atom+Function         Bfn.  Coefficient  Atom+Function  
  ----- ------------  ---------------      ----- ------------  ---------------
     6      0.252364   1 O  py               79      0.234242   5 H  s         
    28      0.215146   2 C  px               48      0.203720   3 C  s         
     5      0.188200   1 O  px               49      0.174631   3 C  s         
    70      0.166106   4 H  s                71      0.164542   4 H  s         

 Vector    9  Occ=2.000000D+00  E=-6.874178D-01
              MO Center= -8.3D-02,  3.6D-01,  2.1D-02, r^2= 2.6D+00
   Bfn.  Coefficient  Atom+Function         Bfn.  Coefficient  Atom+Function  
  ----- ------------  ---------------      ----- ------------  ---------------
    29     -0.299910   2 C  py                6      0.283966   1 O  py        
    50      0.264457   3 C  s                51     -0.244170   3 C  px        
    70     -0.230815   4 H  s                27     -0.223729   2 C  s         
    71     -0.222865   4 H  s                88      0.214489   6 H  s         
    89      0.213428   6 H  s                79      0.189343   5 H  s         

 Vector   10  Occ=2.000000D+00  E=-6.352030D-01
              MO Center= -2.2D-01,  4.5D-01,  4.2D-02, r^2= 3.3D+00
   Bfn.  Coefficient  Atom+Function         Bfn.  Coefficient  Atom+Function  
  ----- ------------  ---------------      ----- ------------  ---------------
     5      0.331222   1 O  px               28      0.236667   2 C  px        
     8      0.230619   1 O  px              102     -0.191031   7 C  py        
     6     -0.185187   1 O  py               51     -0.166047   3 C  px        
    88     -0.155866   6 H  s                52      0.150212   3 C  py        
    89     -0.150325   6 H  s         

 Vector   11  Occ=2.000000D+00  E=-5.823087D-01
              MO Center= -2.5D-01,  4.3D-01, -6.9D-03, r^2= 3.5D+00
   Bfn.  Coefficient  Atom+Function         Bfn.  Coefficient  Atom+Function  
  ----- ------------  ---------------      ----- ------------  ---------------
     7      0.438272   1 O  pz               10      0.322860   1 O  pz        
    30      0.207361   2 C  pz              103      0.205806   7 C  pz        
   129     -0.170306   9 H  s         

 Vector   12  Occ=2.000000D+00  E=-5.637620D-01
              MO Center=  3.1D-01, -8.0D-01, -3.6D-02, r^2= 3.9D+00
   Bfn.  Coefficient  Atom+Function         Bfn.  Coefficient  Atom+Function  
  ----- ------------  ---------------      ----- ------------  ---------------
   120      0.295468   8 H  s               101      0.275965   7 C  px        
     7     -0.219872   1 O  pz              121      0.218082   8 H  s         
    55      0.210996   3 C  py               88      0.188707   6 H  s         
    71      0.173426   4 H  s               102     -0.172502   7 C  py        
    89      0.169248   6 H  s                10     -0.163267   1 O  pz        

 Vector   13  Occ=2.000000D+00  E=-5.513292D-01
              MO Center=  6.5D-02, -9.3D-01,  1.4D-02, r^2= 3.9D+00
   Bfn.  Coefficient  Atom+Function         Bfn.  Coefficient  Atom+Function  
  ----- ------------  ---------------      ----- ------------  ---------------
   103      0.336139   7 C  pz              138      0.286748  10 H  s         
     7     -0.267176   1 O  pz              139      0.234866  10 H  s         
   129     -0.224836   9 H  s                10     -0.199483   1 O  pz        
     5     -0.150906   1 O  px        

 Vector   14  Occ=2.000000D+00  E=-5.080002D-01
              MO Center= -1.1D-01,  2.7D-01, -5.3D-03, r^2= 3.5D+00
   Bfn.  Coefficient  Atom+Function         Bfn.  Coefficient  Atom+Function  
  ----- ------------  ---------------      ----- ------------  ---------------
     5      0.351902   1 O  px               52     -0.293711   3 C  py        
   105      0.264253   7 C  py              102      0.261770   7 C  py        
     8      0.252456   1 O  px               28     -0.208461   2 C  px        
    50      0.204971   3 C  s                31     -0.188945   2 C  px        
     6     -0.172495   1 O  py              100     -0.163340   7 C  s         

 Vector   15  Occ=2.000000D+00  E=-4.967096D-01
              MO Center=  5.2D-01, -9.2D-01, -3.4D-02, r^2= 2.8D+00
   Bfn.  Coefficient  Atom+Function         Bfn.  Coefficient  Atom+Function  
  ----- ------------  ---------------      ----- ------------  ---------------
    71      0.368140   4 H  s               105     -0.300670   7 C  py        
   121     -0.299410   8 H  s                70      0.273947   4 H  s         
   101     -0.273933   7 C  px               50     -0.243906   3 C  s         
    51      0.242379   3 C  px               99     -0.224732   7 C  s         
   120     -0.193524   8 H  s                55     -0.187957   3 C  py        

 Vector   16  Occ=2.000000D+00  E=-3.138885D-01
              MO Center=  2.3D-02,  6.2D-02, -2.4D-02, r^2= 2.3D+00
   Bfn.  Coefficient  Atom+Function         Bfn.  Coefficient  Atom+Function  
  ----- ------------  ---------------      ----- ------------  ---------------
    53      0.383892   3 C  pz               30      0.323777   2 C  pz        
    56      0.287383   3 C  pz                7     -0.263822   1 O  pz        
    33      0.247617   2 C  pz               10     -0.218699   1 O  pz        
   130      0.174986   9 H  s         

 Vector   17  Occ=0.000000D+00  E= 3.458548D-02
              MO Center=  1.9D+00,  1.7D+00, -6.3D-02, r^2= 1.6D+01
   Bfn.  Coefficient  Atom+Function         Bfn.  Coefficient  Atom+Function  
  ----- ------------  ---------------      ----- ------------  ---------------
    27      6.858406   2 C  s                50     -6.602930   3 C  s         
   100      5.196707   7 C  s                72     -3.218893   4 H  s         
    57      2.560449   3 C  px               58      1.712629   3 C  py        
    81     -1.381703   5 H  s                 4     -1.366251   1 O  s         
    34      1.135271   2 C  px              108      0.964468   7 C  py        

 Vector   18  Occ=0.000000D+00  E= 4.337296D-02
              MO Center=  3.8D-01, -1.8D+00,  1.3D-01, r^2= 2.2D+01
   Bfn.  Coefficient  Atom+Function         Bfn.  Coefficient  Atom+Function  
  ----- ------------  ---------------      ----- ------------  ---------------
   122     -1.906063   8 H  s               100      1.805307   7 C  s         
   140     -1.349261  10 H  s                72      1.308461   4 H  s         
    81      1.225917   5 H  s               108     -0.979181   7 C  py        
    90     -0.907139   6 H  s               121     -0.890587   8 H  s         
    89     -0.846608   6 H  s               131     -0.827510   9 H  s         

 Vector   19  Occ=0.000000D+00  E= 4.824417D-02
              MO Center= -6.1D-01, -6.8D-01,  9.5D-02, r^2= 2.5D+01
   Bfn.  Coefficient  Atom+Function         Bfn.  Coefficient  Atom+Function  
  ----- ------------  ---------------      ----- ------------  ---------------
    27      5.052288   2 C  s                90      4.586614   6 H  s         
    50     -4.152045   3 C  s                34      3.667374   2 C  px        
   122     -2.800385   8 H  s                57      2.477348   3 C  px        
    72     -2.374696   4 H  s                58     -2.216707   3 C  py        
   100     -2.070756   7 C  s               108     -1.303087   7 C  py        

 Vector   20  Occ=0.000000D+00  E= 6.277495D-02
              MO Center= -5.5D-01, -2.5D+00, -8.1D-01, r^2= 1.8D+01
   Bfn.  Coefficient  Atom+Function         Bfn.  Coefficient  Atom+Function  
  ----- ------------  ---------------      ----- ------------  ---------------
   131      5.226292   9 H  s               140     -4.315552  10 H  s         
    27      2.802640   2 C  s               109      2.297920   7 C  pz        
    50     -1.522211   3 C  s                57      1.377014   3 C  px        
    72     -1.105664   4 H  s               130      0.885432   9 H  s         
   100     -0.805119   7 C  s                59     -0.713301   3 C  pz        

 Vector   21  Occ=0.000000D+00  E= 6.785671D-02
              MO Center=  3.9D-01,  2.1D-01,  9.6D-02, r^2= 2.8D+01
   Bfn.  Coefficient  Atom+Function         Bfn.  Coefficient  Atom+Function  
  ----- ------------  ---------------      ----- ------------  ---------------
    72      5.308725   4 H  s                90      4.513864   6 H  s         
    58     -3.534670   3 C  py               81     -2.975208   5 H  s         
    34      2.625747   2 C  px              140     -2.632823  10 H  s         
    50     -2.068106   3 C  s                35      1.931846   2 C  py        
    57     -1.665936   3 C  px              131     -1.582612   9 H  s         

 Vector   22  Occ=0.000000D+00  E= 7.659252D-02
              MO Center=  8.7D-01, -1.6D+00,  2.2D-01, r^2= 2.6D+01
   Bfn.  Coefficient  Atom+Function         Bfn.  Coefficient  Atom+Function  
  ----- ------------  ---------------      ----- ------------  ---------------
   122      6.424124   8 H  s               140     -4.557936  10 H  s         
    72     -3.893015   4 H  s                90      3.726494   6 H  s         
   107     -3.227897   7 C  px              131     -2.615517   9 H  s         
    57      2.573016   3 C  px               34      2.184932   2 C  px        
    27      2.078291   2 C  s                58     -1.487491   3 C  py        

 Vector   23  Occ=0.000000D+00  E= 1.138124D-01
              MO Center= -5.9D-04, -8.0D-02, -2.0D-02, r^2= 1.2D+01
   Bfn.  Coefficient  Atom+Function         Bfn.  Coefficient  Atom+Function  
  ----- ------------  ---------------      ----- ------------  ---------------
    36      2.590122   2 C  pz               59     -2.531526   3 C  pz        
   100      1.299242   7 C  s               131      0.941873   9 H  s         
    57     -0.778758   3 C  px               27     -0.720018   2 C  s         
   109      0.706687   7 C  pz               13     -0.662756   1 O  pz        
    58      0.649747   3 C  py              108      0.650593   7 C  py        

 Vector   24  Occ=0.000000D+00  E= 1.207977D-01
              MO Center=  3.9D-01, -1.0D+00,  2.0D-01, r^2= 1.8D+01
   Bfn.  Coefficient  Atom+Function         Bfn.  Coefficient  Atom+Function  
  ----- ------------  ---------------      ----- ------------  ---------------
   100    -12.095782   7 C  s                50     11.873355   3 C  s         
   108     -5.945750   7 C  py               58     -5.448200   3 C  py        
     4      3.647442   1 O  s                72      2.333226   4 H  s         
   131     -2.067237   9 H  s               140     -1.925869  10 H  s         
    35     -1.888558   2 C  py               57      1.781769   3 C  px        

 Vector   25  Occ=0.000000D+00  E= 1.319767D-01
              MO Center= -6.1D-01, -1.0D-01,  8.5D-02, r^2= 2.1D+01
   Bfn.  Coefficient  Atom+Function         Bfn.  Coefficient  Atom+Function  
  ----- ------------  ---------------      ----- ------------  ---------------
    50     30.106246   3 C  s                27    -21.860751   2 C  s         
    57     -9.155542   3 C  px              100     -8.070576   7 C  s         
    34     -7.901098   2 C  px               72      7.882986   4 H  s         
    35      6.048060   2 C  py               90     -4.447471   6 H  s         
   108     -3.348970   7 C  py               81     -2.485687   5 H  s         

 Vector   26  Occ=0.000000D+00  E= 1.374381D-01
              MO Center=  1.1D-01,  6.6D-02, -1.2D-02, r^2= 1.4D+01
   Bfn.  Coefficient  Atom+Function         Bfn.  Coefficient  Atom+Function  
  ----- ------------  ---------------      ----- ------------  ---------------
    50      5.716811   3 C  s                27     -3.967262   2 C  s         
    34     -1.958546   2 C  px               57     -1.561876   3 C  px        
    72      1.334164   4 H  s                59     -1.154059   3 C  pz        
    90     -1.129331   6 H  s               109      1.082486   7 C  pz        
    35      1.012514   2 C  py              100     -1.010014   7 C  s         

 Vector   27  Occ=0.000000D+00  E= 1.496937D-01
              MO Center=  1.3D+00,  1.3D+00, -2.3D-02, r^2= 1.4D+01
   Bfn.  Coefficient  Atom+Function         Bfn.  Coefficient  Atom+Function  
  ----- ------------  ---------------      ----- ------------  ---------------
   100     14.850383   7 C  s                58     10.888378   3 C  py        
    50    -10.120542   3 C  s                72     -4.017687   4 H  s         
   108      2.803244   7 C  py               35     -2.239148   2 C  py        
   122      2.234495   8 H  s                27     -1.502032   2 C  s         
    81     -1.424066   5 H  s                89      1.423155   6 H  s         

 Vector   28  Occ=0.000000D+00  E= 1.555348D-01
              MO Center=  9.5D-01,  9.0D-02, -1.3D-01, r^2= 1.9D+01
   Bfn.  Coefficient  Atom+Function         Bfn.  Coefficient  Atom+Function  
  ----- ------------  ---------------      ----- ------------  ---------------
    27     26.722418   2 C  s                50    -13.858392   3 C  s         
    57     10.383066   3 C  px               58     -8.297025   3 C  py        
    34      7.278034   2 C  px                4     -5.972074   1 O  s         
   100     -5.699205   7 C  s                90      4.452988   6 H  s         
    72     -4.145865   4 H  s               107     -2.803421   7 C  px        

 Vector   29  Occ=0.000000D+00  E= 1.656040D-01
              MO Center= -2.2D-01, -1.8D+00,  3.3D-01, r^2= 1.9D+01
   Bfn.  Coefficient  Atom+Function         Bfn.  Coefficient  Atom+Function  
  ----- ------------  ---------------      ----- ------------  ---------------
    34      7.726723   2 C  px               90      7.284899   6 H  s         
   100     -7.313335   7 C  s                58     -6.606980   3 C  py        
    27      6.354781   2 C  s               108     -6.110257   7 C  py        
   122     -4.566545   8 H  s               140     -3.876118  10 H  s         
   107      2.861066   7 C  px               72      2.070771   4 H  s         

 Vector   30  Occ=0.000000D+00  E= 1.730844D-01
              MO Center= -2.0D-01, -1.7D+00,  1.0D+00, r^2= 1.5D+01
   Bfn.  Coefficient  Atom+Function         Bfn.  Coefficient  Atom+Function  
  ----- ------------  ---------------      ----- ------------  ---------------
    27      7.057714   2 C  s               140     -5.453955  10 H  s         
   100      4.850922   7 C  s               109      4.405773   7 C  pz        
   131      4.005935   9 H  s                57      3.978605   3 C  px        
   139     -3.348255  10 H  s                90     -2.712638   6 H  s         
    50     -2.559381   3 C  s               107     -2.435489   7 C  px        

 Vector   31  Occ=0.000000D+00  E= 1.764072D-01
              MO Center=  1.4D-01, -2.0D+00, -1.3D+00, r^2= 1.3D+01
   Bfn.  Coefficient  Atom+Function         Bfn.  Coefficient  Atom+Function  
  ----- ------------  ---------------      ----- ------------  ---------------
   100      8.660500   7 C  s               131     -3.868438   9 H  s         
   130     -3.295086   9 H  s               109     -3.163709   7 C  pz        
   140      3.025211  10 H  s                90     -2.670441   6 H  s         
   121     -2.614251   8 H  s                58      2.509621   3 C  py        
   122     -2.345329   8 H  s                57     -2.309992   3 C  px        

 Vector   32  Occ=0.000000D+00  E= 1.833740D-01
              MO Center= -1.0D-02, -1.1D+00, -8.6D-02, r^2= 1.8D+01
   Bfn.  Coefficient  Atom+Function         Bfn.  Coefficient  Atom+Function  
  ----- ------------  ---------------      ----- ------------  ---------------
    27     13.189384   2 C  s                50    -10.757572   3 C  s         
    34      8.444576   2 C  px               58     -8.283431   3 C  py        
    90      5.627886   6 H  s               107     -5.514514   7 C  px        
   122      4.885595   8 H  s               140     -4.443463  10 H  s         
   131     -4.383294   9 H  s               100     -3.979975   7 C  s         

 Vector   33  Occ=0.000000D+00  E= 2.093675D-01
              MO Center=  1.1D-01,  8.5D-02, -9.9D-02, r^2= 9.2D+00
   Bfn.  Coefficient  Atom+Function         Bfn.  Coefficient  Atom+Function  
  ----- ------------  ---------------      ----- ------------  ---------------
    59      3.198155   3 C  pz              109     -2.198407   7 C  pz        
    36     -1.906121   2 C  pz               50     -1.910438   3 C  s         
    27      1.868623   2 C  s               140      1.875186  10 H  s         
   122     -1.127044   8 H  s               107      1.119733   7 C  px        
   139      0.932218  10 H  s                90     -0.797518   6 H  s         

 Vector   34  Occ=0.000000D+00  E= 2.178722D-01
              MO Center=  8.0D-01,  1.3D+00, -4.5D-02, r^2= 1.4D+01
   Bfn.  Coefficient  Atom+Function         Bfn.  Coefficient  Atom+Function  
  ----- ------------  ---------------      ----- ------------  ---------------
    50      6.764934   3 C  s                72     -5.024167   4 H  s         
   122      3.761001   8 H  s                27     -3.618529   2 C  s         
    71     -3.353584   4 H  s                58      2.807697   3 C  py        
   107     -2.585363   7 C  px                4     -2.432066   1 O  s         
    80      2.362464   5 H  s                81      2.092264   5 H  s         

 Vector   35  Occ=0.000000D+00  E= 2.400569D-01
              MO Center= -3.7D-01, -6.7D-01, -8.2D-02, r^2= 1.5D+01
   Bfn.  Coefficient  Atom+Function         Bfn.  Coefficient  Atom+Function  
  ----- ------------  ---------------      ----- ------------  ---------------
    27     33.989576   2 C  s               100    -23.596773   7 C  s         
    58    -11.197328   3 C  py               50     -7.539188   3 C  s         
    34      7.162619   2 C  px               57      7.104347   3 C  px        
   108     -7.129802   7 C  py                4     -4.275703   1 O  s         
    35     -3.989172   2 C  py              122     -3.712199   8 H  s         

 Vector   36  Occ=0.000000D+00  E= 2.594178D-01
              MO Center=  3.5D-01, -5.0D-01,  9.9D-02, r^2= 1.3D+01
   Bfn.  Coefficient  Atom+Function         Bfn.  Coefficient  Atom+Function  
  ----- ------------  ---------------      ----- ------------  ---------------
    50     37.729238   3 C  s               100    -21.137749   7 C  s         
    27    -17.312033   2 C  s               108     -6.412738   7 C  py        
    71     -5.432208   4 H  s                 4      5.379261   1 O  s         
    58     -5.136436   3 C  py               34     -4.329579   2 C  px        
    57     -3.988087   3 C  px               72      2.733521   4 H  s         

 Vector   37  Occ=0.000000D+00  E= 2.638338D-01
              MO Center= -7.9D-01,  1.3D+00, -1.7D-01, r^2= 9.7D+00
   Bfn.  Coefficient  Atom+Function         Bfn.  Coefficient  Atom+Function  
  ----- ------------  ---------------      ----- ------------  ---------------
    50      8.963367   3 C  s                27     -5.925832   2 C  s         
   100     -3.466566   7 C  s                13      2.345898   1 O  pz        
    36     -2.007462   2 C  pz               34     -1.958680   2 C  px        
    57     -1.675243   3 C  px                4      1.627906   1 O  s         
   140      1.562142  10 H  s               131     -1.381685   9 H  s         

 Vector   38  Occ=0.000000D+00  E= 2.834110D-01
              MO Center= -4.9D-01,  1.3D+00,  5.2D-02, r^2= 1.2D+01
   Bfn.  Coefficient  Atom+Function         Bfn.  Coefficient  Atom+Function  
  ----- ------------  ---------------      ----- ------------  ---------------
    50    -12.245011   3 C  s                27     12.022078   2 C  s         
    57      6.453140   3 C  px               58     -3.648191   3 C  py        
    12     -3.389464   1 O  py               72     -3.193247   4 H  s         
    26      2.605900   2 C  s                89     -2.254593   6 H  s         
   107     -2.230815   7 C  px               49     -1.894384   3 C  s         

 Vector   39  Occ=0.000000D+00  E= 3.052706D-01
              MO Center=  8.6D-02, -1.4D+00,  2.4D-02, r^2= 8.2D+00
   Bfn.  Coefficient  Atom+Function         Bfn.  Coefficient  Atom+Function  
  ----- ------------  ---------------      ----- ------------  ---------------
    50      6.523511   3 C  s               100     -5.300766   7 C  s         
    58     -3.699513   3 C  py               27     -2.482431   2 C  s         
    72      2.036507   4 H  s                35      1.736043   2 C  py        
   139     -1.395883  10 H  s                34     -1.331847   2 C  px        
    57     -1.210225   3 C  px                4      1.076750   1 O  s         

 Vector   40  Occ=0.000000D+00  E= 3.178561D-01
              MO Center= -1.4D-01,  5.2D-02,  8.3D-02, r^2= 1.2D+01
   Bfn.  Coefficient  Atom+Function         Bfn.  Coefficient  Atom+Function  
  ----- ------------  ---------------      ----- ------------  ---------------
    50     31.001316   3 C  s                27    -18.511366   2 C  s         
   100    -15.383566   7 C  s                34     -7.176456   2 C  px        
    57     -6.913065   3 C  px               58     -5.678644   3 C  py        
    72      5.649742   4 H  s                35      4.126160   2 C  py        
   108     -3.550644   7 C  py               90     -3.419414   6 H  s         

 Vector   41  Occ=0.000000D+00  E= 3.371079D-01
              MO Center= -6.8D-01, -7.5D-02,  1.0D-01, r^2= 9.8D+00
   Bfn.  Coefficient  Atom+Function         Bfn.  Coefficient  Atom+Function  
  ----- ------------  ---------------      ----- ------------  ---------------
    50     25.391947   3 C  s                27    -17.672662   2 C  s         
   100     -9.075946   7 C  s                35      5.932132   2 C  py        
    89      5.622701   6 H  s                57     -4.471539   3 C  px        
    54      4.369382   3 C  px               31      4.304107   2 C  px        
    58     -4.274023   3 C  py               26      3.757996   2 C  s         

 Vector   42  Occ=0.000000D+00  E= 3.503465D-01
              MO Center= -1.1D-01,  5.9D-01, -2.6D-02, r^2= 1.2D+01
   Bfn.  Coefficient  Atom+Function         Bfn.  Coefficient  Atom+Function  
  ----- ------------  ---------------      ----- ------------  ---------------
   100      9.154209   7 C  s                58      4.806242   3 C  py        
    34     -4.549520   2 C  px               50     -4.285339   3 C  s         
    11      3.185510   1 O  px               90     -2.986557   6 H  s         
   108      2.441023   7 C  py               80     -2.036350   5 H  s         
    35      1.823840   2 C  py               26      1.725988   2 C  s         

 Vector   43  Occ=0.000000D+00  E= 3.652355D-01
              MO Center=  6.1D-01, -3.1D-01,  3.5D-02, r^2= 9.3D+00
   Bfn.  Coefficient  Atom+Function         Bfn.  Coefficient  Atom+Function  
  ----- ------------  ---------------      ----- ------------  ---------------
    27     18.040008   2 C  s                50    -12.648366   3 C  s         
    58     -9.604723   3 C  py              100     -7.649162   7 C  s         
    34      6.972075   2 C  px               90      4.291986   6 H  s         
    57      3.815354   3 C  px              108     -3.143416   7 C  py        
    71      2.879398   4 H  s               140     -1.748609  10 H  s         

 Vector   44  Occ=0.000000D+00  E= 3.750645D-01
              MO Center=  7.9D-01, -1.1D+00,  2.0D-02, r^2= 8.5D+00
   Bfn.  Coefficient  Atom+Function         Bfn.  Coefficient  Atom+Function  
  ----- ------------  ---------------      ----- ------------  ---------------
    27      5.654151   2 C  s                58     -4.309479   3 C  py        
     4     -3.024770   1 O  s               100     -2.560752   7 C  s         
    55      2.419643   3 C  py              105      2.247317   7 C  py        
    57      1.981116   3 C  px               35      1.868749   2 C  py        
   107     -1.766237   7 C  px               31     -1.646980   2 C  px        

 Vector   45  Occ=0.000000D+00  E= 3.830914D-01
              MO Center=  4.0D-01, -1.2D+00, -7.7D-02, r^2= 8.9D+00
   Bfn.  Coefficient  Atom+Function         Bfn.  Coefficient  Atom+Function  
  ----- ------------  ---------------      ----- ------------  ---------------
    27      3.638186   2 C  s               100     -2.689845   7 C  s         
   139      2.636231  10 H  s               130     -1.941669   9 H  s         
    50     -1.926101   3 C  s                58     -1.680987   3 C  py        
    36      1.323796   2 C  pz              106     -1.252663   7 C  pz        
    13     -1.239281   1 O  pz               57      1.189090   3 C  px        

 Vector   46  Occ=0.000000D+00  E= 4.046244D-01
              MO Center=  3.7D-01, -8.3D-01,  9.1D-02, r^2= 1.0D+01
   Bfn.  Coefficient  Atom+Function         Bfn.  Coefficient  Atom+Function  
  ----- ------------  ---------------      ----- ------------  ---------------
    71      4.668631   4 H  s                34      4.616973   2 C  px        
    57     -3.867818   3 C  px              121     -3.161787   8 H  s         
     4     -3.117551   1 O  s                90      2.769753   6 H  s         
    50     -2.731171   3 C  s               105     -2.666210   7 C  py        
   107      2.483866   7 C  px               72      2.446325   4 H  s         

 Vector   47  Occ=0.000000D+00  E= 4.117297D-01
              MO Center= -3.0D-01,  1.5D-01, -1.1D-01, r^2= 8.7D+00
   Bfn.  Coefficient  Atom+Function         Bfn.  Coefficient  Atom+Function  
  ----- ------------  ---------------      ----- ------------  ---------------
    27     14.897707   2 C  s                50     -8.579978   3 C  s         
     4     -7.684307   1 O  s                34      7.139503   2 C  px        
   100     -6.350216   7 C  s                58     -4.854593   3 C  py        
    90      3.681238   6 H  s                80      3.199311   5 H  s         
    11     -2.494968   1 O  px               71      2.029480   4 H  s         

 Vector   48  Occ=0.000000D+00  E= 4.298626D-01
              MO Center=  1.1D-01, -3.2D-01,  1.5D-01, r^2= 1.1D+01
   Bfn.  Coefficient  Atom+Function         Bfn.  Coefficient  Atom+Function  
  ----- ------------  ---------------      ----- ------------  ---------------
    27     23.427596   2 C  s                50    -16.587799   3 C  s         
     4    -10.083126   1 O  s                34      7.798587   2 C  px        
    57      7.373316   3 C  px              100     -5.254384   7 C  s         
    90      3.942505   6 H  s               121      3.877649   8 H  s         
    58     -3.838060   3 C  py               89      3.474596   6 H  s         

 Vector   49  Occ=0.000000D+00  E= 4.424692D-01
              MO Center=  2.5D-02,  1.5D+00,  8.4D-04, r^2= 7.4D+00
   Bfn.  Coefficient  Atom+Function         Bfn.  Coefficient  Atom+Function  
  ----- ------------  ---------------      ----- ------------  ---------------
   100      3.824716   7 C  s                50     -3.046569   3 C  s         
    87      1.612611   5 H  pz               13     -1.423202   1 O  pz        
    58      1.118844   3 C  py              139     -1.074037  10 H  s         
    36      1.006615   2 C  pz              121     -1.004856   8 H  s         
    26      0.990572   2 C  s                55     -0.993842   3 C  py        

 Vector   50  Occ=0.000000D+00  E= 4.442748D-01
              MO Center=  2.8D-01, -6.1D-01, -6.4D-02, r^2= 1.1D+01
   Bfn.  Coefficient  Atom+Function         Bfn.  Coefficient  Atom+Function  
  ----- ------------  ---------------      ----- ------------  ---------------
    27     19.411456   2 C  s                50    -14.873621   3 C  s         
    57      6.963529   3 C  px                4     -4.838854   1 O  s         
    72     -4.447684   4 H  s               130      3.901181   9 H  s         
    35     -3.597413   2 C  py              139      3.331076  10 H  s         
   122     -3.198467   8 H  s               107      3.066825   7 C  px        

 Vector   51  Occ=0.000000D+00  E= 4.673781D-01
              MO Center= -4.1D-01,  8.1D-02, -2.3D-01, r^2= 1.0D+01
   Bfn.  Coefficient  Atom+Function         Bfn.  Coefficient  Atom+Function  
  ----- ------------  ---------------      ----- ------------  ---------------
    27     11.320217   2 C  s                 4     -9.894639   1 O  s         
   100      7.460377   7 C  s                50     -6.932625   3 C  s         
    99      4.591830   7 C  s                31     -3.984795   2 C  px        
    49      3.939831   3 C  s               130     -3.830842   9 H  s         
    32      3.120376   2 C  py               54     -3.080457   3 C  px        

 Vector   52  Occ=0.000000D+00  E= 4.713828D-01
              MO Center=  1.4D-01, -1.4D+00, -1.2D-01, r^2= 9.9D+00
   Bfn.  Coefficient  Atom+Function         Bfn.  Coefficient  Atom+Function  
  ----- ------------  ---------------      ----- ------------  ---------------
   100     17.708130   7 C  s                50    -13.364013   3 C  s         
   130     -8.278055   9 H  s                55     -6.242603   3 C  py        
    26      5.418188   2 C  s               105     -5.006060   7 C  py        
    58      4.256661   3 C  py               31      3.838748   2 C  px        
   108      3.355568   7 C  py              131     -2.952042   9 H  s         

 Vector   53  Occ=0.000000D+00  E= 4.811186D-01
              MO Center=  6.6D-01, -1.5D+00,  1.2D-01, r^2= 9.0D+00
   Bfn.  Coefficient  Atom+Function         Bfn.  Coefficient  Atom+Function  
  ----- ------------  ---------------      ----- ------------  ---------------
    50     11.798566   3 C  s                27     -9.416312   2 C  s         
   100     -9.015066   7 C  s               139      8.697186  10 H  s         
    57     -4.423154   3 C  px              140      4.229759  10 H  s         
   109     -4.140293   7 C  pz              106     -3.798920   7 C  pz        
   130     -3.546082   9 H  s               107      2.726333   7 C  px        

 Vector   54  Occ=0.000000D+00  E= 5.076320D-01
              MO Center=  3.6D-01,  2.2D-01, -2.8D-02, r^2= 9.4D+00
   Bfn.  Coefficient  Atom+Function         Bfn.  Coefficient  Atom+Function  
  ----- ------------  ---------------      ----- ------------  ---------------
    27     10.375111   2 C  s               100     -5.711533   7 C  s         
   121      4.469025   8 H  s                50     -3.279701   3 C  s         
    89     -3.169275   6 H  s                31     -2.977890   2 C  px        
    55      2.794184   3 C  py              104     -2.513802   7 C  px        
    12      2.340816   1 O  py               58     -2.215286   3 C  py        


 center of mass
 --------------
 x =  -0.05724097 y =   0.13065302 z =   0.00799238

 moments of inertia (a.u.)
 ------------------
         404.657422201780         142.764955832321           7.881289723211
         142.764955832321         103.349719544911         -12.133496867892
           7.881289723211         -12.133496867892         495.436782356249

  Mulliken analysis of the total density
  --------------------------------------

    Atom       Charge   Shell Charges
 -----------   ------   -------------------------------------------------------
    1 O    8     8.74   2.00  0.81  1.00  0.14  2.85  1.83  0.08  0.01  0.01
    2 C    6     5.22   2.01  0.66  0.52 -0.16  1.91  0.28  0.04  0.14 -0.19
    3 C    6     5.66   2.01  0.65  0.34 -0.20  1.99  0.65  0.05  0.07  0.10
    4 H    1     1.47   0.78  0.67  0.03  0.03 -0.03
    5 H    1     0.79   0.68  0.03 -0.01  0.07  0.02
    6 H    1     1.29   0.77  0.50  0.01  0.03 -0.01
    7 C    6     5.81   2.01  0.65  0.18  0.16  2.03  0.76  0.04  0.07 -0.08
    8 H    1     1.11   0.76  0.35  0.01  0.03 -0.04
    9 H    1     0.90   0.76  0.14 -0.01  0.03 -0.03
   10 H    1     1.01   0.76  0.26  0.01  0.03 -0.05

       Multipole analysis of the density wrt the origin
       ------------------------------------------------

     L   x y z        total         open         nuclear
     -   - - -        -----         ----         -------
     0   0 0 0     -0.000000      0.000000     32.000000

     1   1 0 0      0.410076      0.000000      0.000000
     1   0 1 0      0.018400      0.000000     -0.000000
     1   0 0 1     -0.034265      0.000000      0.000000

     2   2 0 0    -18.216886      0.000000     61.569431
     2   1 1 0      2.737734      0.000000    -77.059184
     2   1 0 1     -0.199764      0.000000     -4.935334
     2   0 2 0    -17.208881      0.000000    235.308867
     2   0 1 1     -0.340250      0.000000      6.788749
     2   0 0 2    -20.663938      0.000000      5.995727

                   NWChem MP2 Semi-direct Energy/Gradient Module
                   ---------------------------------------------


                                   3 Ref Closed



int_init: setting std/high accuracies to  1.0D-16  1.0D-32
  Basis functions       =    146
  Molecular orbitals    =    146
  Frozen core           =      4
  Frozen virtuals       =      0
  Active alpha occupied =     12
  Active beta occupied  =     12
  Active alpha virtual  =    130
  Active beta virtual   =    130
  Use MO symmetry       = F
  Use skeleton AO sym   = F

  AO/Fock/Back tols     =   1.0D-15  1.0D-15  1.0D-15

 GA uses MA = F    GA memory limited = T

 Available: 
  local mem=  2.12D+09
 global mem=  5.90D+08
 local disk=  0.00D+00

int_init: setting std/high accuracies to  1.0D-16  1.0D-32
  mp2_memr nvloc                     3
  nvloc new                     3
   1 passes of  12:        5242880                      41850                   1393854.
   1 passes of  12: M   2121676098           G      589821304           F    2116433218.

 Semi-direct pass number   1 of   1  for RHF alpha+beta  at        6.8s

int_init: setting std/high accuracies to  1.0D-16  1.0D-32
  vrange nnbf                 10728
  mp2_eaftype                    10  avail_ma_in_mb                 18499
 EAF : mp2_eaftype filesize          10     674800.
  mp2_eaf for mointskh                     10
Node 0 wrote      3.1 Mb in      0.0 s     Agg I/O rate: 33424.0 Mb/s
 Done moints_semi at        7.2s
  mp2_eaftype                    10  avail_ma_in_mb                 18489
 EAF : mp2_eaftype filesize          10     674800.
  mp2_eaf for kh                    10
  mp2_eaftype                    10  avail_ma_in_mb                 18489
 EAF : mp2_eaftype filesize          10     112320.
  mp2_eaf for ta tb                    10
  mp2_eaf for ta                     10
  mp2_eaf for tb                     10
 Done maket at        7.2s
 Done pijab at        7.2s
 Done wijab at        7.2s
 Done lai at        7.2s

int_init: setting std/high accuracies to  1.0D-16  1.0D-32
  mp2_eaftype                    10  avail_ma_in_mb                 18468
 EAF : mp2_eaftype filesize          10     476544.
  mp2_eaf for 2pdm                     10
 Done nonsep at        8.0s
 Done multipass loop at        8.0s


          -------------------------------------------
          SCF energy                -191.939085163259
          Correlation energy          -0.633896460975
          Singlet pairs               -0.400345598034
          Triplet pairs               -0.233550862941
          Total MP2 energy          -192.572981624234
          -------------------------------------------



          ---------------------------------------------------
                    Spin Component Scaled (SCS) MP2
          Same spin pairs                     -0.155700575294
          Same spin scaling factor             0.333333333333
          Opposite spin pairs                 -0.478195885681
          Opposite spin scaling fact.          1.200000000000
          SCS-MP2 correlation energy          -0.625735254582
          Total SCS-MP2 energy              -192.564820417841
          ---------------------------------------------------

 Start laifock at        8.0s

int_init: setting std/high accuracies to  1.0D-16  1.0D-32
 Done laifock at        8.4s
                                NWChem CPHF Module
                                ------------------



int_init: setting std/high accuracies to  1.0D-16  1.0D-32
    scftype = RHF 
    nclosed =   16
      nopen =    0
  variables =     2080
  tolerance =   1.0D-06
  max. iter =  999

 SCF residual:    3.5816786354729496E-011

            ----- linear solve (tol: 1.0E-06 prod-acc: 3.0E-14) -----

               iter nbas    rnorm     rnorm-scal   ratio     time
               ---- ---- ----------- ----------- --------- -------
                  1    1  4.1194E-02  2.9761E-01    0.0000     7.6
                  2    2  1.1212E-02  8.1000E-02    0.2722     7.8
                  3    3  3.1488E-03  2.2749E-02    0.2808     8.0
                  4    4  1.0811E-03  7.8109E-03    0.3434     8.2
                  5    5  3.1349E-04  2.2649E-03    0.2900     8.4
                  6    6  9.6297E-05  6.9571E-04    0.3072     8.5
                  7    7  2.4630E-05  1.7794E-04    0.2558     8.7
                  8    8  5.6276E-06  4.0658E-05    0.2285     8.9
                  9    9  1.4455E-06  1.0444E-05    0.2569     9.1
                 10   10  4.6716E-07  3.3751E-06    0.3232     9.3
                 11   11  1.8205E-07  1.3152E-06    0.3897     9.4
                 12   12  5.2023E-08  3.7585E-07    0.2858     9.6

 CPHF converged to   3.8D-07 in   12 iters

 Start make_tot_dens at       11.2s
 Done make_tot_dens at       11.3s

int_init: setting std/high accuracies to  1.0D-16  1.0D-32
                Dipole Moments (a.u.)
                --------------
         Nuclear       SCF       SCF+MP2
       ----------- ----------- -----------
 X       0.000000    0.410076    0.398725
 Y      -0.000000    0.018400    0.039630
 Z       0.000000   -0.034265   -0.035505


 MP2 RHF      natural orbital occupation numbers


              1      
    1    2.0000
    2    2.0000
    3    2.0000
    4    2.0000
    5    1.9859
    6    1.9825
    7    1.9776
    8    1.9716
    9    1.9664
   10    1.9664
   11    1.9660
   12    1.9644
   13    1.9618
   14    1.9597
   15    1.9543
   16    1.9284
   17    0.0545
   18    0.0301
   19    0.0258
   20    0.0220
   21    0.0214
   22    0.0176
   23    0.0173
   24    0.0168
   25    0.0160
   26    0.0157
   27    0.0137
   28    0.0132
   29    0.0111
   30    0.0104
   31    0.0094
   32    0.0090
   33    0.0088
   34    0.0079
   35    0.0076
   36    0.0068
   37    0.0065
   38    0.0062
   39    0.0059
   40    0.0057
   41    0.0042
   42    0.0041
   43    0.0036
   44    0.0033
   45    0.0029
   46    0.0023
   47    0.0022
   48    0.0021
   49    0.0020
   50    0.0016
   51    0.0015
   52    0.0014
   53    0.0014
   54    0.0013
   55    0.0012
   56    0.0012
   57    0.0012
   58    0.0011
   59    0.0010
   60    0.0009
   61    0.0008
   62    0.0007
   63    0.0007
   64    0.0007
   65    0.0007
   66    0.0007
   67    0.0006
   68    0.0006
   69    0.0006
   70    0.0005
   71    0.0005
   72    0.0005
   73    0.0004
   74    0.0004
   75    0.0004
   76    0.0004
   77    0.0004
   78    0.0004
   79    0.0003
   80    0.0003
   81    0.0003
   82    0.0003
   83    0.0003
   84    0.0002
   85    0.0002
   86    0.0002
   87    0.0002
   88    0.0002
   89    0.0002
   90    0.0002
   91    0.0002
   92    0.0001
   93    0.0001
   94    0.0001
   95    0.0001
   96    0.0001
   97    0.0001
   98    0.0001
   99    0.0001
  100    0.0001
  101    0.0001
  102    0.0001
  103    0.0001
  104    0.0001
  105    0.0001
  106    0.0001
  107    0.0001
  108    0.0001
  109    0.0000
  110    0.0000
  111    0.0000
  112    0.0000
  113    0.0000
  114    0.0000
  115    0.0000
  116    0.0000
  117    0.0000
  118    0.0000
  119    0.0000
  120    0.0000
  121    0.0000
  122    0.0000
  123    0.0000
  124    0.0000
  125    0.0000
  126    0.0000
  127    0.0000
  128    0.0000
  129    0.0000
  130    0.0000
  131    0.0000
  132    0.0000
  133    0.0000
  134    0.0000
  135    0.0000
  136    0.0000
  137    0.0000
  138    0.0000
  139   -0.0000
  140   -0.0000
  141   -0.0000
  142   -0.0000
  143   -0.0000
  144   -0.0000
  145   -0.0001
  146   -0.0003

  MP2 natural orbitals output to ./3R1.mp2nos


int_init: setting std/high accuracies to  1.0D-16  1.0D-32

int_init: setting std/high accuracies to  1.0D-16  1.0D-32


                         mp2 ENERGY GRADIENTS

    atom               coordinates                        gradient
                 x          y          z           x          y          z
   1 O      -1.269445   3.322779   0.109534    0.011907  -0.058218  -0.000210
   2 C      -1.113798   0.800328   0.103345   -0.049523   0.033566   0.003105
   3 C       1.104592  -0.548818  -0.088277    0.017686  -0.007251  -0.016929
   4 H       2.886904   0.462468  -0.174548   -0.005446  -0.006176   0.001921
   5 H       0.241794   4.449452  -0.008704    0.013457   0.035761  -0.001069
   6 H      -2.953557  -0.134997   0.268400    0.000030  -0.004423   0.000220
   7 C       1.142618  -3.405182  -0.083094    0.014939   0.001805   0.013870
   8 H       2.978951  -4.384330  -0.001879   -0.001260  -0.010006  -0.001252
   9 H       0.286904  -3.821174  -1.932930   -0.001023   0.016141   0.000840
  10 H      -0.085908  -4.231617   1.381548   -0.000767  -0.001198  -0.000496

                 ----------------------------------------
                 |  Time  |  1-e(secs)   |  2-e(secs)   |
                 ----------------------------------------
                 |  CPU   |       0.00   |       0.28   |
                 ----------------------------------------
                 |  WALL  |       0.00   |       0.28   |
                 ----------------------------------------
 -----------------------
 Performance information
 -----------------------

 Timer overhead =  1.02D-08 seconds/call

               Nr. of calls         CPU time (s)                 Wall time (s)                GFlops
             ---------------    -------------------     ------------------------------   -------------------
Name         Min   Avg   Max    Min     Avg     Max     Min     Avg     Max   Mx/calls   Min     Max     Sum
mp2: moin     1     1     1   0.27    0.30    0.32     0.36    0.36    0.36    0.36      0.0     0.0     0.0   
mp2: make     1     1     1   1.88E-2 2.41E-2 2.70E-2  2.69E-2 2.71E-2 2.78E-2 2.78E-2   0.0     0.0     0.0   
mp2: pija     1     1     1    0.0    2.56E-3 3.06E-3  2.73E-3 2.74E-3 3.06E-3 3.06E-3   0.0     0.0     0.0   
mp2: wija     1     1     1   1.50E-3 2.75E-3 3.01E-3  3.09E-3 3.09E-3 3.12E-3 3.12E-3   0.0     0.0     0.0   
mp2: lai      1     1     1   3.21E-2 3.22E-2 3.25E-2  3.22E-2 3.22E-2 3.25E-2 3.25E-2   0.0     0.0     0.0   
mp2: back     1     1     1   2.65E-2 2.94E-2 3.43E-2  3.44E-2 3.44E-2 3.44E-2 3.44E-2   0.0     0.0     0.0   
mp2: nons     1     1     1   0.43    0.57    0.72     0.43    0.58    0.72    0.72      0.0     0.0     0.0   
mp2: laif     1     1     1   0.31    0.32    0.33     0.34    0.34    0.34    0.34      0.0     0.0     0.0   
mp2: cphf     1     1     1    2.4     2.5     2.5      2.9     2.9     2.9     2.9      0.0     0.0     0.0   
mp2: wijf     1     1     1   0.29    0.30    0.31     0.32    0.32    0.32    0.32      0.0     0.0     0.0   
mp2: sep      1     1     1   0.30    0.32    0.33     0.36    0.36    0.36    0.36      0.0     0.0     0.0   
mp2: tota     1     1     1    4.6     4.7     4.7      5.3     5.3     5.3     5.3      0.0     0.0     0.0   

 The average no. of pstat calls per process was 1.20D+01
 with a timing overhead of 1.22D-07s


@ Step       Energy      Delta E   Gmax     Grms     Xrms     Xmax   Walltime
@ ---- ---------------- -------- -------- -------- -------- -------- --------
@    0    -192.57298162  0.0D+00  0.05822  0.01836  0.00000  0.00000     12.1
                                                                    

 Restricting large step in mode    3 eval= 8.4D-02 step=-3.2D-01 new=-3.0D-01
                                 NWChem SCF Module
                                 -----------------


                                   3 Ref Closed



  ao basis        = "ao basis"
  functions       =   146
  atoms           =    10
  closed shells   =    16
  open shells     =     0
  charge          =   0.00
  wavefunction    = RHF 
  input vectors   = ./3R1.movecs
  output vectors  = ./3R1.movecs
  use symmetry    = F
  symmetry adapt  = F


 Summary of "ao basis" -> "ao basis" (spherical)
 ------------------------------------------------------------------------------
       Tag                 Description            Shells   Functions and Types
 ---------------- ------------------------------  ------  ---------------------
 O                        aug-cc-pVDZ                9       23   4s3p2d
 C                        aug-cc-pVDZ                9       23   4s3p2d
 H                        aug-cc-pVDZ                5        9   3s2p



int_init: setting std/high accuracies to  1.0D-16  1.0D-32

 Forming initial guess at      12.1s


 Forcing the number of linearly dependent vectors to be  0

 Loading old vectors from job with title :

3 Ref Closed


 Starting SCF solution at      12.1s



 ----------------------------------------------
         Quadratically convergent ROHF

 Convergence threshold     :          1.000E-09
 Maximum no. of iterations :           99
 Final Fock-matrix accuracy:          1.000E-15
 ----------------------------------------------


              iter       energy          gnorm     gmax       time
             ----- ------------------- --------- --------- --------
                 1     -191.9186526513  5.24D-01  7.72D-02     10.7
                 2     -191.9393644154  2.88D-02  3.92D-03     11.3
                 3     -191.9394695551  3.97D-04  1.03D-04     12.2
                 4     -191.9394695849  5.51D-08  7.01D-09     13.8
                 5     -191.9394695849  7.37D-11  1.76D-11     15.0


       Final RHF  results 
       ------------------ 

         Total SCF energy =   -191.939469584864
      One-electron energy =   -485.675394967194
      Two-electron energy =    179.933094929009
 Nuclear repulsion energy =    113.802830453321

        Time for solution =      4.7s


             Final eigenvalues
             -----------------

              1      
    1  -20.6077
    2  -11.3023
    3  -11.2392
    4  -11.2379
    5   -1.3813
    6   -1.0579
    7   -0.9193
    8   -0.7931
    9   -0.6662
   10   -0.6367
   11   -0.5854
   12   -0.5577
   13   -0.5492
   14   -0.5340
   15   -0.4996
   16   -0.3370
   17    0.0346
   18    0.0432
   19    0.0486
   20    0.0598
   21    0.0689
   22    0.0779
   23    0.1138
   24    0.1185
   25    0.1326
   26    0.1364

                       ROHF Final Molecular Orbital Analysis
                       -------------------------------------

 Vector    5  Occ=2.000000D+00  E=-1.381327D+00
              MO Center= -6.4D-01,  1.7D+00,  5.0D-02, r^2= 5.8D-01
   Bfn.  Coefficient  Atom+Function         Bfn.  Coefficient  Atom+Function  
  ----- ------------  ---------------      ----- ------------  ---------------
     3      0.495947   1 O  s                 2      0.421638   1 O  s         
    27     -0.268643   2 C  s                50      0.179369   3 C  s         
    79      0.169527   5 H  s                49     -0.165120   3 C  s         
    26      0.156725   2 C  s                31      0.156576   2 C  px        

 Vector    6  Occ=2.000000D+00  E=-1.057942D+00
              MO Center=  2.9D-01, -5.4D-01, -2.3D-02, r^2= 1.7D+00
   Bfn.  Coefficient  Atom+Function         Bfn.  Coefficient  Atom+Function  
  ----- ------------  ---------------      ----- ------------  ---------------
    48      0.288865   3 C  s                98      0.219034   7 C  s         
    26      0.214794   2 C  s                25      0.196086   2 C  s         
    50     -0.172320   3 C  s         

 Vector    7  Occ=2.000000D+00  E=-9.193284D-01
              MO Center=  2.2D-01, -8.8D-01, -3.8D-02, r^2= 2.9D+00
   Bfn.  Coefficient  Atom+Function         Bfn.  Coefficient  Atom+Function  
  ----- ------------  ---------------      ----- ------------  ---------------
    98      0.294385   7 C  s                25     -0.234642   2 C  s         
    26     -0.175252   2 C  s                52     -0.167656   3 C  py        
   120      0.156445   8 H  s               129      0.156524   9 H  s         

 Vector    8  Occ=2.000000D+00  E=-7.930647D-01
              MO Center= -2.6D-01,  6.0D-01,  3.0D-02, r^2= 2.7D+00
   Bfn.  Coefficient  Atom+Function         Bfn.  Coefficient  Atom+Function  
  ----- ------------  ---------------      ----- ------------  ---------------
     6      0.240684   1 O  py               28      0.232924   2 C  px        
    26     -0.231584   2 C  s                79      0.210805   5 H  s         
    88     -0.210461   6 H  s                49      0.206469   3 C  s         
    48      0.184616   3 C  s                70      0.179807   4 H  s         
     5      0.173656   1 O  px               71      0.165076   4 H  s         

 Vector    9  Occ=2.000000D+00  E=-6.661596D-01
              MO Center=  2.7D-01,  3.5D-01,  1.5D-03, r^2= 2.9D+00
   Bfn.  Coefficient  Atom+Function         Bfn.  Coefficient  Atom+Function  
  ----- ------------  ---------------      ----- ------------  ---------------
    50     -0.322762   3 C  s                27      0.319049   2 C  s         
    51      0.296311   3 C  px               71      0.266841   4 H  s         
    70      0.261789   4 H  s                 5     -0.233654   1 O  px        
    79     -0.221659   5 H  s                26     -0.208057   2 C  s         
     6     -0.201444   1 O  py               29      0.199396   2 C  py        

 Vector   10  Occ=2.000000D+00  E=-6.366544D-01
              MO Center= -4.4D-01,  7.7D-01,  3.6D-02, r^2= 3.3D+00
   Bfn.  Coefficient  Atom+Function         Bfn.  Coefficient  Atom+Function  
  ----- ------------  ---------------      ----- ------------  ---------------
     5      0.303515   1 O  px                6     -0.293708   1 O  py        
    29      0.236645   2 C  py                9     -0.209294   1 O  py        
     8      0.202420   1 O  px              102     -0.183839   7 C  py        
     3     -0.180226   1 O  s                52      0.155577   3 C  py        
    49     -0.153504   3 C  s         

 Vector   11  Occ=2.000000D+00  E=-5.854424D-01
              MO Center=  1.1D-01, -9.3D-01, -1.1D-01, r^2= 3.5D+00
   Bfn.  Coefficient  Atom+Function         Bfn.  Coefficient  Atom+Function  
  ----- ------------  ---------------      ----- ------------  ---------------
   103      0.343621   7 C  pz              129     -0.277340   9 H  s         
     7      0.263257   1 O  pz              138      0.215741  10 H  s         
    10      0.191585   1 O  pz        

 Vector   12  Occ=2.000000D+00  E=-5.577012D-01
              MO Center= -4.3D-01,  6.8D-01, -1.9D-02, r^2= 3.8D+00
   Bfn.  Coefficient  Atom+Function         Bfn.  Coefficient  Atom+Function  
  ----- ------------  ---------------      ----- ------------  ---------------
     7      0.503353   1 O  pz               10      0.371438   1 O  pz        
   103     -0.223132   7 C  pz              129      0.185913   9 H  s         
   130      0.157007   9 H  s         

 Vector   13  Occ=2.000000D+00  E=-5.492179D-01
              MO Center= -1.3D-01, -4.8D-01,  6.8D-02, r^2= 4.0D+00
   Bfn.  Coefficient  Atom+Function         Bfn.  Coefficient  Atom+Function  
  ----- ------------  ---------------      ----- ------------  ---------------
   101      0.287580   7 C  px               88      0.263898   6 H  s         
    28     -0.242380   2 C  px               89      0.232141   6 H  s         
     5      0.225062   1 O  px              120      0.220765   8 H  s         
    26     -0.210745   2 C  s                79      0.191620   5 H  s         
   138     -0.191336  10 H  s                50      0.176596   3 C  s         

 Vector   14  Occ=2.000000D+00  E=-5.340392D-01
              MO Center=  3.2D-01, -5.3D-01, -1.9D-02, r^2= 3.7D+00
   Bfn.  Coefficient  Atom+Function         Bfn.  Coefficient  Atom+Function  
  ----- ------------  ---------------      ----- ------------  ---------------
    52      0.317835   3 C  py              102     -0.310166   7 C  py        
   105     -0.260802   7 C  py              120      0.231357   8 H  s         
     5     -0.224771   1 O  px                6      0.194402   1 O  py        
    29     -0.155866   2 C  py                8     -0.152588   1 O  px        
    50     -0.153260   3 C  s         

 Vector   15  Occ=2.000000D+00  E=-4.995862D-01
              MO Center=  3.5D-01, -6.2D-01,  9.7D-03, r^2= 3.1D+00
   Bfn.  Coefficient  Atom+Function         Bfn.  Coefficient  Atom+Function  
  ----- ------------  ---------------      ----- ------------  ---------------
    71      0.343261   4 H  s                70      0.281517   4 H  s         
    51      0.259317   3 C  px              105     -0.254069   7 C  py        
   121     -0.246100   8 H  s                89      0.235967   6 H  s         
   101     -0.236426   7 C  px               28     -0.224108   2 C  px        
    88      0.212478   6 H  s                50     -0.187956   3 C  s         

 Vector   16  Occ=2.000000D+00  E=-3.370244D-01
              MO Center=  3.1D-02,  9.7D-02,  1.4D-02, r^2= 2.3D+00
   Bfn.  Coefficient  Atom+Function         Bfn.  Coefficient  Atom+Function  
  ----- ------------  ---------------      ----- ------------  ---------------
    53      0.385343   3 C  pz               30      0.333179   2 C  pz        
    56      0.274739   3 C  pz                7     -0.261244   1 O  pz        
    33      0.242471   2 C  pz               10     -0.208872   1 O  pz        
   130      0.172637   9 H  s         

 Vector   17  Occ=0.000000D+00  E= 3.458301D-02
              MO Center=  2.2D+00,  4.5D-01, -1.6D-01, r^2= 1.8D+01
   Bfn.  Coefficient  Atom+Function         Bfn.  Coefficient  Atom+Function  
  ----- ------------  ---------------      ----- ------------  ---------------
    27      7.696097   2 C  s                50     -7.181366   3 C  s         
   100      5.265756   7 C  s                72     -3.284101   4 H  s         
    57      2.847055   3 C  px               34      1.346660   2 C  px        
    58      1.215886   3 C  py                4     -1.197302   1 O  s         
   122     -0.993457   8 H  s                81     -0.882274   5 H  s         

 Vector   18  Occ=0.000000D+00  E= 4.315827D-02
              MO Center=  5.9D-01, -1.2D+00,  3.9D-02, r^2= 2.4D+01
   Bfn.  Coefficient  Atom+Function         Bfn.  Coefficient  Atom+Function  
  ----- ------------  ---------------      ----- ------------  ---------------
    72      2.082641   4 H  s               122     -1.658095   8 H  s         
   140     -1.479642  10 H  s                58     -1.404292   3 C  py        
    81      1.353302   5 H  s               131     -1.121706   9 H  s         
   108     -1.097180   7 C  py              100      0.911594   7 C  s         
    89     -0.812338   6 H  s               121     -0.725086   8 H  s         

 Vector   19  Occ=0.000000D+00  E= 4.863995D-02
              MO Center= -8.3D-01, -6.3D-01,  9.2D-02, r^2= 2.5D+01
   Bfn.  Coefficient  Atom+Function         Bfn.  Coefficient  Atom+Function  
  ----- ------------  ---------------      ----- ------------  ---------------
    27      6.028517   2 C  s                50     -5.070421   3 C  s         
    90      4.586361   6 H  s                34      3.966606   2 C  px        
   122     -3.048916   8 H  s               100     -2.983687   7 C  s         
    58     -2.949274   3 C  py               57      2.356936   3 C  px        
    72     -1.853617   4 H  s               108     -1.404963   7 C  py        

 Vector   20  Occ=0.000000D+00  E= 5.975588D-02
              MO Center= -4.9D-01, -2.5D+00, -7.7D-01, r^2= 1.8D+01
   Bfn.  Coefficient  Atom+Function         Bfn.  Coefficient  Atom+Function  
  ----- ------------  ---------------      ----- ------------  ---------------
   131      5.361369   9 H  s               140     -4.107340  10 H  s         
   109      2.444488   7 C  pz               27      1.235321   2 C  s         
    59     -0.809619   3 C  pz              130      0.789627   9 H  s         
    50     -0.688924   3 C  s               122     -0.686691   8 H  s         
    57      0.625737   3 C  px               72     -0.548985   4 H  s         

 Vector   21  Occ=0.000000D+00  E= 6.889620D-02
              MO Center=  1.7D-01,  3.0D-01,  1.0D-01, r^2= 2.8D+01
   Bfn.  Coefficient  Atom+Function         Bfn.  Coefficient  Atom+Function  
  ----- ------------  ---------------      ----- ------------  ---------------
    90      5.123071   6 H  s                72      4.756524   4 H  s         
    50     -3.819461   3 C  s                58     -3.700093   3 C  py        
    81     -3.530995   5 H  s                34      3.378261   2 C  px        
   140     -2.776874  10 H  s                35      2.172533   2 C  py        
   131     -1.704639   9 H  s                27      1.581724   2 C  s         

 Vector   22  Occ=0.000000D+00  E= 7.789831D-02
              MO Center=  9.3D-01, -1.3D+00,  3.1D-01, r^2= 2.6D+01
   Bfn.  Coefficient  Atom+Function         Bfn.  Coefficient  Atom+Function  
  ----- ------------  ---------------      ----- ------------  ---------------
   122      5.999401   8 H  s               140     -4.300924  10 H  s         
    72     -4.129189   4 H  s                90      3.215136   6 H  s         
   107     -2.710023   7 C  px              131     -2.128689   9 H  s         
    57      1.991742   3 C  px               34      1.701754   2 C  px        
   100     -1.490106   7 C  s                81      1.460735   5 H  s         

 Vector   23  Occ=0.000000D+00  E= 1.138038D-01
              MO Center=  3.0D-01, -1.2D-01,  1.5D-01, r^2= 1.1D+01
   Bfn.  Coefficient  Atom+Function         Bfn.  Coefficient  Atom+Function  
  ----- ------------  ---------------      ----- ------------  ---------------
    50      7.213648   3 C  s                27     -4.853028   2 C  s         
   100     -3.035490   7 C  s                59     -2.671011   3 C  pz        
    36      2.580876   2 C  pz               57     -1.966548   3 C  px        
    72      1.402588   4 H  s               108     -1.183537   7 C  py        
    34     -1.134355   2 C  px               58     -0.732521   3 C  py        

 Vector   24  Occ=0.000000D+00  E= 1.185026D-01
              MO Center=  4.1D-01, -1.4D+00,  1.0D-01, r^2= 1.7D+01
   Bfn.  Coefficient  Atom+Function         Bfn.  Coefficient  Atom+Function  
  ----- ------------  ---------------      ----- ------------  ---------------
   100    -12.751917   7 C  s                50     11.683564   3 C  s         
   108     -6.309440   7 C  py               58     -5.993029   3 C  py        
     4      2.808667   1 O  s               131     -2.590000   9 H  s         
[...]
           6     0.01397    -0.11979     0.04269     0.08560    -0.02484     0.12964
           7    -0.04317    -0.04019    -0.13045     0.00028    -0.00538    -0.04120
           8    -0.00436    -0.00406    -0.02807     0.00003    -0.07849    -0.00416
           9    -0.10979    -0.10222     0.05241     0.00071     0.00523    -0.10479
          10    -0.07850    -0.01121    -0.16659    -0.07401     0.05246     0.23957
          11    -0.00792    -0.00113     0.04842    -0.00747    -0.18296     0.02417
          12    -0.19967    -0.02850     0.06358    -0.18826    -0.01338     0.60940
          13    -0.01250     0.16176     0.15163     0.29726    -0.13650    -0.00684
          14    -0.00126     0.01632    -0.12948     0.03000     0.26271    -0.00069
          15    -0.03180     0.41140    -0.05447     0.75604     0.04323    -0.01740
          16     0.04699    -0.09306    -0.16188     0.05249     0.04389    -0.10129
          17     0.00474    -0.00939     0.12498     0.00529     0.10084    -0.01021
          18     0.11951    -0.23668     0.05869     0.13349    -0.02126    -0.25760
          19     0.01405     0.02885     0.09543    -0.00542     0.03722    -0.00908
          20     0.00142     0.00291    -0.02068    -0.00055    -0.13750    -0.00092
          21     0.03575     0.07338    -0.03670    -0.01378    -0.00918    -0.02311
          22    -0.26622     0.15613     0.17598    -0.02870     0.08497     0.02231
          23     0.10219     0.16236     0.09016    -0.04815    -0.07654     0.17888
          24     0.44514     0.00387    -0.07486    -0.01165    -0.03329     0.04020
          25     0.50054    -0.10736     0.17741     0.01181     0.08696     0.01583
          26    -0.07853    -0.15743     0.09031     0.04644    -0.07634    -0.17503
          27     0.15085     0.12016    -0.07125    -0.03133    -0.02824     0.05679
          28    -0.14492     0.12164     0.17596    -0.02404     0.07956     0.03099
          29    -0.01463     0.01228    -0.23291    -0.00243    -0.24922     0.00312
          30    -0.36860     0.30936    -0.05995    -0.06113    -0.02139     0.07881

                   13          14          15          16          17          18
 
 P.Frequency      926.73      950.66     1051.52     1107.87     1130.56     1249.07
 
           1    -0.00390    -0.00026    -0.00173    -0.01683     0.01761     0.02496
           2     0.05823    -0.00003    -0.00017     0.09202    -0.10762     0.05392
           3    -0.00078    -0.00067    -0.00439     0.00297    -0.00266    -0.01195
           4    -0.06852    -0.03293    -0.00385    -0.05501     0.00697     0.00917
           5    -0.02371    -0.00332    -0.00039    -0.06536     0.10718    -0.14227
           6     0.02788    -0.08376    -0.00979     0.02422    -0.00699     0.00204
           7     0.04083    -0.00774     0.03632     0.07749     0.00464     0.04326
           8     0.04342    -0.00078     0.00366     0.08008     0.14710    -0.01615
           9    -0.01778    -0.01969     0.09236    -0.03365    -0.00766    -0.01637
          10    -0.10471     0.18500    -0.04956     0.17576    -0.06133    -0.22517
          11     0.33429     0.01865    -0.00501    -0.10135     0.28675     0.48578
          12     0.02792     0.47056    -0.12608    -0.06509     0.01272     0.06925
          13     0.05666     0.03976     0.00558     0.20324    -0.05304    -0.14213
          14    -0.08348     0.00402     0.00056    -0.42935     0.05230     0.45189
          15    -0.01896     0.10112     0.01417    -0.06288     0.01878     0.03796
          16    -0.09828     0.28805     0.02493     0.06573     0.01165    -0.09120
          17     0.03325     0.02906     0.00251    -0.33175     0.10687     0.07653
          18     0.03736     0.73259     0.06339    -0.01269    -0.00882     0.03282
          19     0.08219    -0.00164    -0.04672    -0.05650    -0.03882    -0.06213
          20    -0.09276    -0.00016    -0.00471    -0.04802    -0.10755    -0.00333
          21    -0.02864    -0.00416    -0.11884     0.02412     0.01953     0.02456
          22    -0.15468     0.01087    -0.03128     0.07457     0.03704     0.06996
          23    -0.35607     0.02542     0.51346     0.05969    -0.06720     0.11386
          24     0.11572    -0.00528     0.16743    -0.07237    -0.04477    -0.07467
          25    -0.18241    -0.01085     0.15065     0.10224     0.05941     0.09896
          26    -0.35887    -0.02540    -0.50141     0.06250    -0.06496     0.11679
          27     0.04519     0.00528     0.13619    -0.00200     0.01210    -0.00090
          28    -0.10363    -0.00485     0.09686     0.05059     0.05085     0.00886
          29     0.37654    -0.00052     0.00978    -0.32363    -0.35295    -0.17458
          30     0.02580    -0.01236     0.24634    -0.00705    -0.00598     0.00345

                   19          20          21          22          23          24
 
 P.Frequency     1323.54     1379.12     1409.18     1466.07     1491.44     1720.38
 
           1     0.00903     0.04794    -0.03280     0.00014     0.00746     0.01489
           2    -0.01892     0.00395     0.00829     0.00001    -0.00619    -0.02529
           3    -0.00280    -0.01901     0.01257     0.00035    -0.00269    -0.00485
           4    -0.08394    -0.04551     0.04204    -0.00031    -0.02028    -0.13117
           5    -0.04100    -0.02379     0.00611    -0.00003     0.02283     0.12970
           6     0.03463     0.01884    -0.01677    -0.00077     0.00707     0.04643
           7     0.07977    -0.04185     0.01642    -0.00649    -0.00736     0.12908
           8     0.04012     0.05053    -0.05925    -0.00065    -0.00492    -0.13147
           9    -0.03295     0.01445    -0.00410    -0.01650     0.00309    -0.04554
          10     0.30611     0.09854    -0.10539     0.01065     0.00938    -0.00372
          11    -0.39730    -0.23576     0.17142     0.00107    -0.03692     0.18076
          12    -0.10460    -0.02938     0.03463     0.02709    -0.00222    -0.00571
          13    -0.08084    -0.14854     0.09649    -0.00107    -0.01896    -0.03555
          14     0.18488     0.45856    -0.28656    -0.00010     0.05319     0.08399
          15     0.02445     0.04021    -0.02657    -0.00273     0.00534     0.01065
          16    -0.35948     0.15048    -0.06739     0.00539     0.03453    -0.00526
          17     0.55067    -0.45903     0.25688     0.00054    -0.10686    -0.22072
          18     0.11950    -0.04096     0.01631     0.01370    -0.00934     0.01082
          19    -0.00165     0.02471    -0.01734    -0.01878    -0.04528    -0.01212
          20     0.00775     0.05619     0.12310    -0.00190    -0.00186     0.02539
          21     0.00034    -0.01194     0.00193    -0.04777     0.01788     0.00376
          22     0.01011    -0.13713    -0.09930    -0.32313     0.30959    -0.01316
          23    -0.04045    -0.29067    -0.36612    -0.31296    -0.19186     0.07389
          24    -0.03342     0.00941    -0.14720     0.18984    -0.50639     0.03275
          25     0.03123    -0.09902     0.03726     0.35738     0.57639    -0.03391
          26    -0.03832    -0.28682    -0.35231     0.31643    -0.16492     0.07179
          27     0.02030     0.10636     0.20010    -0.10271     0.17221    -0.02003
          28     0.01893     0.12091     0.16934     0.25312    -0.16101     0.02446
          29    -0.04098    -0.23639    -0.38785     0.02556     0.35460    -0.06948
          30    -0.00582    -0.03816    -0.05117     0.64379     0.04923    -0.00686

                   25          26          27          28          29          30
 
 P.Frequency     3052.92     3129.93     3149.72     3176.94     3236.60     3793.35
 
           1    -0.00025    -0.00001    -0.00013    -0.00032    -0.00150    -0.05033
           2     0.00031    -0.00000     0.00014     0.00042    -0.00056    -0.02540
           3     0.00008    -0.00003     0.00004     0.00011     0.00061     0.02080
           4     0.00034    -0.00001     0.00031     0.00564     0.07203    -0.00325
           5    -0.00084    -0.00000    -0.00153    -0.00432     0.03118    -0.00017
           6    -0.00010    -0.00003    -0.00006    -0.00205    -0.02956     0.00128
           7     0.00061    -0.00012    -0.01594    -0.06688    -0.00313     0.00069
           8    -0.00088    -0.00001    -0.00931    -0.03433     0.00492     0.00085
           9    -0.00020    -0.00030     0.00664     0.02765     0.00104    -0.00030
          10    -0.00956     0.00009     0.19126     0.75230    -0.01943    -0.00299
          11    -0.00226    -0.00000     0.10888     0.43734    -0.01179    -0.00427
          12     0.00385     0.00030    -0.07951    -0.31310     0.00811     0.00134
          13     0.00127     0.00002     0.00033     0.00331     0.01988     0.81742
          14    -0.00076     0.00000     0.00100     0.00756     0.00178     0.39077
          15    -0.00047     0.00006    -0.00017    -0.00160    -0.00789    -0.33690
          16     0.00348    -0.00040     0.00321    -0.01856    -0.79729     0.01648
          17     0.00362    -0.00004     0.00529    -0.00711    -0.40322     0.00671
          18    -0.00151    -0.00101    -0.00147     0.00758     0.32948    -0.00674
          19    -0.00627    -0.03211     0.07903    -0.02030     0.00093    -0.00011
          20     0.04926    -0.00325     0.00460     0.00118     0.00001    -0.00004
          21     0.00050    -0.08162    -0.03128     0.00794    -0.00037     0.00004
          22     0.43650     0.50211    -0.23723     0.06340    -0.00120    -0.00040
          23    -0.18012    -0.21996     0.10955    -0.03166    -0.00073     0.00102
          24     0.35526     0.38680    -0.21371     0.05623    -0.00084    -0.00055
          25     0.08300    -0.11071    -0.03146     0.00906    -0.00029     0.00006
          26    -0.21577     0.25944     0.13046    -0.03716    -0.00063     0.00106
          27    -0.54371     0.60863     0.31011    -0.08202     0.00148     0.00061
          28    -0.44737    -0.00707    -0.67893     0.16649    -0.00919    -0.00009
          29    -0.17567    -0.00065    -0.28305     0.07055    -0.00658     0.00023
          30     0.18287    -0.01860     0.27817    -0.06826     0.00387     0.00003



 ----------------------------------------------------------------------------
 Normal Eigenvalue ||    Projected Derivative Dipole Moments (debye/angs)
  Mode   [cm**-1]  ||      [d/dqX]             [d/dqY]           [d/dqZ]
 ------ ---------- || ------------------ ------------------ -----------------
    1       -0.000 ||      -0.019              -0.053             0.005
    2       -0.000 ||       0.035               0.082             0.008
    3       -0.000 ||       0.068              -0.001             0.181
    4       -0.000 ||      -0.057              -0.027            -0.124
    5        0.000 ||      -0.047               0.017            -0.142
    6        0.000 ||      -0.003              -0.003            -0.006
    7      203.916 ||       0.019               0.002             0.047
    8      264.571 ||       0.232               0.023             0.589
    9      292.093 ||       0.022               0.440            -0.026
   10      423.739 ||       0.451               0.045             1.146
   11      535.278 ||       0.197               0.083            -0.081
   12      777.924 ||       0.167               0.017             0.426
   13      926.727 ||      -0.239              -0.492             0.113
   14      950.658 ||       0.444               0.045             1.130
   15     1051.521 ||      -0.025              -0.003            -0.064
   16     1107.874 ||      -0.388               1.662             0.087
   17     1130.562 ||       0.533              -1.267            -0.160
   18     1249.067 ||       0.248              -0.627            -0.073
   19     1323.538 ||      -0.166               0.462             0.047
   20     1379.117 ||       0.112              -0.552            -0.022
   21     1409.179 ||       0.132               0.454            -0.070
   22     1466.066 ||       0.130               0.013             0.332
   23     1491.440 ||       0.310               0.334            -0.135
   24     1720.382 ||      -0.635               1.320             0.197
   25     3052.920 ||      -0.185               0.900             0.037
   26     3129.928 ||      -0.239              -0.024            -0.608
   27     3149.721 ||       0.554              -0.175            -0.211
   28     3176.939 ||      -0.442              -0.573             0.197
   29     3236.603 ||       0.235               0.396            -0.108
   30     3793.349 ||       0.443               0.871            -0.209
 ----------------------------------------------------------------------------



  
  
 ----------------------------------------------------------------------------
 Normal Eigenvalue ||           Projected Infra Red Intensities
  Mode   [cm**-1]  || [atomic units] [(debye/angs)**2] [(KM/mol)] [arbitrary]
 ------ ---------- || -------------- ----------------- ---------- -----------
    1       -0.000 ||    0.000140           0.003         0.136       0.059
    2       -0.000 ||    0.000344           0.008         0.335       0.146
    3       -0.000 ||    0.001615           0.037         1.574       0.685
    4       -0.000 ||    0.000833           0.019         0.813       0.353
    5        0.000 ||    0.000980           0.023         0.955       0.415
    6        0.000 ||    0.000002           0.000         0.002       0.001
    7      203.916 ||    0.000112           0.003         0.110       0.048
    8      264.571 ||    0.017395           0.401        16.958       7.377
    9      292.093 ||    0.008449           0.195         8.237       3.583
   10      423.739 ||    0.065848           1.519        64.192      27.926
   11      535.278 ||    0.002257           0.052         2.200       0.957
   12      777.924 ||    0.009083           0.210         8.854       3.852
   13      926.727 ||    0.013511           0.312        13.172       5.730
   14      950.658 ||    0.063989           1.476        62.379      27.137
   15     1051.521 ||    0.000205           0.005         0.200       0.087
   16     1107.874 ||    0.126599           2.921       123.415      53.690
   17     1130.562 ||    0.082986           1.915        80.898      35.194
   18     1249.067 ||    0.019911           0.459        19.410       8.444
   19     1323.538 ||    0.010532           0.243        10.267       4.467
   20     1379.117 ||    0.013761           0.317        13.414       5.836
   21     1409.179 ||    0.009878           0.228         9.630       4.189
   22     1466.066 ||    0.005515           0.127         5.376       2.339
   23     1491.440 ||    0.009781           0.226         9.535       4.148
   24     1720.382 ||    0.094658           2.184        92.277      40.144
   25     3052.920 ||    0.036636           0.845        35.715      15.537
   26     3129.928 ||    0.018514           0.427        18.048       7.852
   27     3149.721 ||    0.016542           0.382        16.126       7.016
   28     3176.939 ||    0.024372           0.562        23.759      10.336
   29     3236.603 ||    0.009679           0.223         9.436       4.105
   30     3793.349 ||    0.043257           0.998        42.169      18.345
 ----------------------------------------------------------------------------



 vib:animation  F

 Task  times  cpu:      467.7s     wall:      523.7s


                                NWChem Input Module
                                -------------------


 Summary of allocated global arrays
-----------------------------------
  No active global arrays


MA_summarize_allocated_blocks: starting scan ...
MA_summarize_allocated_blocks: scan completed: 0 heap blocks, 0 stack blocks
MA usage statistics:

	allocation statistics:
					      heap	     stack
					      ----	     -----
	current number of blocks	         0	         0
	maximum number of blocks	        22	        39
	current total bytes		         0	         0
	maximum total bytes		  31920952	  27113144
	maximum total K-bytes		     31921	     27114
	maximum total M-bytes		        32	        28


                                     CITATION
                                     --------
                Please cite the following reference when publishing
                           results obtained with NWChem:

          E. Apra, E. J. Bylaska, W. A. de Jong, N. Govind, K. Kowalski,
       T. P. Straatsma, M. Valiev, H. J. J. van Dam, Y. Alexeev, J. Anchell,
       V. Anisimov, F. W. Aquino, R. Atta-Fynn, J. Autschbach, N. P. Bauman,
     J. C. Becca, D. E. Bernholdt, K. Bhaskaran-Nair, S. Bogatko, P. Borowski,
         J. Boschen, J. Brabec, A. Bruner, E. Cauet, Y. Chen, G. N. Chuev,
      C. J. Cramer, J. Daily, M. J. O. Deegan, T. H. Dunning Jr., M. Dupuis,
   K. G. Dyall, G. I. Fann, S. A. Fischer, A. Fonari, H. Fruchtl, L. Gagliardi,
      J. Garza, N. Gawande, S. Ghosh, K. Glaesemann, A. W. Gotz, J. Hammond,
       V. Helms, E. D. Hermes, K. Hirao, S. Hirata, M. Jacquelin, L. Jensen,
   B. G. Johnson, H. Jonsson, R. A. Kendall, M. Klemm, R. Kobayashi, V. Konkov,
      S. Krishnamoorthy, M. Krishnan, Z. Lin, R. D. Lins, R. J. Littlefield,
      A. J. Logsdail, K. Lopata, W. Ma, A. V. Marenich, J. Martin del Campo,
   D. Mejia-Rodriguez, J. E. Moore, J. M. Mullin, T. Nakajima, D. R. Nascimento,
    J. A. Nichols, P. J. Nichols, J. Nieplocha, A. Otero-de-la-Roza, B. Palmer,
    A. Panyala, T. Pirojsirikul, B. Peng, R. Peverati, J. Pittner, L. Pollack,
   R. M. Richard, P. Sadayappan, G. C. Schatz, W. A. Shelton, D. W. Silverstein,
   D. M. A. Smith, T. A. Soares, D. Song, M. Swart, H. L. Taylor, G. S. Thomas,
            V. Tipparaju, D. G. Truhlar, K. Tsemekhman, T. Van Voorhis,
      A. Vazquez-Mayagoitia, P. Verma, O. Villa, A. Vishnu, K. D. Vogiatzis,
        D. Wang, J. H. Weare, M. J. Williamson, T. L. Windus, K. Wolinski,
        A. T. Wong, Q. Wu, C. Yang, Q. Yu, M. Zacharias, Z. Zhang, Y. Zhao,
                                and R. J. Harrison
                        "NWChem: Past, present, and future
                         J. Chem. Phys. 152, 184102 (2020)
                               doi:10.1063/5.0004997

                                      AUTHORS
                                      -------
  E. Apra, E. J. Bylaska, N. Govind, K. Kowalski, M. Valiev, D. Mejia-Rodriguez,
       A. Kunitsa, N. P. Bauman, A. Panyala, W. A. de Jong, T. P. Straatsma,
   H. J. J. van Dam, D. Wang, T. L. Windus, J. Hammond, J. Autschbach, A. Woods,
    K. Bhaskaran-Nair, J. Brabec, K. Lopata, S. A. Fischer, S. Krishnamoorthy,
     M. Jacquelin, W. Ma, M. Klemm, O. Villa, Y. Chen, V. Anisimov, F. Aquino,
     S. Hirata, M. T. Hackler, E. Hermes, L. Jensen, J. E. Moore, J. C. Becca,
      V. Konjkov, T. Risthaus, M. Malagoli, A. Marenich, A. Otero-de-la-Roza,
        J. Mullin, P. Nichols, R. Peverati, J. Pittner, Y. Zhao, P.-D. Fan,
        A. Fonari, M. J. Williamson, R. J. Harrison, J. R. Rehr, M. Dupuis,
     D. Silverstein, D. M. A. Smith, J. Nieplocha, V. Tipparaju, M. Krishnan,
     B. E. Van Kuiken, A. Vazquez-Mayagoitia, M. Swart, Q. Wu, T. Van Voorhis,
     A. A. Auer, M. Nooijen, L. D. Crosby, E. Brown, G. Cisneros, G. I. Fann,
   H. Fruchtl, J. Garza, K. Hirao, R. A. Kendall, J. A. Nichols, K. Tsemekhman,
    K. Wolinski, J. Anchell, D. E. Bernholdt, P. Borowski, T. Clark, D. Clerc,
   H. Dachsel, M. J. O. Deegan, K. Dyall, D. Elwood, E. Glendening, M. Gutowski,
   A. C. Hess, J. Jaffe, B. G. Johnson, J. Ju, R. Kobayashi, R. Kutteh, Z. Lin,
   R. Littlefield, X. Long, B. Meng, T. Nakajima, S. Niu, L. Pollack, M. Rosing,
   K. Glaesemann, G. Sandrone, M. Stave, H. Taylor, G. Thomas, J. H. van Lenthe,
                               A. T. Wong, Z. Zhang.

 Total times  cpu:      904.6s     wall:     1013.6s
