 argument  1 = 3R2.nw
  NWChem w/ OpenMP: maximum threads =    1



============================== echo of input deck ==============================
echo
start 3R2
title "3 Ref Open"
memory stack 17500 mb heap 1000 mb global 4500 mb noverify
charge 0

geometry noautoz noautosym
O       -1.2755576000      1.4284096800      0.1043758500
C       -1.1931925000      0.0935859200      0.1011008100
C       -0.0192707600     -0.6203514400     -0.0003011600
H        0.9238878488     -0.0852018062     -0.0459540046
H       -2.2020223536      1.7989234159      0.0468852115
H       -2.1667512800     -0.4013667400      0.1884443000
C        0.0008514900     -2.1318743700      0.0024413100
H        0.9725969558     -2.6500170534      0.0454189262
H       -0.4519729114     -2.3520078889     -0.9764497882
H       -0.6492562894     -2.5692048673      0.7774966408
end

set lindep:n_dep 0

set cphf:maxsub 95
set cphf:maxiter 999
set int:acc_std 1d-16
set fock:densityscreen f

scf
 maxiter 99
 vectors input atomic
 thresh 1d-9
 tol2e 1d-15
end

mp2
 freeze atomic
 tight
end

driver
 clear
 maxiter 999
 tight
end

set "mp2:aotol2e fock" 1d-15
set mp2:aotol2e 1d-15
set mp2:backtol 1d-15

basis spherical
 * library aug-cc-pVDZ
end

task mp2 optimize
task mp2 frequencies


================================================================================


                                         
                                         


             Northwest Computational Chemistry Package (NWChem) 7.2.0
             --------------------------------------------------------


                    Environmental Molecular Sciences Laboratory
                       Pacific Northwest National Laboratory
                                Richland, WA 99352

                              Copyright (c) 1994-2022
                       Pacific Northwest National Laboratory
                            Battelle Memorial Institute

             NWChem is an open-source computational chemistry package
                        distributed under the terms of the
                      Educational Community License (ECL) 2.0
             A copy of the license is included with this distribution
                              in the LICENSE.TXT file

                                  ACKNOWLEDGMENT
                                  --------------

            This software and its documentation were developed at the
            EMSL at Pacific Northwest National Laboratory, a multiprogram
            national laboratory, operated for the U.S. Department of Energy
            by Battelle under Contract Number DE-AC05-76RL01830. Support
            for this work was provided by the Department of Energy Office
            of Biological and Environmental Research, Office of Basic
            Energy Sciences, and the Office of Advanced Scientific Computing.


           Job information
           ---------------

    hostname        = nid007014
    program         = nwchem
    date            = Wed Apr  2 11:24:34 2025

    compiled        = Fri_Sep_29_01:47:45_2023
    source          = /opt/nwchem
    nwchem branch   = 7.2.0
    nwchem revision = v7.2.0-beta1-323-g0ec4a55be4
    ga revision     = 5.8.0
    use scalapack   = T
    input           = 3R2.nw
    prefix          = 3R2.
    data base       = ./3R2.db
    status          = startup
    nproc           =       63
    time left       =     -1s



           Memory information
           ------------------

    heap     =  131071994 doubles =   1000.0 Mbytes
    stack    = 2293759999 doubles =  17500.0 Mbytes
    global   =  589824000 doubles =   4500.0 Mbytes (distinct from heap & stack)
    total    = 3014655993 doubles =  23000.0 Mbytes
    verify   = no 
    hardfail = no 


           Directory information
           ---------------------

  0 permanent = .
  0 scratch   = .




                                NWChem Input Module
                                -------------------


                                    3 Ref Open
                                    ----------

 Scaling coordinates for geometry "geometry" by  1.889725989
 (inverse scale =  0.529177249)



                             Geometry "geometry" -> ""
                             -------------------------

 Output coordinates in angstroms (scale by  1.889725989 to convert to a.u.)

  No.       Tag          Charge          X              Y              Z
 ---- ---------------- ---------- -------------- -------------- --------------
    1 O                    8.0000    -0.61781855     1.76539208     0.05780417
    2 C                    6.0000    -0.53545345     0.43056832     0.05452913
    3 C                    6.0000     0.63846829    -0.28336904    -0.04687284
    4 H                    1.0000     1.58162689     0.25178060    -0.09252569
    5 H                    1.0000    -1.54428331     2.13590582     0.00031353
    6 H                    1.0000    -1.50901223    -0.06438434     0.14187262
    7 C                    6.0000     0.65859054    -1.79489197    -0.04413037
    8 H                    1.0000     1.63033600    -2.31303465    -0.00115276
    9 H                    1.0000     0.20576613    -2.01502549    -1.02302147
   10 H                    1.0000     0.00848276    -2.23222247     0.73092496

      Atomic Mass 
      ----------- 

      O                 15.994910
      C                 12.000000
      H                  1.007825


 Effective nuclear repulsion energy (a.u.)     114.8457371138

            Nuclear Dipole moment (a.u.) 
            ----------------------------
        X                 Y               Z
 ---------------- ---------------- ----------------
     0.0000000000     0.0000000000    -0.0000000000


            XYZ format geometry
            -------------------
    10
 geometry
 O                    -0.61781855     1.76539208     0.05780417
 C                    -0.53545345     0.43056832     0.05452913
 C                     0.63846829    -0.28336904    -0.04687284
 H                     1.58162689     0.25178060    -0.09252569
 H                    -1.54428331     2.13590582     0.00031353
 H                    -1.50901223    -0.06438434     0.14187262
 C                     0.65859054    -1.79489197    -0.04413037
 H                     1.63033600    -2.31303465    -0.00115276
 H                     0.20576613    -2.01502549    -1.02302147
 H                     0.00848276    -2.23222247     0.73092496

 ==============================================================================
                                internuclear distances
 ------------------------------------------------------------------------------
       center one      |      center two      | atomic units |  angstroms
 ------------------------------------------------------------------------------
    2 C                |   1 O                |     2.52726  |     1.33737
    3 C                |   2 C                |     2.60349  |     1.37771
    4 H                |   3 C                |     2.05104  |     1.08537
    5 H                |   1 O                |     1.88871  |     0.99946
    6 H                |   2 C                |     2.07046  |     1.09564
    7 C                |   3 C                |     2.85662  |     1.51166
    8 H                |   7 C                |     2.08265  |     1.10209
    9 H                |   7 C                |     2.08019  |     1.10079
   10 H                |   7 C                |     2.08265  |     1.10209
 ------------------------------------------------------------------------------
                         number of included internuclear distances:          9
 ==============================================================================



 ==============================================================================
                                 internuclear angles
 ------------------------------------------------------------------------------
        center 1       |       center 2       |       center 3       |  degrees
 ------------------------------------------------------------------------------
    2 C                |   1 O                |   5 H                |   115.27
    1 O                |   2 C                |   3 C                |   124.74
    1 O                |   2 C                |   6 H                |   113.33
    3 C                |   2 C                |   6 H                |   121.93
    2 C                |   3 C                |   4 H                |   119.21
    2 C                |   3 C                |   7 C                |   121.96
    4 H                |   3 C                |   7 C                |   118.78
    3 C                |   7 C                |   8 H                |   118.81
    3 C                |   7 C                |   9 H                |   101.12
    3 C                |   7 C                |  10 H                |   112.97
    8 H                |   7 C                |   9 H                |   107.66
    8 H                |   7 C                |  10 H                |   107.83
    9 H                |   7 C                |  10 H                |   107.66
 ------------------------------------------------------------------------------
                            number of included internuclear angles:         13
 ==============================================================================




  Deleted DRIVER restart files 



 Summary of "ao basis" -> "" (spherical)
 ------------------------------------------------------------------------------
       Tag                 Description            Shells   Functions and Types
 ---------------- ------------------------------  ------  ---------------------
 *                        aug-cc-pVDZ                 on all atoms 




                           NWChem Geometry Optimization
                           ----------------------------




                                    3 Ref Open


 maximum gradient threshold         (gmax) =   0.000015
 rms gradient threshold             (grms) =   0.000010
 maximum cartesian step threshold   (xmax) =   0.000060
 rms cartesian step threshold       (xrms) =   0.000040
 fixed trust radius                (trust) =   0.300000
 maximum step size to saddle      (sadstp) =   0.100000
 energy precision                  (eprec) =   1.0D-07
 maximum number of steps          (nptopt) =  999
 initial hessian option           (inhess) =    0
 line search option               (linopt) =    1
 hessian update option            (modupd) =    1
 saddle point option              (modsad) =    0
 initial eigen-mode to follow     (moddir) =    0
 initial variable to follow       (vardir) =    0
 follow first negative mode     (firstneg) =    T
 apply conjugacy                    (opcg) =    F
 source of zmatrix                         =           


          -------------------
          Energy Minimization
          -------------------


 Using diagonal initial Hessian 

          --------
          Step   0
          --------


                         Geometry "geometry" -> "geometry"
                         ---------------------------------

 Output coordinates in angstroms (scale by  1.889725989 to convert to a.u.)

  No.       Tag          Charge          X              Y              Z
 ---- ---------------- ---------- -------------- -------------- --------------
    1 O                    8.0000    -0.61781855     1.76539208     0.05780417
    2 C                    6.0000    -0.53545345     0.43056832     0.05452913
    3 C                    6.0000     0.63846829    -0.28336904    -0.04687284
    4 H                    1.0000     1.58162689     0.25178060    -0.09252569
    5 H                    1.0000    -1.54428331     2.13590582     0.00031353
    6 H                    1.0000    -1.50901223    -0.06438434     0.14187262
    7 C                    6.0000     0.65859054    -1.79489197    -0.04413037
    8 H                    1.0000     1.63033600    -2.31303465    -0.00115276
    9 H                    1.0000     0.20576613    -2.01502549    -1.02302147
   10 H                    1.0000     0.00848276    -2.23222247     0.73092496

      Atomic Mass 
      ----------- 

      O                 15.994910
      C                 12.000000
      H                  1.007825


 Effective nuclear repulsion energy (a.u.)     114.8457371138

            Nuclear Dipole moment (a.u.) 
            ----------------------------
        X                 Y               Z
 ---------------- ---------------- ----------------
     0.0000000000     0.0000000000    -0.0000000000

                      Basis "ao basis" -> "ao basis" (spherical)
                      -----
  O (Oxygen)
  ----------
            Exponent  Coefficients 
       -------------- ---------------------------------------------------------
  1 S  1.17200000E+04  0.000710
  1 S  1.75900000E+03  0.005470
  1 S  4.00800000E+02  0.027837
  1 S  1.13700000E+02  0.104800
  1 S  3.70300000E+01  0.283062
  1 S  1.32700000E+01  0.448719
  1 S  5.02500000E+00  0.270952
  1 S  1.01300000E+00  0.015458

  2 S  1.17200000E+04 -0.000160
  2 S  1.75900000E+03 -0.001263
  2 S  4.00800000E+02 -0.006267
  2 S  1.13700000E+02 -0.025716
  2 S  3.70300000E+01 -0.070924
  2 S  1.32700000E+01 -0.165411
  2 S  5.02500000E+00 -0.116955
  2 S  1.01300000E+00  0.557368

  3 S  3.02300000E-01  1.000000

  4 S  7.89600000E-02  1.000000

  5 P  1.77000000E+01  0.043018
  5 P  3.85400000E+00  0.228913
  5 P  1.04600000E+00  0.508728

  6 P  2.75300000E-01  1.000000

  7 P  6.85600000E-02  1.000000

  8 D  1.18500000E+00  1.000000

  9 D  3.32000000E-01  1.000000

  C (Carbon)
  ----------
            Exponent  Coefficients 
       -------------- ---------------------------------------------------------
  1 S  6.66500000E+03  0.000692
  1 S  1.00000000E+03  0.005329
  1 S  2.28000000E+02  0.027077
  1 S  6.47100000E+01  0.101718
  1 S  2.10600000E+01  0.274740
  1 S  7.49500000E+00  0.448564
  1 S  2.79700000E+00  0.285074
  1 S  5.21500000E-01  0.015204

  2 S  6.66500000E+03 -0.000146
  2 S  1.00000000E+03 -0.001154
  2 S  2.28000000E+02 -0.005725
  2 S  6.47100000E+01 -0.023312
  2 S  2.10600000E+01 -0.063955
  2 S  7.49500000E+00 -0.149981
  2 S  2.79700000E+00 -0.127262
  2 S  5.21500000E-01  0.544529

  3 S  1.59600000E-01  1.000000

  4 S  4.69000000E-02  1.000000

  5 P  9.43900000E+00  0.038109
  5 P  2.00200000E+00  0.209480
  5 P  5.45600000E-01  0.508557

  6 P  1.51700000E-01  1.000000

  7 P  4.04100000E-02  1.000000

  8 D  5.50000000E-01  1.000000

  9 D  1.51000000E-01  1.000000

  H (Hydrogen)
  ------------
            Exponent  Coefficients 
       -------------- ---------------------------------------------------------
  1 S  1.30100000E+01  0.019685
  1 S  1.96200000E+00  0.137977
  1 S  4.44600000E-01  0.478148

  2 S  1.22000000E-01  1.000000

  3 S  2.97400000E-02  1.000000

  4 P  7.27000000E-01  1.000000

  5 P  1.41000000E-01  1.000000



 Summary of "ao basis" -> "ao basis" (spherical)
 ------------------------------------------------------------------------------
       Tag                 Description            Shells   Functions and Types
 ---------------- ------------------------------  ------  ---------------------
 O                        aug-cc-pVDZ                9       23   4s3p2d
 C                        aug-cc-pVDZ                9       23   4s3p2d
 H                        aug-cc-pVDZ                5        9   3s2p


                                 NWChem SCF Module
                                 -----------------


                                    3 Ref Open



  ao basis        = "ao basis"
  functions       =   146
  atoms           =    10
  closed shells   =    16
  open shells     =     0
  charge          =   0.00
  wavefunction    = RHF 
  input vectors   = atomic
  output vectors  = ./3R2.movecs
  use symmetry    = F
  symmetry adapt  = F


 Summary of "ao basis" -> "ao basis" (spherical)
 ------------------------------------------------------------------------------
       Tag                 Description            Shells   Functions and Types
 ---------------- ------------------------------  ------  ---------------------
 O                        aug-cc-pVDZ                9       23   4s3p2d
 C                        aug-cc-pVDZ                9       23   4s3p2d
 H                        aug-cc-pVDZ                5        9   3s2p



int_init: setting std/high accuracies to  1.0D-16  1.0D-32

 Forming initial guess at       0.7s


 Forcing the number of linearly dependent vectors to be  0

      Superposition of Atomic Density Guess
      -------------------------------------

 Sum of atomic energies:        -190.76388830

      Non-variational initial energy
      ------------------------------

 Total energy =    -193.012010
 1-e energy   =    -484.261007
 2-e energy   =     176.403260
 HOMO         =      -0.243401
 LUMO         =       0.020027


 Starting SCF solution at       1.0s



 ----------------------------------------------
         Quadratically convergent ROHF

 Convergence threshold     :          1.000E-09
 Maximum no. of iterations :           99
 Final Fock-matrix accuracy:          1.000E-15
 ----------------------------------------------


              iter       energy          gnorm     gmax       time
             ----- ------------------- --------- --------- --------
                 1     -191.8792240311  9.03D-01  1.05D-01      0.7
                 2     -191.9306878118  3.80D-01  4.98D-02      1.1
                 3     -191.9397201726  1.76D-02  3.44D-03      1.7
                 4     -191.9397648504  1.07D-04  1.69D-05      2.7
                 5     -191.9397648519  4.41D-09  6.01D-10      4.6
                 6     -191.9397648519  4.25D-11  6.53D-12      5.5


       Final RHF  results 
       ------------------ 

         Total SCF energy =   -191.939764851947
      One-electron energy =   -487.866885302320
      Two-electron energy =    181.081383336603
 Nuclear repulsion energy =    114.845737113770

        Time for solution =      5.1s


             Final eigenvalues
             -----------------

              1      
    1  -20.5972
    2  -11.2981
    3  -11.2282
    4  -11.2271
    5   -1.4020
    6   -1.0450
    7   -0.9161
    8   -0.7734
    9   -0.7299
   10   -0.6291
   11   -0.5829
   12   -0.5608
   13   -0.5409
   14   -0.5218
   15   -0.4875
   16   -0.3122
   17    0.0314
   18    0.0429
   19    0.0511
   20    0.0625
   21    0.0673
   22    0.0778
   23    0.1127
   24    0.1257
   25    0.1272
   26    0.1415

                       ROHF Final Molecular Orbital Analysis
                       -------------------------------------

 Vector    5  Occ=2.000000D+00  E=-1.401984D+00
              MO Center= -7.0D-01,  1.6D+00,  5.1D-02, r^2= 5.7D-01
   Bfn.  Coefficient  Atom+Function         Bfn.  Coefficient  Atom+Function  
  ----- ------------  ---------------      ----- ------------  ---------------
     3      0.484528   1 O  s                 2      0.418763   1 O  s         
    27     -0.216247   2 C  s                79      0.169796   5 H  s         
     4      0.150662   1 O  s                49     -0.150860   3 C  s         

 Vector    6  Occ=2.000000D+00  E=-1.044980D+00
              MO Center=  3.1D-01, -5.5D-01, -3.2D-02, r^2= 1.9D+00
   Bfn.  Coefficient  Atom+Function         Bfn.  Coefficient  Atom+Function  
  ----- ------------  ---------------      ----- ------------  ---------------
    48      0.282240   3 C  s                98      0.225189   7 C  s         
    25      0.193721   2 C  s                26      0.175248   2 C  s         
    49      0.164057   3 C  s         

 Vector    7  Occ=2.000000D+00  E=-9.161323D-01
              MO Center=  1.3D-01, -6.1D-01, -2.2D-02, r^2= 3.4D+00
   Bfn.  Coefficient  Atom+Function         Bfn.  Coefficient  Atom+Function  
  ----- ------------  ---------------      ----- ------------  ---------------
    98      0.278824   7 C  s                25     -0.244486   2 C  s         
    26     -0.165938   2 C  s                 6      0.161236   1 O  py        
    52     -0.156023   3 C  py              120      0.150577   8 H  s         

 Vector    8  Occ=2.000000D+00  E=-7.734091D-01
              MO Center= -1.3D-02,  2.0D-01,  1.2D-02, r^2= 3.3D+00
   Bfn.  Coefficient  Atom+Function         Bfn.  Coefficient  Atom+Function  
  ----- ------------  ---------------      ----- ------------  ---------------
    50     -0.289844   3 C  s                27      0.282713   2 C  s         
     6      0.266187   1 O  py               49      0.238300   3 C  s         
    48      0.229309   3 C  s                71      0.226922   4 H  s         
    70      0.207169   4 H  s                28      0.203666   2 C  px        
    88     -0.185493   6 H  s                89     -0.180044   6 H  s         

 Vector    9  Occ=2.000000D+00  E=-7.298738D-01
              MO Center= -7.3D-01,  9.6D-01,  5.3D-02, r^2= 2.0D+00
   Bfn.  Coefficient  Atom+Function         Bfn.  Coefficient  Atom+Function  
  ----- ------------  ---------------      ----- ------------  ---------------
     5      0.336438   1 O  px               79     -0.285139   5 H  s         
    29      0.257646   2 C  py               89     -0.257868   6 H  s         
    88     -0.228999   6 H  s                 6     -0.199085   1 O  py        
     8      0.177725   1 O  px               28      0.151359   2 C  px        

 Vector   10  Occ=2.000000D+00  E=-6.291070D-01
              MO Center=  2.9D-01,  2.1D-01,  5.7D-03, r^2= 3.0D+00
   Bfn.  Coefficient  Atom+Function         Bfn.  Coefficient  Atom+Function  
  ----- ------------  ---------------      ----- ------------  ---------------
    51      0.309237   3 C  px               70      0.241633   4 H  s         
     6     -0.233030   1 O  py                5     -0.213743   1 O  px        
    28     -0.207416   2 C  px               29      0.177750   2 C  py        
   101      0.168750   7 C  px               71      0.167594   4 H  s         
     9     -0.150846   1 O  py        

 Vector   11  Occ=2.000000D+00  E=-5.829287D-01
              MO Center= -3.4D-01,  7.3D-01,  2.2D-02, r^2= 3.0D+00
   Bfn.  Coefficient  Atom+Function         Bfn.  Coefficient  Atom+Function  
  ----- ------------  ---------------      ----- ------------  ---------------
     7      0.472726   1 O  pz               10      0.347202   1 O  pz        
    30      0.213837   2 C  pz              103      0.181967   7 C  pz        

 Vector   12  Occ=2.000000D+00  E=-5.607743D-01
              MO Center=  3.8D-01, -1.0D+00, -6.0D-02, r^2= 3.5D+00
   Bfn.  Coefficient  Atom+Function         Bfn.  Coefficient  Atom+Function  
  ----- ------------  ---------------      ----- ------------  ---------------
   103     -0.275271   7 C  pz                7      0.251082   1 O  pz        
   102      0.222218   7 C  py              129      0.221967   9 H  s         
    55     -0.213973   3 C  py               52     -0.201373   3 C  py        
   120     -0.201376   8 H  s               138     -0.189343  10 H  s         
    10      0.185492   1 O  pz        

 Vector   13  Occ=2.000000D+00  E=-5.408688D-01
              MO Center=  5.0D-01, -1.3D+00,  5.8D-02, r^2= 3.1D+00
   Bfn.  Coefficient  Atom+Function         Bfn.  Coefficient  Atom+Function  
  ----- ------------  ---------------      ----- ------------  ---------------
   120      0.277644   8 H  s               101      0.262493   7 C  px        
   138     -0.232552  10 H  s               121      0.227797   8 H  s         
   103     -0.222527   7 C  pz              139     -0.206621  10 H  s         
   102     -0.178670   7 C  py                6      0.172422   1 O  py        
    52      0.162530   3 C  py        

 Vector   14  Occ=2.000000D+00  E=-5.218219D-01
              MO Center= -1.6D-01,  1.2D-01, -6.4D-02, r^2= 3.6D+00
   Bfn.  Coefficient  Atom+Function         Bfn.  Coefficient  Atom+Function  
  ----- ------------  ---------------      ----- ------------  ---------------
    50      0.340734   3 C  s                26     -0.308149   2 C  s         
     5      0.302999   1 O  px              100     -0.281525   7 C  s         
   105      0.282394   7 C  py               31     -0.266958   2 C  px        
    52     -0.247352   3 C  py               28     -0.216047   2 C  px        
     8      0.206219   1 O  px              102      0.204941   7 C  py        

 Vector   15  Occ=2.000000D+00  E=-4.874709D-01
              MO Center=  3.3D-01, -4.7D-01, -1.6D-02, r^2= 3.3D+00
   Bfn.  Coefficient  Atom+Function         Bfn.  Coefficient  Atom+Function  
  ----- ------------  ---------------      ----- ------------  ---------------
    71      0.336004   4 H  s                70      0.271002   4 H  s         
    89      0.259822   6 H  s               105     -0.256161   7 C  py        
    51      0.245685   3 C  px              121     -0.246875   8 H  s         
   101     -0.219131   7 C  px               88      0.203387   6 H  s         
    28     -0.200539   2 C  px               99     -0.183153   7 C  s         

 Vector   16  Occ=2.000000D+00  E=-3.122033D-01
              MO Center=  5.5D-02,  7.1D-02, -2.0D-02, r^2= 2.3D+00
   Bfn.  Coefficient  Atom+Function         Bfn.  Coefficient  Atom+Function  
  ----- ------------  ---------------      ----- ------------  ---------------
    53      0.380269   3 C  pz               30      0.332053   2 C  pz        
    56      0.292298   3 C  pz                7     -0.261048   1 O  pz        
    33      0.254815   2 C  pz               10     -0.215540   1 O  pz        
   130      0.185966   9 H  s         

 Vector   17  Occ=0.000000D+00  E= 3.141568D-02
              MO Center= -2.7D+00,  1.7D+00, -1.8D-02, r^2= 1.3D+01
   Bfn.  Coefficient  Atom+Function         Bfn.  Coefficient  Atom+Function  
  ----- ------------  ---------------      ----- ------------  ---------------
   100      2.790521   7 C  s                90     -2.000993   6 H  s         
    81     -1.874372   5 H  s                27      1.794472   2 C  s         
    34     -1.460838   2 C  px                4     -1.096850   1 O  s         
    58      1.046987   3 C  py               35      0.899142   2 C  py        
    89     -0.797216   6 H  s               108      0.779328   7 C  py        

 Vector   18  Occ=0.000000D+00  E= 4.293942D-02
              MO Center=  1.6D+00, -2.5D+00,  1.4D-01, r^2= 1.9D+01
   Bfn.  Coefficient  Atom+Function         Bfn.  Coefficient  Atom+Function  
  ----- ------------  ---------------      ----- ------------  ---------------
    27      6.074539   2 C  s                50     -6.078687   3 C  s         
   100      4.142895   7 C  s               122     -2.476579   8 H  s         
    57      2.154153   3 C  px               34      1.925258   2 C  px        
    35     -1.870260   2 C  py               72     -1.519945   4 H  s         
    81      1.190212   5 H  s               121     -1.162006   8 H  s         

 Vector   19  Occ=0.000000D+00  E= 5.107870D-02
              MO Center=  4.7D-01, -4.2D-02,  8.0D-02, r^2= 2.5D+01
   Bfn.  Coefficient  Atom+Function         Bfn.  Coefficient  Atom+Function  
  ----- ------------  ---------------      ----- ------------  ---------------
    27      4.591058   2 C  s                72     -4.291671   4 H  s         
    50     -4.051081   3 C  s                57      2.815518   3 C  px        
    90      2.608158   6 H  s               140      1.598669  10 H  s         
    34      1.545947   2 C  px               81     -1.122198   5 H  s         
   122     -1.061658   8 H  s               131      1.059573   9 H  s         

 Vector   20  Occ=0.000000D+00  E= 6.245323D-02
              MO Center= -5.5D-01, -2.5D+00, -8.6D-01, r^2= 1.8D+01
   Bfn.  Coefficient  Atom+Function         Bfn.  Coefficient  Atom+Function  
  ----- ------------  ---------------      ----- ------------  ---------------
   131      5.254582   9 H  s               140     -4.050467  10 H  s         
    27      3.785528   2 C  s                50     -2.871090   3 C  s         
   109      2.215216   7 C  pz               57      1.633640   3 C  px        
    72     -1.364971   4 H  s               130      0.910008   9 H  s         
    35     -0.810103   2 C  py               59     -0.566574   3 C  pz        

 Vector   21  Occ=0.000000D+00  E= 6.730757D-02
              MO Center=  6.0D-01,  6.8D-02, -1.7D-02, r^2= 2.8D+01
   Bfn.  Coefficient  Atom+Function         Bfn.  Coefficient  Atom+Function  
  ----- ------------  ---------------      ----- ------------  ---------------
    72     -5.197553   4 H  s                58      4.736826   3 C  py        
   100      4.660940   7 C  s                90     -4.177738   6 H  s         
   122      3.731652   8 H  s                50     -2.905741   3 C  s         
    81      2.455237   5 H  s               108      2.347117   7 C  py        
    57      2.124690   3 C  px               35     -2.105654   2 C  py        

 Vector   22  Occ=0.000000D+00  E= 7.784988D-02
              MO Center= -6.9D-05, -1.9D+00,  3.6D-01, r^2= 2.5D+01
   Bfn.  Coefficient  Atom+Function         Bfn.  Coefficient  Atom+Function  
  ----- ------------  ---------------      ----- ------------  ---------------
    90      5.616624   6 H  s               122      5.626427   8 H  s         
   140     -5.278264  10 H  s               107     -3.074923   7 C  px        
   131     -2.890704   9 H  s                58     -2.369866   3 C  py        
    35      1.753965   2 C  py               34      1.735223   2 C  px        
    81     -1.658163   5 H  s                57      1.453952   3 C  px        

 Vector   23  Occ=0.000000D+00  E= 1.126553D-01
              MO Center= -3.2D-01, -4.7D-02,  2.2D-02, r^2= 1.3D+01
   Bfn.  Coefficient  Atom+Function         Bfn.  Coefficient  Atom+Function  
  ----- ------------  ---------------      ----- ------------  ---------------
    36      2.759618   2 C  pz               59     -2.283625   3 C  pz        
   131      1.312311   9 H  s                27     -1.085614   2 C  s         
   140     -0.949494  10 H  s               109      0.672998   7 C  pz        
    13     -0.658432   1 O  pz               57     -0.558832   3 C  px        
   100      0.542899   7 C  s                50      0.513358   3 C  s         

 Vector   24  Occ=0.000000D+00  E= 1.256945D-01
              MO Center=  8.0D-01, -2.0D+00,  9.1D-02, r^2= 1.6D+01
   Bfn.  Coefficient  Atom+Function         Bfn.  Coefficient  Atom+Function  
  ----- ------------  ---------------      ----- ------------  ---------------
    50     20.054377   3 C  s               100    -12.792183   7 C  s         
    27     -6.528217   2 C  s               108     -6.498526   7 C  py        
    58     -5.210235   3 C  py               72      4.610569   4 H  s         
    34     -2.794964   2 C  px              131     -1.854898   9 H  s         
   122     -1.680581   8 H  s                35      1.600569   2 C  py        

 Vector   25  Occ=0.000000D+00  E= 1.271820D-01
              MO Center= -9.6D-01,  9.3D-01,  8.6D-02, r^2= 1.9D+01
   Bfn.  Coefficient  Atom+Function         Bfn.  Coefficient  Atom+Function  
  ----- ------------  ---------------      ----- ------------  ---------------
    50    -21.398025   3 C  s                27     20.994402   2 C  s         
    34      8.935224   2 C  px               57      8.290166   3 C  px        
    35     -5.991328   2 C  py               58     -4.695768   3 C  py        
    90      4.221421   6 H  s                81      3.163515   5 H  s         
    72     -2.919050   4 H  s               100     -2.662220   7 C  s         

 Vector   26  Occ=0.000000D+00  E= 1.414590D-01
              MO Center=  1.4D-01,  2.1D-01,  2.9D-01, r^2= 1.3D+01
   Bfn.  Coefficient  Atom+Function         Bfn.  Coefficient  Atom+Function  
  ----- ------------  ---------------      ----- ------------  ---------------
    50      4.381149   3 C  s                34     -3.899227   2 C  px        
    27     -3.331593   2 C  s                90     -3.208084   6 H  s         
    58      1.974881   3 C  py              140      1.825375  10 H  s         
    59     -1.376667   3 C  pz              100      1.212650   7 C  s         
    89     -1.067819   6 H  s               139      0.846416  10 H  s         

 Vector   27  Occ=0.000000D+00  E= 1.485664D-01
              MO Center=  2.1D-01,  4.0D-02, -3.7D-01, r^2= 1.8D+01
   Bfn.  Coefficient  Atom+Function         Bfn.  Coefficient  Atom+Function  
  ----- ------------  ---------------      ----- ------------  ---------------
    90      6.205423   6 H  s                34      5.644720   2 C  px        
    50     -4.026722   3 C  s                89      2.431439   6 H  s         
   140     -2.193482  10 H  s                57     -1.961322   3 C  px        
   131     -1.894741   9 H  s               108     -1.768322   7 C  py        
    55     -1.739030   3 C  py              105     -1.745798   7 C  py        

 Vector   28  Occ=0.000000D+00  E= 1.645457D-01
              MO Center=  3.4D-01,  2.1D-01, -8.5D-02, r^2= 1.9D+01
   Bfn.  Coefficient  Atom+Function         Bfn.  Coefficient  Atom+Function  
  ----- ------------  ---------------      ----- ------------  ---------------
    27     23.326997   2 C  s                50    -22.758644   3 C  s         
    57      8.967309   3 C  px              100      8.011523   7 C  s         
    72     -6.407406   4 H  s                 4     -5.651247   1 O  s         
    34      4.807528   2 C  px              107     -4.479985   7 C  px        
   122      4.283677   8 H  s               131     -3.503224   9 H  s         

 Vector   29  Occ=0.000000D+00  E= 1.712595D-01
              MO Center=  1.5D+00, -2.1D+00,  8.4D-01, r^2= 1.5D+01
   Bfn.  Coefficient  Atom+Function         Bfn.  Coefficient  Atom+Function  
  ----- ------------  ---------------      ----- ------------  ---------------
    27     17.102461   2 C  s                57      5.316497   3 C  px        
    58     -4.649249   3 C  py               50     -4.496617   3 C  s         
   108     -4.102323   7 C  py              122     -4.082243   8 H  s         
   140     -3.553541  10 H  s                34      3.459278   2 C  px        
     4     -3.382412   1 O  s                90      2.768665   6 H  s         

 Vector   30  Occ=0.000000D+00  E= 1.747543D-01
              MO Center=  4.8D-02, -2.0D+00,  1.1D-01, r^2= 1.5D+01
   Bfn.  Coefficient  Atom+Function         Bfn.  Coefficient  Atom+Function  
  ----- ------------  ---------------      ----- ------------  ---------------
    50      7.065928   3 C  s               140      6.560528  10 H  s         
    27     -6.403237   2 C  s               107      4.868345   7 C  px        
   122     -4.455596   8 H  s               109     -3.756801   7 C  pz        
   139      3.490126  10 H  s                57     -2.239315   3 C  px        
   100     -1.992768   7 C  s                59      1.793874   3 C  pz        

 Vector   31  Occ=0.000000D+00  E= 1.790724D-01
              MO Center=  2.2D-01, -1.5D+00, -9.7D-01, r^2= 1.5D+01
   Bfn.  Coefficient  Atom+Function         Bfn.  Coefficient  Atom+Function  
  ----- ------------  ---------------      ----- ------------  ---------------
   100      5.930694   7 C  s                57     -5.505870   3 C  px        
    27     -5.284161   2 C  s                72      4.266796   4 H  s         
   131     -4.182242   9 H  s               130     -3.361098   9 H  s         
   109     -3.009608   7 C  pz               90     -2.600014   6 H  s         
   140      2.059867  10 H  s               107      1.966854   7 C  px        

 Vector   32  Occ=0.000000D+00  E= 1.877600D-01
              MO Center=  9.0D-01,  6.2D-01, -7.6D-03, r^2= 1.7D+01
   Bfn.  Coefficient  Atom+Function         Bfn.  Coefficient  Atom+Function  
  ----- ------------  ---------------      ----- ------------  ---------------
   100     23.608334   7 C  s                58     20.041876   3 C  py        
    27    -11.256486   2 C  s                50     -9.429205   3 C  s         
    35     -8.844388   2 C  py               90     -6.274476   6 H  s         
   108      5.667691   7 C  py               72     -5.334955   4 H  s         
    34     -5.129710   2 C  px                4      3.992965   1 O  s         

 Vector   33  Occ=0.000000D+00  E= 2.077830D-01
              MO Center=  2.2D-01,  9.5D-02, -4.5D-02, r^2= 9.4D+00
   Bfn.  Coefficient  Atom+Function         Bfn.  Coefficient  Atom+Function  
  ----- ------------  ---------------      ----- ------------  ---------------
    50      3.471269   3 C  s                59     -3.006762   3 C  pz        
    27     -2.123265   2 C  s               109      1.953948   7 C  pz        
    36      1.630423   2 C  pz              107     -1.454678   7 C  px        
   122      1.415771   8 H  s               140     -1.337236  10 H  s         
    35      1.259004   2 C  py               71     -0.974216   4 H  s         

 Vector   34  Occ=0.000000D+00  E= 2.219676D-01
              MO Center=  3.1D-01,  4.1D-01, -8.0D-02, r^2= 1.5D+01
   Bfn.  Coefficient  Atom+Function         Bfn.  Coefficient  Atom+Function  
  ----- ------------  ---------------      ----- ------------  ---------------
    50     19.275288   3 C  s                27     -9.561434   2 C  s         
   100     -8.201690   7 C  s                71     -5.605864   4 H  s         
   122      3.706325   8 H  s               107     -3.356976   7 C  px        
    54      2.796733   3 C  px              131     -2.638935   9 H  s         
    35      2.435192   2 C  py               12     -2.231443   1 O  py        

 Vector   35  Occ=0.000000D+00  E= 2.433835D-01
              MO Center= -9.5D-01,  1.1D+00,  9.8D-02, r^2= 1.4D+01
   Bfn.  Coefficient  Atom+Function         Bfn.  Coefficient  Atom+Function  
  ----- ------------  ---------------      ----- ------------  ---------------
    27     21.686210   2 C  s                50    -11.352136   3 C  s         
     4     -8.979880   1 O  s                57      5.577314   3 C  px        
    58     -5.059391   3 C  py               80      3.635114   5 H  s         
    90     -3.333343   6 H  s                11      3.161823   1 O  px        
   100     -3.134261   7 C  s                35      2.768250   2 C  py        

 Vector   36  Occ=0.000000D+00  E= 2.455418D-01
              MO Center= -1.9D-01, -4.2D-01,  3.5D-02, r^2= 1.6D+01
   Bfn.  Coefficient  Atom+Function         Bfn.  Coefficient  Atom+Function  
  ----- ------------  ---------------      ----- ------------  ---------------
    27     25.557170   2 C  s               100    -22.585656   7 C  s         
    58     -7.767787   3 C  py              108     -7.557762   7 C  py        
    35     -7.265514   2 C  py               34      6.972077   2 C  px        
    57      4.159011   3 C  px              122     -3.879352   8 H  s         
    89     -3.653557   6 H  s                50     -3.068223   3 C  s         

 Vector   37  Occ=0.000000D+00  E= 2.659683D-01
              MO Center= -4.9D-01,  1.4D+00, -3.5D-01, r^2= 9.6D+00
   Bfn.  Coefficient  Atom+Function         Bfn.  Coefficient  Atom+Function  
  ----- ------------  ---------------      ----- ------------  ---------------
    50      8.923056   3 C  s                27     -5.368844   2 C  s         
   100     -4.231519   7 C  s                13      2.312809   1 O  pz        
    57     -2.274614   3 C  px               36     -1.884954   2 C  pz        
   140      1.458257  10 H  s               107      1.391594   7 C  px        
   108     -1.396977   7 C  py              131     -1.155316   9 H  s         

 Vector   38  Occ=0.000000D+00  E= 2.800911D-01
              MO Center= -4.6D-02,  2.3D-01,  4.1D-02, r^2= 1.3D+01
   Bfn.  Coefficient  Atom+Function         Bfn.  Coefficient  Atom+Function  
  ----- ------------  ---------------      ----- ------------  ---------------
    50     26.069747   3 C  s               100    -13.480417   7 C  s         
    27     -7.811076   2 C  s                34     -5.023564   2 C  px        
    58     -4.262523   3 C  py              108     -3.872970   7 C  py        
     4     -3.524586   1 O  s                71     -3.148062   4 H  s         
    35      2.429955   2 C  py               11      2.124328   1 O  px        

 Vector   39  Occ=0.000000D+00  E= 3.042164D-01
              MO Center=  3.2D-02, -7.4D-01,  1.6D-02, r^2= 1.1D+01
   Bfn.  Coefficient  Atom+Function         Bfn.  Coefficient  Atom+Function  
  ----- ------------  ---------------      ----- ------------  ---------------
    50     22.742855   3 C  s                27    -16.778709   2 C  s         
    57     -6.060572   3 C  px               34     -5.992382   2 C  px        
   100     -5.870360   7 C  s                35      4.369122   2 C  py        
    72      3.339131   4 H  s                90     -2.122568   6 H  s         
    26     -2.085050   2 C  s                81     -1.709616   5 H  s         

 Vector   40  Occ=0.000000D+00  E= 3.121449D-01
              MO Center= -2.4D-01, -6.8D-01,  1.2D-01, r^2= 1.1D+01
   Bfn.  Coefficient  Atom+Function         Bfn.  Coefficient  Atom+Function  
  ----- ------------  ---------------      ----- ------------  ---------------
    50     20.967582   3 C  s                27    -17.758480   2 C  s         
    34     -6.543603   2 C  px               57     -6.133436   3 C  px        
    35      2.947049   2 C  py               26     -2.749296   2 C  s         
    58      2.718132   3 C  py               31     -2.511160   2 C  px        
    54     -2.371021   3 C  px              100     -2.315341   7 C  s         

 Vector   41  Occ=0.000000D+00  E= 3.356253D-01
              MO Center= -1.3D-01, -7.7D-01,  3.5D-02, r^2= 1.0D+01
   Bfn.  Coefficient  Atom+Function         Bfn.  Coefficient  Atom+Function  
  ----- ------------  ---------------      ----- ------------  ---------------
    50     31.538745   3 C  s               100    -17.853354   7 C  s         
    27    -16.279901   2 C  s                58     -9.110774   3 C  py        
    35      7.083858   2 C  py               57     -5.042597   3 C  px        
   108     -5.022152   7 C  py               89      4.599936   6 H  s         
    72      3.953727   4 H  s                54      2.877038   3 C  px        

 Vector   42  Occ=0.000000D+00  E= 3.537758D-01
              MO Center=  2.2D-01,  2.6D-01,  1.2D-01, r^2= 1.1D+01
   Bfn.  Coefficient  Atom+Function         Bfn.  Coefficient  Atom+Function  
  ----- ------------  ---------------      ----- ------------  ---------------
   100     13.921310   7 C  s                58      8.782415   3 C  py        
    50     -6.251464   3 C  s               108      4.438252   7 C  py        
    27     -4.064697   2 C  s                72     -3.830536   4 H  s         
    11     -2.981636   1 O  px              122      1.909693   8 H  s         
    80     -1.898514   5 H  s                26      1.792689   2 C  s         

 Vector   43  Occ=0.000000D+00  E= 3.739787D-01
              MO Center= -2.6D-01, -5.5D-01, -1.6D-02, r^2= 9.9D+00
   Bfn.  Coefficient  Atom+Function         Bfn.  Coefficient  Atom+Function  
  ----- ------------  ---------------      ----- ------------  ---------------
    50      9.259179   3 C  s                27     -4.352932   2 C  s         
    34     -2.953851   2 C  px              100     -2.813665   7 C  s         
    55      2.247889   3 C  py              105      2.083815   7 C  py        
    71     -1.970911   4 H  s               139      1.970966  10 H  s         
     4     -1.836674   1 O  s                26     -1.827811   2 C  s         

 Vector   44  Occ=0.000000D+00  E= 3.823484D-01
              MO Center=  7.7D-01, -8.1D-01,  1.0D-01, r^2= 9.5D+00
   Bfn.  Coefficient  Atom+Function         Bfn.  Coefficient  Atom+Function  
  ----- ------------  ---------------      ----- ------------  ---------------
    50     12.273320   3 C  s               100     -7.839154   7 C  s         
    58     -5.246092   3 C  py               27     -3.621861   2 C  s         
    71     -3.035403   4 H  s               105      2.693482   7 C  py        
    34     -2.622307   2 C  px               35      2.414856   2 C  py        
    55      2.404549   3 C  py              107     -2.381862   7 C  px        

 Vector   45  Occ=0.000000D+00  E= 3.886418D-01
              MO Center=  6.7D-01, -3.4D-01,  1.3D-01, r^2= 9.4D+00
   Bfn.  Coefficient  Atom+Function         Bfn.  Coefficient  Atom+Function  
  ----- ------------  ---------------      ----- ------------  ---------------
    27     13.002176   2 C  s                50     -8.643127   3 C  s         
    58     -8.180117   3 C  py               34      5.753809   2 C  px        
    90      4.060532   6 H  s                 4     -3.907810   1 O  s         
   100     -3.827483   7 C  s                71      3.226155   4 H  s         
    35      2.805197   2 C  py              140     -2.003800  10 H  s         

 Vector   46  Occ=0.000000D+00  E= 4.031701D-01
              MO Center=  4.5D-01, -7.9D-01, -3.5D-02, r^2= 8.9D+00
   Bfn.  Coefficient  Atom+Function         Bfn.  Coefficient  Atom+Function  
  ----- ------------  ---------------      ----- ------------  ---------------
    27      7.806443   2 C  s               100     -5.286635   7 C  s         
    50     -4.846809   3 C  s                58     -4.223769   3 C  py        
    34      3.660073   2 C  px               57      3.531846   3 C  px        
    90      2.952165   6 H  s                35      1.787162   2 C  py        
   107     -1.793030   7 C  px              139      1.769313  10 H  s         

 Vector   47  Occ=0.000000D+00  E= 4.152105D-01
              MO Center= -2.3D-01,  4.5D-01, -4.5D-03, r^2= 9.9D+00
   Bfn.  Coefficient  Atom+Function         Bfn.  Coefficient  Atom+Function  
  ----- ------------  ---------------      ----- ------------  ---------------
   100      8.536035   7 C  s                58      5.685489   3 C  py        
     4      4.362882   1 O  s                27     -3.686813   2 C  s         
    50     -3.202208   3 C  s                71     -3.198597   4 H  s         
    34     -2.802461   2 C  px               57      2.662488   3 C  px        
    31      2.477811   2 C  px               46      2.320087   2 C  d  2      

 Vector   48  Occ=0.000000D+00  E= 4.199962D-01
              MO Center= -5.2D-02, -6.5D-01, -1.0D-02, r^2= 1.1D+01
   Bfn.  Coefficient  Atom+Function         Bfn.  Coefficient  Atom+Function  
  ----- ------------  ---------------      ----- ------------  ---------------
    50      4.026951   3 C  s               121     -3.747913   8 H  s         
    34     -3.580137   2 C  px              107      3.487159   7 C  px        
   122     -3.081780   8 H  s                27     -2.601024   2 C  s         
    89     -2.428994   6 H  s                90     -2.385304   6 H  s         
   140      2.126090  10 H  s                57     -1.984110   3 C  px        

 Vector   49  Occ=0.000000D+00  E= 4.390378D-01
              MO Center= -9.8D-02,  1.6D-01, -1.0D-02, r^2= 1.0D+01
   Bfn.  Coefficient  Atom+Function         Bfn.  Coefficient  Atom+Function  
  ----- ------------  ---------------      ----- ------------  ---------------
    27     19.634664   2 C  s                50    -11.046344   3 C  s         
     4     -7.349596   1 O  s                57      6.765809   3 C  px        
   100     -5.779979   7 C  s               130      3.750827   9 H  s         
    72     -3.382064   4 H  s                80      2.940680   5 H  s         
    34      2.724033   2 C  px               71     -2.726998   4 H  s         

 Vector   50  Occ=0.000000D+00  E= 4.557207D-01
              MO Center= -4.4D-01,  4.8D-01, -3.2D-02, r^2= 1.0D+01
   Bfn.  Coefficient  Atom+Function         Bfn.  Coefficient  Atom+Function  
  ----- ------------  ---------------      ----- ------------  ---------------
    27     19.372801   2 C  s                50    -12.605705   3 C  s         
     4     -6.428134   1 O  s                57      5.784158   3 C  px        
   100     -3.501665   7 C  s               139      3.398980  10 H  s         
    34      3.297041   2 C  px               72     -2.666725   4 H  s         
    58     -2.110098   3 C  py               80      1.804296   5 H  s         

 Vector   51  Occ=0.000000D+00  E= 4.656979D-01
              MO Center= -1.4D-01, -8.2D-01, -2.3D-01, r^2= 1.1D+01
   Bfn.  Coefficient  Atom+Function         Bfn.  Coefficient  Atom+Function  
  ----- ------------  ---------------      ----- ------------  ---------------
    50    -16.245029   3 C  s                27     14.949523   2 C  s         
   100     14.162521   7 C  s                 4     -9.622025   1 O  s         
   130     -7.322090   9 H  s                57      4.294820   3 C  px        
    49      4.203352   3 C  s               107     -3.241223   7 C  px        
    80      3.012085   5 H  s               108      2.861246   7 C  py        

 Vector   52  Occ=0.000000D+00  E= 4.764482D-01
              MO Center=  2.5D-01, -2.4D-01,  1.5D-01, r^2= 1.0D+01
   Bfn.  Coefficient  Atom+Function         Bfn.  Coefficient  Atom+Function  
  ----- ------------  ---------------      ----- ------------  ---------------
    27     15.676996   2 C  s               100    -10.952688   7 C  s         
     4    -10.469396   1 O  s                58     -5.939508   3 C  py        
    55      5.369955   3 C  py               26     -5.274645   2 C  s         
   130      5.197894   9 H  s                31     -4.613792   2 C  px        
    99      4.304241   7 C  s                54     -3.950078   3 C  px        

 Vector   53  Occ=0.000000D+00  E= 4.853990D-01
              MO Center=  5.2D-01, -1.4D+00, -2.5D-01, r^2= 9.2D+00
   Bfn.  Coefficient  Atom+Function         Bfn.  Coefficient  Atom+Function  
  ----- ------------  ---------------      ----- ------------  ---------------
    50     13.345422   3 C  s               100     -8.926606   7 C  s         
   139      8.778684  10 H  s                27     -8.568413   2 C  s         
    57     -4.542530   3 C  px              140      3.949283  10 H  s         
   109     -3.597936   7 C  pz              107      3.441086   7 C  px        
   106     -3.400163   7 C  pz              105      2.804748   7 C  py        

 Vector   54  Occ=0.000000D+00  E= 4.912303D-01
              MO Center= -3.9D-02, -4.7D-01,  2.0D-02, r^2= 1.2D+01
   Bfn.  Coefficient  Atom+Function         Bfn.  Coefficient  Atom+Function  
  ----- ------------  ---------------      ----- ------------  ---------------
   100      7.508127   7 C  s               121     -6.147855   8 H  s         
    50     -5.166647   3 C  s                35     -3.952962   2 C  py        
    58      3.688348   3 C  py               55     -3.310996   3 C  py        
   105     -3.108406   7 C  py               27      2.745891   2 C  s         
   107      2.755904   7 C  px               49      2.569023   3 C  s         

 Vector   55  Occ=0.000000D+00  E= 5.287491D-01
              MO Center=  7.1D-01, -1.2D+00, -2.6D-02, r^2= 7.7D+00
   Bfn.  Coefficient  Atom+Function         Bfn.  Coefficient  Atom+Function  
  ----- ------------  ---------------      ----- ------------  ---------------
    27      7.007382   2 C  s                50     -5.428860   3 C  s         
    89     -3.099557   6 H  s                35     -2.486851   2 C  py        
   139     -2.430273  10 H  s                31     -1.637787   2 C  px        
   128      1.416169   8 H  pz               71      1.309040   4 H  s         
    99      1.286803   7 C  s                34      1.237319   2 C  px        


 center of mass
 --------------
 x =  -0.01194401 y =   0.13657555 z =   0.00785912

 moments of inertia (a.u.)
 ------------------
         401.124542637632         155.713874411831           7.854508424954
         155.713874411831         111.921040466174         -12.178388075297
           7.854508424954         -12.178388075297         500.475687206720

  Mulliken analysis of the total density
  --------------------------------------

    Atom       Charge   Shell Charges
 -----------   ------   -------------------------------------------------------
    1 O    8     8.82   2.00  0.81  1.00  0.23  2.84  1.79  0.11  0.02  0.01
    2 C    6     5.05   2.01  0.66  0.50 -0.32  1.92  0.22  0.04  0.14 -0.11
    3 C    6     5.83   2.01  0.65  0.35 -0.10  1.99  0.70  0.08  0.08  0.09
    4 H    1     1.36   0.77  0.57  0.02  0.03 -0.03
    5 H    1     0.75   0.69 -0.01 -0.00  0.07  0.00
    6 H    1     1.39   0.78  0.59  0.01  0.03 -0.01
    7 C    6     5.77   2.01  0.64  0.19  0.14  2.03  0.75  0.04  0.07 -0.08
    8 H    1     1.11   0.76  0.35  0.01  0.03 -0.04
    9 H    1     0.90   0.76  0.14 -0.01  0.03 -0.03
   10 H    1     1.01   0.76  0.26  0.01  0.03 -0.05

       Multipole analysis of the density wrt the origin
       ------------------------------------------------

     L   x y z        total         open         nuclear
     -   - - -        -----         ----         -------
     0   0 0 0     -0.000000      0.000000     32.000000

     1   1 0 0     -0.709453      0.000000      0.000000
     1   0 1 0     -0.115824      0.000000      0.000000
     1   0 0 1     -0.036444      0.000000     -0.000000

     2   2 0 0    -14.764139      0.000000     70.300114
     2   1 1 0     -3.084948      0.000000    -90.328660
     2   1 0 1     -0.149530      0.000000     -4.934946
     2   0 2 0    -18.727904      0.000000    231.689674
     2   0 1 1     -0.297641      0.000000      6.831194
     2   0 0 2    -20.654118      0.000000      5.995649

                   NWChem MP2 Semi-direct Energy/Gradient Module
                   ---------------------------------------------


                                    3 Ref Open



int_init: setting std/high accuracies to  1.0D-16  1.0D-32
  Basis functions       =    146
  Molecular orbitals    =    146
  Frozen core           =      4
  Frozen virtuals       =      0
  Active alpha occupied =     12
  Active beta occupied  =     12
  Active alpha virtual  =    130
  Active beta virtual   =    130
  Use MO symmetry       = F
  Use skeleton AO sym   = F

  AO/Fock/Back tols     =   1.0D-15  1.0D-15  1.0D-15

 GA uses MA = F    GA memory limited = T

 Available: 
  local mem=  2.12D+09
 global mem=  5.90D+08
 local disk=  0.00D+00

int_init: setting std/high accuracies to  1.0D-16  1.0D-32
  mp2_memr nvloc                     3
  nvloc new                     3
   1 passes of  12:        5242880                      41850                   1411174.
   1 passes of  12: M   2121676098           G      589821304           F    2116433218.

 Semi-direct pass number   1 of   1  for RHF alpha+beta  at        6.8s

int_init: setting std/high accuracies to  1.0D-16  1.0D-32
  vrange nnbf                 10719
  mp2_eaftype                    10  avail_ma_in_mb                 18499
 EAF : mp2_eaftype filesize          10     674249.
  mp2_eaf for mointskh                     10
Node 0 wrote      3.1 Mb in      0.0 s     Agg I/O rate: 26718.9 Mb/s
 Done moints_semi at        7.2s
  mp2_eaftype                    10  avail_ma_in_mb                 18489
 EAF : mp2_eaftype filesize          10     674249.
  mp2_eaf for kh                    10
  mp2_eaftype                    10  avail_ma_in_mb                 18489
 EAF : mp2_eaftype filesize          10     112320.
  mp2_eaf for ta tb                    10
  mp2_eaf for ta                     10
  mp2_eaf for tb                     10
 Done maket at        7.2s
 Done pijab at        7.2s
 Done wijab at        7.2s
 Done lai at        7.2s

int_init: setting std/high accuracies to  1.0D-16  1.0D-32
  mp2_eaftype                    10  avail_ma_in_mb                 18468
 EAF : mp2_eaftype filesize          10     494414.
  mp2_eaf for 2pdm                     10
 Done nonsep at        8.1s
 Done multipass loop at        8.1s


          -------------------------------------------
          SCF energy                -191.939764851947
          Correlation energy          -0.633972168638
          Singlet pairs               -0.400745951147
          Triplet pairs               -0.233226217491
          Total MP2 energy          -192.573737020585
          -------------------------------------------



          ---------------------------------------------------
                    Spin Component Scaled (SCS) MP2
          Same spin pairs                     -0.155484144994
          Same spin scaling factor             0.333333333333
          Opposite spin pairs                 -0.478488023644
          Opposite spin scaling fact.          1.200000000000
          SCS-MP2 correlation energy          -0.626013676704
          Total SCS-MP2 energy              -192.565778528651
          ---------------------------------------------------

 Start laifock at        8.1s

int_init: setting std/high accuracies to  1.0D-16  1.0D-32
 Done laifock at        8.4s
                                NWChem CPHF Module
                                ------------------



int_init: setting std/high accuracies to  1.0D-16  1.0D-32
    scftype = RHF 
    nclosed =   16
      nopen =    0
  variables =     2080
  tolerance =   1.0D-06
  max. iter =  999

 SCF residual:    4.2503198301417694E-011

            ----- linear solve (tol: 1.0E-06 prod-acc: 3.0E-14) -----

               iter nbas    rnorm     rnorm-scal   ratio     time
               ---- ---- ----------- ----------- --------- -------
                  1    1  4.0869E-02  2.9628E-01    0.0000     7.6
                  2    2  1.1172E-02  8.0995E-02    0.2734     7.8
                  3    3  3.1703E-03  2.2983E-02    0.2838     8.0
                  4    4  1.0527E-03  7.6318E-03    0.3321     8.1
                  5    5  3.3948E-04  2.4611E-03    0.3225     8.3
                  6    6  1.0648E-04  7.7193E-04    0.3137     8.5
                  7    7  3.7195E-05  2.6965E-04    0.3493     8.7
                  8    8  1.0726E-05  7.7762E-05    0.2884     8.8
                  9    9  3.5546E-06  2.5769E-05    0.3314     9.0
                 10   10  1.1622E-06  8.4256E-06    0.3270     9.2
                 11   11  2.9301E-07  2.1242E-06    0.2521     9.4
                 12   12  6.2176E-08  4.5075E-07    0.2122     9.5

 CPHF converged to   4.5D-07 in   12 iters

 Start make_tot_dens at       11.2s
 Done make_tot_dens at       11.3s

int_init: setting std/high accuracies to  1.0D-16  1.0D-32
                Dipole Moments (a.u.)
                --------------
         Nuclear       SCF       SCF+MP2
       ----------- ----------- -----------
 X       0.000000   -0.709453   -0.678041
 Y       0.000000   -0.115824   -0.074515
 Z      -0.000000   -0.036444   -0.036058


 MP2 RHF      natural orbital occupation numbers


              1      
    1    2.0000
    2    2.0000
    3    2.0000
    4    2.0000
    5    1.9860
    6    1.9824
    7    1.9773
    8    1.9721
    9    1.9666
   10    1.9663
   11    1.9660
   12    1.9637
   13    1.9614
   14    1.9598
   15    1.9548
   16    1.9285
   17    0.0544
   18    0.0294
   19    0.0256
   20    0.0227
   21    0.0216
   22    0.0177
   23    0.0174
   24    0.0173
   25    0.0166
   26    0.0157
   27    0.0135
   28    0.0129
   29    0.0111
   30    0.0102
   31    0.0092
   32    0.0090
   33    0.0088
   34    0.0079
   35    0.0077
   36    0.0071
   37    0.0065
   38    0.0061
   39    0.0058
   40    0.0056
   41    0.0043
   42    0.0041
   43    0.0036
   44    0.0034
   45    0.0029
   46    0.0023
   47    0.0022
   48    0.0021
   49    0.0020
   50    0.0016
   51    0.0015
   52    0.0014
   53    0.0014
   54    0.0013
   55    0.0013
   56    0.0012
   57    0.0012
   58    0.0012
   59    0.0010
   60    0.0008
   61    0.0008
   62    0.0008
   63    0.0007
   64    0.0007
   65    0.0007
   66    0.0007
   67    0.0006
   68    0.0006
   69    0.0006
   70    0.0006
   71    0.0005
   72    0.0005
   73    0.0004
   74    0.0004
   75    0.0004
   76    0.0004
   77    0.0004
   78    0.0004
   79    0.0003
   80    0.0003
   81    0.0003
   82    0.0003
   83    0.0003
   84    0.0002
   85    0.0002
   86    0.0002
   87    0.0002
   88    0.0002
   89    0.0002
   90    0.0002
   91    0.0001
   92    0.0001
   93    0.0001
   94    0.0001
   95    0.0001
   96    0.0001
   97    0.0001
   98    0.0001
   99    0.0001
  100    0.0001
  101    0.0001
  102    0.0001
  103    0.0001
  104    0.0001
  105    0.0001
  106    0.0001
  107    0.0001
  108    0.0001
  109    0.0000
  110    0.0000
  111    0.0000
  112    0.0000
  113    0.0000
  114    0.0000
  115    0.0000
  116    0.0000
  117    0.0000
  118    0.0000
  119    0.0000
  120    0.0000
  121    0.0000
  122    0.0000
  123    0.0000
  124    0.0000
  125    0.0000
  126    0.0000
  127    0.0000
  128    0.0000
  129    0.0000
  130    0.0000
  131    0.0000
  132    0.0000
  133    0.0000
  134    0.0000
  135    0.0000
  136    0.0000
  137    0.0000
  138    0.0000
  139   -0.0000
  140   -0.0000
  141   -0.0000
  142   -0.0000
  143   -0.0000
  144   -0.0000
  145   -0.0001
  146   -0.0003

  MP2 natural orbitals output to ./3R2.mp2nos


int_init: setting std/high accuracies to  1.0D-16  1.0D-32

int_init: setting std/high accuracies to  1.0D-16  1.0D-32


                         mp2 ENERGY GRADIENTS

    atom               coordinates                        gradient
                 x          y          z           x          y          z
   1 O      -1.167508   3.336107   0.109234    0.012341  -0.054906   0.001912
   2 C      -1.011860   0.813656   0.103045   -0.009124   0.045282   0.002454
   3 C       1.206530  -0.535490  -0.088577    0.015799  -0.018619  -0.016788
   4 H       2.988841   0.475796  -0.174848   -0.004390  -0.006498   0.002266
   5 H      -2.918272   4.036277   0.000592   -0.027378   0.021144  -0.001974
   6 H      -2.851620  -0.121669   0.268100   -0.001201   0.007765   0.000220
   7 C       1.244556  -3.391854  -0.083394    0.016966   0.001349   0.012750
   8 H       3.080888  -4.371002  -0.002178   -0.001334  -0.010591  -0.001348
   9 H       0.388842  -3.807846  -1.933230   -0.000992   0.015976   0.000899
  10 H       0.016030  -4.218289   1.381248   -0.000687  -0.000901  -0.000393

                 ----------------------------------------
                 |  Time  |  1-e(secs)   |  2-e(secs)   |
                 ----------------------------------------
                 |  CPU   |       0.00   |       0.28   |
                 ----------------------------------------
                 |  WALL  |       0.00   |       0.28   |
                 ----------------------------------------
 -----------------------
 Performance information
 -----------------------

 Timer overhead =  2.99D-07 seconds/call

               Nr. of calls         CPU time (s)                 Wall time (s)                GFlops
             ---------------    -------------------     ------------------------------   -------------------
Name         Min   Avg   Max    Min     Avg     Max     Min     Avg     Max   Mx/calls   Min     Max     Sum
mp2: moin     1     1     1   0.27    0.30    0.32     0.36    0.36    0.36    0.36      0.0     0.0     0.0   
mp2: make     1     1     1   1.55E-2 2.23E-2 2.78E-2  2.79E-2 2.81E-2 2.87E-2 2.87E-2   0.0     0.0     0.0   
mp2: pija     1     1     1   2.84E-3 2.86E-3 3.20E-3  2.86E-3 2.87E-3 3.20E-3 3.20E-3   0.0     0.0     0.0   
mp2: wija     1     1     1    0.0    2.84E-3 3.12E-3  3.08E-3 3.08E-3 3.12E-3 3.12E-3   0.0     0.0     0.0   
mp2: lai      1     1     1   3.20E-2 3.28E-2 3.32E-2  3.29E-2 3.29E-2 3.32E-2 3.32E-2   0.0     0.0     0.0   
mp2: back     1     1     1   3.01E-2 3.15E-2 3.43E-2  3.44E-2 3.44E-2 3.44E-2 3.44E-2   0.0     0.0     0.0   
mp2: nons     1     1     1   0.45    0.58    0.73     0.46    0.58    0.73    0.73      0.0     0.0     0.0   
mp2: laif     1     1     1   0.30    0.32    0.33     0.34    0.34    0.34    0.34      0.0     0.0     0.0   
mp2: cphf     1     1     1    2.3     2.4     2.5      2.8     2.8     2.8     2.8      0.0     0.0     0.0   
mp2: wijf     1     1     1   0.31    0.32    0.33     0.33    0.33    0.33    0.33      0.0     0.0     0.0   
mp2: sep      1     1     1   0.31    0.32    0.33     0.36    0.36    0.36    0.36      0.0     0.0     0.0   
mp2: tota     1     1     1    4.6     4.7     4.7      5.3     5.3     5.3     5.3      0.0     0.0     0.0   

 The average no. of pstat calls per process was 1.20D+01
 with a timing overhead of 3.59D-06s


@ Step       Energy      Delta E   Gmax     Grms     Xrms     Xmax   Walltime
@ ---- ---------------- -------- -------- -------- -------- -------- --------
@    0    -192.57373702  0.0D+00  0.05491  0.01668  0.00000  0.00000     12.1
                                                                    

                                 NWChem SCF Module
                                 -----------------


                                    3 Ref Open



  ao basis        = "ao basis"
  functions       =   146
  atoms           =    10
  closed shells   =    16
  open shells     =     0
  charge          =   0.00
  wavefunction    = RHF 
  input vectors   = ./3R2.movecs
  output vectors  = ./3R2.movecs
  use symmetry    = F
  symmetry adapt  = F


 Summary of "ao basis" -> "ao basis" (spherical)
 ------------------------------------------------------------------------------
       Tag                 Description            Shells   Functions and Types
 ---------------- ------------------------------  ------  ---------------------
 O                        aug-cc-pVDZ                9       23   4s3p2d
 C                        aug-cc-pVDZ                9       23   4s3p2d
 H                        aug-cc-pVDZ                5        9   3s2p



int_init: setting std/high accuracies to  1.0D-16  1.0D-32

 Forming initial guess at      12.1s


 Forcing the number of linearly dependent vectors to be  0

 Loading old vectors from job with title :

3 Ref Open


 Starting SCF solution at      12.1s



 ----------------------------------------------
         Quadratically convergent ROHF

 Convergence threshold     :          1.000E-09
 Maximum no. of iterations :           99
 Final Fock-matrix accuracy:          1.000E-15
 ----------------------------------------------


              iter       energy          gnorm     gmax       time
             ----- ------------------- --------- --------- --------
                 1     -191.9409344314  2.94D-01  3.53D-02     10.6
                 2     -191.9477260077  1.15D-02  1.42D-03     11.2
                 3     -191.9477437317  6.32D-05  1.45D-05     12.3
                 4     -191.9477437323  1.99D-09  2.44D-10     14.1
                 5     -191.9477437323  7.93D-11  1.03D-11     14.8


       Final RHF  results 
       ------------------ 

         Total SCF energy =   -191.947743732263
      One-electron energy =   -486.997724550570
      Two-electron energy =    180.657707353401
 Nuclear repulsion energy =    114.392273464907

        Time for solution =      4.5s


             Final eigenvalues
             -----------------

              1      
    1  -20.5931
    2  -11.2969
    3  -11.2320
    4  -11.2310
    5   -1.3864
    6   -1.0499
    7   -0.9168
    8   -0.7667
    9   -0.7195
   10   -0.6250
   11   -0.5796
   12   -0.5561
   13   -0.5358
   14   -0.5308
   15   -0.4975
   16   -0.3241
   17    0.0330
   18    0.0424
   19    0.0509
   20    0.0603
   21    0.0681
   22    0.0781
   23    0.1101
   24    0.1233
   25    0.1284
   26    0.1399

                       ROHF Final Molecular Orbital Analysis
                       -------------------------------------

 Vector    5  Occ=2.000000D+00  E=-1.386444D+00
              MO Center= -6.9D-01,  1.6D+00,  4.9D-02, r^2= 5.8D-01
   Bfn.  Coefficient  Atom+Function         Bfn.  Coefficient  Atom+Function  
  ----- ------------  ---------------      ----- ------------  ---------------
     3      0.479234   1 O  s                 2      0.420148   1 O  s         
    27     -0.210577   2 C  s                79      0.195858   5 H  s         

 Vector    6  Occ=2.000000D+00  E=-1.049912D+00
              MO Center=  2.7D-01, -5.0D-01, -2.1D-02, r^2= 1.8D+00
   Bfn.  Coefficient  Atom+Function         Bfn.  Coefficient  Atom+Function  
  ----- ------------  ---------------      ----- ------------  ---------------
    48      0.284548   3 C  s                98      0.217328   7 C  s         
    26      0.210822   2 C  s                25      0.204081   2 C  s         
    49      0.151896   3 C  s         

 Vector    7  Occ=2.000000D+00  E=-9.167516D-01
              MO Center=  1.8D-01, -7.8D-01, -3.4D-02, r^2= 3.2D+00
   Bfn.  Coefficient  Atom+Function         Bfn.  Coefficient  Atom+Function  
  ----- ------------  ---------------      ----- ------------  ---------------
    98      0.290914   7 C  s                25     -0.237611   2 C  s         
    52     -0.157138   3 C  py              129      0.154232   9 H  s         
   120      0.153430   8 H  s         

 Vector    8  Occ=2.000000D+00  E=-7.666670D-01
              MO Center= -6.2D-02,  8.8D-02,  1.9D-02, r^2= 2.8D+00
   Bfn.  Coefficient  Atom+Function         Bfn.  Coefficient  Atom+Function  
  ----- ------------  ---------------      ----- ------------  ---------------
    27      0.322061   2 C  s                50     -0.295664   3 C  s         
    49      0.283878   3 C  s                89     -0.263380   6 H  s         
    88     -0.245981   6 H  s                28      0.227547   2 C  px        
    70      0.224499   4 H  s                26     -0.223097   2 C  s         
    48      0.223294   3 C  s                71      0.223193   4 H  s         

 Vector    9  Occ=2.000000D+00  E=-7.195250D-01
              MO Center= -6.5D-01,  1.1D+00,  4.2D-02, r^2= 2.2D+00
   Bfn.  Coefficient  Atom+Function         Bfn.  Coefficient  Atom+Function  
  ----- ------------  ---------------      ----- ------------  ---------------
     5      0.349432   1 O  px               79     -0.323319   5 H  s         
     6     -0.253061   1 O  py               29      0.248950   2 C  py        
    89     -0.189049   6 H  s                 8      0.170014   1 O  px        
    88     -0.165913   6 H  s         

 Vector   10  Occ=2.000000D+00  E=-6.249927D-01
              MO Center=  2.7D-01,  2.4D-01,  8.7D-03, r^2= 3.0D+00
   Bfn.  Coefficient  Atom+Function         Bfn.  Coefficient  Atom+Function  
  ----- ------------  ---------------      ----- ------------  ---------------
    51      0.310883   3 C  px                6     -0.245934   1 O  py        
    70      0.239444   4 H  s                28     -0.206117   2 C  px        
     5     -0.191504   1 O  px               29      0.191188   2 C  py        
    71      0.190462   4 H  s               101      0.173915   7 C  px        
     9     -0.167651   1 O  py        

 Vector   11  Occ=2.000000D+00  E=-5.795883D-01
              MO Center=  6.7D-02, -6.0D-01, -8.6D-02, r^2= 3.9D+00
   Bfn.  Coefficient  Atom+Function         Bfn.  Coefficient  Atom+Function  
  ----- ------------  ---------------      ----- ------------  ---------------
   103      0.319114   7 C  pz                7      0.310441   1 O  pz        
   129     -0.260738   9 H  s                10      0.227573   1 O  pz        
   138      0.198375  10 H  s                30      0.165074   2 C  pz        

 Vector   12  Occ=2.000000D+00  E=-5.560584D-01
              MO Center= -1.9D-01,  2.2D-01,  3.8D-02, r^2= 4.3D+00
   Bfn.  Coefficient  Atom+Function         Bfn.  Coefficient  Atom+Function  
  ----- ------------  ---------------      ----- ------------  ---------------
     7      0.435333   1 O  pz               10      0.319210   1 O  pz        
   103     -0.246401   7 C  pz              138     -0.200727  10 H  s         
   129      0.177476   9 H  s               130      0.162396   9 H  s         
   139     -0.158007  10 H  s         

 Vector   13  Occ=2.000000D+00  E=-5.358327D-01
              MO Center= -3.3D-01,  4.7D-01, -1.6D-02, r^2= 3.5D+00
   Bfn.  Coefficient  Atom+Function         Bfn.  Coefficient  Atom+Function  
  ----- ------------  ---------------      ----- ------------  ---------------
     5      0.317824   1 O  px               50      0.297846   3 C  s         
    26     -0.251049   2 C  s                88      0.228768   6 H  s         
   100     -0.224486   7 C  s                28     -0.221239   2 C  px        
     8      0.206121   1 O  px               31     -0.201919   2 C  px        
     6      0.192188   1 O  py               89      0.183988   6 H  s         

 Vector   14  Occ=2.000000D+00  E=-5.308206D-01
              MO Center=  6.4D-01, -1.1D+00, -1.8D-02, r^2= 2.7D+00
   Bfn.  Coefficient  Atom+Function         Bfn.  Coefficient  Atom+Function  
  ----- ------------  ---------------      ----- ------------  ---------------
   102     -0.304481   7 C  py               52      0.299921   3 C  py        
   120      0.291197   8 H  s               101      0.225838   7 C  px        
   105     -0.212319   7 C  py              121      0.185136   8 H  s         
     6      0.174338   1 O  py        

 Vector   15  Occ=2.000000D+00  E=-4.974747D-01
              MO Center=  4.8D-01, -7.6D-01,  2.8D-03, r^2= 3.1D+00
   Bfn.  Coefficient  Atom+Function         Bfn.  Coefficient  Atom+Function  
  ----- ------------  ---------------      ----- ------------  ---------------
    71      0.298394   4 H  s                70      0.271434   4 H  s         
   101     -0.259895   7 C  px              105     -0.253810   7 C  py        
   121     -0.254115   8 H  s                89      0.243233   6 H  s         
    51      0.236444   3 C  px              138      0.193975  10 H  s         
   120     -0.187030   8 H  s                28     -0.175441   2 C  px        

 Vector   16  Occ=2.000000D+00  E=-3.241494D-01
              MO Center=  2.5D-02,  1.1D-01,  1.3D-02, r^2= 2.2D+00
   Bfn.  Coefficient  Atom+Function         Bfn.  Coefficient  Atom+Function  
  ----- ------------  ---------------      ----- ------------  ---------------
    53      0.377434   3 C  pz               30      0.343132   2 C  pz        
    56      0.288469   3 C  pz                7     -0.264521   1 O  pz        
    33      0.257324   2 C  pz               10     -0.214742   1 O  pz        
   130      0.185696   9 H  s         

 Vector   17  Occ=0.000000D+00  E= 3.302580D-02
              MO Center= -2.6D+00,  1.1D+00, -3.3D-02, r^2= 1.5D+01
   Bfn.  Coefficient  Atom+Function         Bfn.  Coefficient  Atom+Function  
  ----- ------------  ---------------      ----- ------------  ---------------
   100      3.347356   7 C  s                90     -2.181199   6 H  s         
    27      1.947602   2 C  s                81     -1.670732   5 H  s         
    34     -1.390458   2 C  px               58      1.160377   3 C  py        
     4     -0.939457   1 O  s                89     -0.933359   6 H  s         
   108      0.758998   7 C  py               49      0.733538   3 C  s         

 Vector   18  Occ=0.000000D+00  E= 4.241238D-02
              MO Center=  1.6D+00, -2.2D+00,  6.1D-02, r^2= 2.1D+01
   Bfn.  Coefficient  Atom+Function         Bfn.  Coefficient  Atom+Function  
  ----- ------------  ---------------      ----- ------------  ---------------
    50     -6.107360   3 C  s                27      5.868402   2 C  s         
   100      3.811267   7 C  s               122     -2.542769   8 H  s         
    57      2.221058   3 C  px               34      2.086428   2 C  px        
    35     -1.840105   2 C  py               72     -1.570110   4 H  s         
    81      1.344407   5 H  s                90      1.221958   6 H  s         

 Vector   19  Occ=0.000000D+00  E= 5.086752D-02
              MO Center=  5.6D-01,  1.0D-01,  3.7D-02, r^2= 2.5D+01
   Bfn.  Coefficient  Atom+Function         Bfn.  Coefficient  Atom+Function  
  ----- ------------  ---------------      ----- ------------  ---------------
    27      4.837854   2 C  s                72     -4.331728   4 H  s         
    50     -4.250624   3 C  s                57      2.860205   3 C  px        
    90      2.316123   6 H  s               140      1.679960  10 H  s         
    34      1.367917   2 C  px               58      1.242696   3 C  py        
    81     -1.243145   5 H  s               100      1.091809   7 C  s         

 Vector   20  Occ=0.000000D+00  E= 6.025621D-02
              MO Center= -4.9D-01, -2.5D+00, -9.1D-01, r^2= 1.8D+01
   Bfn.  Coefficient  Atom+Function         Bfn.  Coefficient  Atom+Function  
  ----- ------------  ---------------      ----- ------------  ---------------
   131      5.404967   9 H  s               140     -3.870227  10 H  s         
    27      2.340691   2 C  s               109      2.352362   7 C  pz        
    50     -1.964913   3 C  s                57      0.957191   3 C  px        
    72     -0.872149   4 H  s               130      0.840379   9 H  s         
   122     -0.831758   8 H  s                35     -0.696017   2 C  py        

 Vector   21  Occ=0.000000D+00  E= 6.813259D-02
              MO Center=  3.1D-01,  2.3D-01,  1.5D-02, r^2= 2.8D+01
   Bfn.  Coefficient  Atom+Function         Bfn.  Coefficient  Atom+Function  
  ----- ------------  ---------------      ----- ------------  ---------------
    72     -4.984875   4 H  s                58      4.596974   3 C  py        
    90     -4.491738   6 H  s               100      3.799126   7 C  s         
   122      3.211312   8 H  s                81      2.759102   5 H  s         
    35     -2.300695   2 C  py              108      1.978471   7 C  py        
    50     -1.960684   3 C  s                57      1.913903   3 C  px        

 Vector   22  Occ=0.000000D+00  E= 7.814777D-02
              MO Center=  2.4D-01, -1.8D+00,  4.3D-01, r^2= 2.5D+01
   Bfn.  Coefficient  Atom+Function         Bfn.  Coefficient  Atom+Function  
  ----- ------------  ---------------      ----- ------------  ---------------
   122      5.637959   8 H  s               140     -5.044328  10 H  s         
    90      5.014203   6 H  s               107     -2.813728   7 C  px        
    50      2.638165   3 C  s               131     -2.580643   9 H  s         
    27     -1.832775   2 C  s                35      1.785683   2 C  py        
    58     -1.681327   3 C  py               81     -1.616110   5 H  s         

 Vector   23  Occ=0.000000D+00  E= 1.100783D-01
              MO Center= -2.0D-01, -4.8D-02,  2.5D-02, r^2= 1.2D+01
   Bfn.  Coefficient  Atom+Function         Bfn.  Coefficient  Atom+Function  
  ----- ------------  ---------------      ----- ------------  ---------------
    36      2.565676   2 C  pz               50      2.512576   3 C  s         
    59     -2.275852   3 C  pz               27     -1.589697   2 C  s         
   100     -1.281841   7 C  s               140     -0.997982  10 H  s         
   131      0.980173   9 H  s                57     -0.680198   3 C  px        
   109      0.625834   7 C  pz               13     -0.560799   1 O  pz        

 Vector   24  Occ=0.000000D+00  E= 1.233380D-01
              MO Center=  7.2D-01, -2.1D+00,  1.3D-01, r^2= 1.6D+01
   Bfn.  Coefficient  Atom+Function         Bfn.  Coefficient  Atom+Function  
[...]
           6    -0.04213    -0.04267     0.04097     0.13005    -0.02773    -0.14535
           7    -0.04267     0.02305    -0.12987     0.02701    -0.00976     0.03695
           8    -0.01087     0.00587    -0.02654     0.00688    -0.07896     0.00941
           9    -0.11536     0.06228     0.05056     0.07296     0.01105     0.09987
          10    -0.06860     0.05017    -0.17477    -0.03403     0.06029    -0.18473
          11    -0.01748     0.01277     0.05752    -0.00868    -0.19484    -0.04706
          12    -0.18543     0.13557     0.05923    -0.09202    -0.00394    -0.49930
          13    -0.21628    -0.14729     0.13626    -0.19491    -0.12978     0.03380
          14    -0.05510    -0.03753     0.17023    -0.04966    -0.03622     0.00860
          15    -0.58453    -0.39807    -0.06654    -0.52677     0.05144     0.09135
          16     0.01032    -0.05148    -0.16869     0.10705     0.04309     0.14377
          17     0.00263    -0.01312     0.12331     0.02726     0.10110     0.03662
          18     0.02787    -0.13919     0.05081     0.28932    -0.02547     0.38861
          19     0.01907    -0.00439     0.09539    -0.02357     0.04084     0.00871
          20     0.00486    -0.00112    -0.01861    -0.00600    -0.13585     0.00222
          21     0.05156    -0.01186    -0.03354    -0.06368    -0.00231     0.02355
          22    -0.04908     0.28912     0.17431    -0.11688     0.09055    -0.01547
          23     0.12825    -0.06243     0.09162    -0.15306    -0.07072    -0.18150
          24     0.19080    -0.39036    -0.07534    -0.02194    -0.02973    -0.03520
          25     0.16837    -0.47596     0.17570     0.06545     0.09242    -0.02200
          26    -0.09787     0.01484     0.09200     0.13996    -0.07024     0.17198
          27     0.13166    -0.11459    -0.07150    -0.11701    -0.02468    -0.06609
          28    -0.00559     0.15317     0.18037    -0.09194     0.08918    -0.03046
          29    -0.00142     0.03903    -0.22790    -0.02340    -0.25442    -0.00776
          30    -0.01511     0.41405    -0.04525    -0.24847    -0.00901    -0.08232

                   13          14          15          16          17          18
 
 P.Frequency      922.41      928.65     1050.66     1114.65     1140.19     1214.66
 
           1    -0.00342    -0.00029     0.00057    -0.00487    -0.00388    -0.03356
           2     0.04828    -0.00007     0.00015    -0.02071     0.12860    -0.07405
           3    -0.00328    -0.00077     0.00154     0.00376    -0.01068     0.01939
           4    -0.06695     0.02324     0.00367    -0.04548    -0.04797    -0.02722
           5    -0.02623     0.00592     0.00093     0.00016    -0.16003     0.09073
           6     0.02723     0.06282     0.00993     0.01681     0.03283     0.00152
           7     0.04160     0.01187    -0.03550     0.07145     0.04675    -0.01101
           8     0.04327     0.00303    -0.00904     0.14208    -0.06804    -0.01736
           9    -0.01947     0.03208    -0.09595    -0.03982    -0.01088     0.00571
          10    -0.12423    -0.21987     0.05840     0.12608     0.13241     0.27347
          11     0.34799    -0.05598     0.01488     0.05484    -0.22973    -0.52383
          12     0.01319    -0.59426     0.15785    -0.05180    -0.02734    -0.05182
          13     0.02621     0.00319     0.00631     0.10962     0.02854     0.14808
          14     0.15542     0.00082     0.00161     0.35449     0.26795     0.50197
          15    -0.02434     0.00861     0.01705    -0.07397    -0.03582    -0.10210
          16    -0.09803    -0.24524    -0.01531     0.04820     0.01393     0.01161
          17     0.03043    -0.06247    -0.00390    -0.18935    -0.29984     0.00816
          18     0.03346    -0.66286    -0.04139     0.00001     0.02311    -0.00506
          19     0.08241     0.00531     0.04398    -0.06757    -0.01041     0.06000
          20    -0.09628     0.00134     0.01120    -0.09668     0.05632     0.02214
          21    -0.02142     0.01434     0.11886     0.03411    -0.00146    -0.02428
          22    -0.14712    -0.01142     0.04468     0.08578     0.01793    -0.05609
          23    -0.35413    -0.08058    -0.51370     0.01182     0.09667    -0.08112
          24     0.12671    -0.00508    -0.14083    -0.08651    -0.01802     0.06501
          25    -0.17225     0.00049    -0.15623     0.12043     0.01940    -0.07974
          26    -0.36055     0.07776     0.48530     0.02066     0.09703    -0.08715
          27     0.05879    -0.02441    -0.16066     0.00715    -0.01404     0.00110
          28    -0.10970    -0.00384    -0.09159     0.08258    -0.01216    -0.02393
          29     0.35818    -0.00096    -0.02332    -0.46630     0.07201     0.21984
          30     0.00683    -0.01036    -0.24756     0.01340    -0.00228    -0.01187

                   19          20          21          22          23          24
 
 P.Frequency     1338.26     1354.54     1404.24     1465.49     1491.73     1742.29
 
           1     0.01912    -0.04723    -0.01711     0.00008     0.00680     0.01667
           2     0.00960    -0.02200     0.00034     0.00002    -0.00230    -0.01402
           3    -0.00798     0.01955     0.00630     0.00021    -0.00230    -0.00485
           4    -0.08053     0.03771     0.02552     0.00022    -0.01875    -0.13598
           5    -0.04009    -0.02594    -0.01130     0.00006     0.02461     0.13240
           6     0.03357    -0.01151    -0.00838     0.00060     0.00462     0.03783
           7     0.06427     0.07230     0.00960     0.00621    -0.00923     0.13077
           8     0.05560    -0.07858    -0.05033     0.00158    -0.00182    -0.12627
           9    -0.02902    -0.01934     0.00119     0.01679     0.00359    -0.03648
          10     0.29702    -0.12370    -0.08186    -0.01096     0.00994    -0.00512
          11    -0.35755     0.27627     0.10332    -0.00279    -0.03578     0.16956
          12    -0.07619     0.01973     0.02055    -0.02964    -0.00030    -0.01408
          13    -0.09612     0.08810     0.03028    -0.00160    -0.01060    -0.02891
          14    -0.36326     0.40004     0.15083    -0.00040    -0.05686    -0.15555
          15     0.06980    -0.07030    -0.02542    -0.00433     0.00928     0.02536
          16    -0.35074    -0.23657    -0.03043    -0.00500     0.03606    -0.00404
          17     0.51446     0.54800     0.11230    -0.00127    -0.09837    -0.22126
          18     0.08128     0.03588     0.00067    -0.01352    -0.00407     0.02235
          19    -0.00066    -0.03750    -0.01471     0.01775    -0.04531    -0.01204
          20     0.00539    -0.01191     0.13651     0.00452    -0.00469     0.02408
          21    -0.00026     0.01500    -0.00742     0.04799     0.01721     0.00218
          22    -0.00091     0.11182    -0.11550     0.32042     0.32509    -0.01374
          23    -0.06792     0.20461    -0.43368     0.31048    -0.20508     0.06967
          24    -0.02629    -0.06678    -0.12882    -0.19790    -0.49004     0.02651
          25     0.02042     0.11579     0.02164    -0.35282     0.57632    -0.03182
          26    -0.06248     0.20563    -0.39874    -0.31867    -0.14109     0.06506
          27     0.03136    -0.05608     0.24197     0.11041     0.18915    -0.02235
          28     0.02838    -0.06919     0.20448    -0.23928    -0.17205     0.02445
          29    -0.06450     0.10102    -0.43097    -0.06095     0.35809    -0.06465
          30    -0.00442     0.01609    -0.03507    -0.64676     0.02988    -0.00296

                   25          26          27          28          29          30
 
 P.Frequency     3051.31     3128.53     3146.85     3195.31     3207.90     3854.03
 
           1    -0.00009     0.00000     0.00010    -0.00114    -0.00010     0.05371
           2     0.00030     0.00000    -0.00004    -0.00045     0.00025    -0.02247
           3     0.00001     0.00001    -0.00003     0.00046     0.00001    -0.01776
           4     0.00030     0.00002     0.00098     0.07254     0.00169     0.00210
           5    -0.00102     0.00000     0.00103     0.03019    -0.00553     0.00197
           6    -0.00002     0.00005    -0.00046    -0.02968    -0.00010    -0.00096
           7     0.00025     0.00011     0.00633    -0.00727    -0.06774    -0.00027
           8    -0.00108     0.00002     0.00461     0.00343    -0.03662     0.00034
           9     0.00001     0.00031    -0.00278     0.00237     0.02851     0.00007
          10    -0.00557    -0.00002    -0.08372     0.02545     0.76312    -0.00232
          11    -0.00002     0.00002    -0.04821     0.01339     0.45875    -0.00070
          12     0.00206    -0.00030     0.03552    -0.01068    -0.32557     0.00092
          13    -0.00108     0.00006    -0.00018     0.01092    -0.00205    -0.86224
          14     0.00099     0.00002    -0.00058     0.00340     0.00304     0.32659
          15     0.00031     0.00016     0.00012    -0.00436     0.00047     0.28825
          16     0.00428     0.00041    -0.01076    -0.79595     0.02768    -0.00920
          17     0.00441     0.00011    -0.00879    -0.40258     0.01625     0.00181
          18    -0.00200     0.00105     0.00481     0.33241    -0.01177     0.00323
          19    -0.00596     0.03040    -0.08169     0.00094    -0.00893    -0.00002
          20     0.04924     0.00775    -0.00374     0.00016     0.00171     0.00001
          21    -0.00248     0.08186     0.03070    -0.00037     0.00314     0.00001
          22     0.42894    -0.49887     0.24849    -0.00066     0.02805    -0.00051
          23    -0.15264     0.19164    -0.10021    -0.00123    -0.01373     0.00061
          24     0.36733    -0.40599     0.23539    -0.00048     0.02614    -0.00057
          25     0.09841     0.12913     0.04353    -0.00012     0.00531    -0.00006
          26    -0.23654    -0.28564    -0.15322    -0.00109    -0.01954     0.00073
          27    -0.52523    -0.59300    -0.32101     0.00098    -0.03538     0.00065
          28    -0.45917     0.00573     0.68667    -0.01001     0.07214     0.00016
          29    -0.18228     0.00128     0.28895    -0.00698     0.03263    -0.00004
          30     0.18704     0.01889    -0.28125     0.00436    -0.02976    -0.00005



 ----------------------------------------------------------------------------
 Normal Eigenvalue ||    Projected Derivative Dipole Moments (debye/angs)
  Mode   [cm**-1]  ||      [d/dqX]             [d/dqY]           [d/dqZ]
 ------ ---------- || ------------------ ------------------ -----------------
    1        0.000 ||      -0.030               0.076             4.948
    2        0.000 ||       0.031               0.049            -0.644
    3        0.000 ||       0.114               0.007             1.962
    4        0.000 ||       0.109               0.037             1.044
    5        0.000 ||       0.031              -0.099             5.985
    6        0.000 ||       0.004               0.001            -3.530
    7      176.827 ||      -0.363              -0.092            -1.957
    8      214.597 ||      -0.290              -0.074            -1.341
    9      289.606 ||       0.003              -0.125             9.854
   10      308.616 ||      -0.314              -0.080             1.200
   11      532.099 ||      -0.184               0.526            -0.294
   12      783.702 ||      -0.031              -0.008            -4.204
   13      922.409 ||      -0.195              -0.044            -4.639
   14      928.654 ||      -0.391              -0.100             1.997
   15     1050.665 ||       0.057               0.014             0.472
   16     1114.650 ||      -0.055               0.615             2.491
   17     1140.190 ||       0.725              -1.300             5.255
   18     1214.656 ||      -0.314               1.806            -1.856
   19     1338.265 ||      -0.053              -0.685           -18.630
   20     1354.535 ||       0.144               0.453           -12.865
   21     1404.245 ||       0.165              -0.112             1.534
   22     1465.492 ||       0.125               0.032             0.290
   23     1491.734 ||       0.299               0.166             1.471
   24     1742.295 ||      -0.660               0.993            -1.700
   25     3051.312 ||      -0.188               0.904            -0.119
   26     3128.527 ||       0.228               0.058             0.612
   27     3146.853 ||      -0.671               0.068             0.539
   28     3195.312 ||       0.354               0.444            15.024
   29     3207.899 ||      -0.248              -0.410            -0.215
   30     3854.032 ||      -1.089               0.954             0.386
 ----------------------------------------------------------------------------



  
  
 ----------------------------------------------------------------------------
 Normal Eigenvalue ||           Projected Infra Red Intensities
  Mode   [cm**-1]  || [atomic units] [(debye/angs)**2] [(KM/mol)] [arbitrary]
 ------ ---------- || -------------- ----------------- ---------- -----------
    1        0.000 ||    1.061682          24.494      1034.981       7.184
    2        0.000 ||    0.018123           0.418        17.668       0.123
    3        0.000 ||    0.167391           3.862       163.181       1.133
    4        0.000 ||    0.047829           1.103        46.626       0.324
    5        0.000 ||    1.553130          35.832      1514.069      10.509
    6        0.000 ||    0.540096          12.460       526.512       3.655
    7      176.827 ||    0.172141           3.971       167.812       1.165
    8      214.597 ||    0.081824           1.888        79.766       0.554
    9      289.606 ||    4.209533          97.117      4103.661      28.484
   10      308.616 ||    0.067001           1.546        65.316       0.453
   11      532.099 ||    0.017194           0.397        16.762       0.116
   12      783.702 ||    0.766136          17.675       746.867       5.184
   13      922.409 ||    0.934380          21.557       910.880       6.322
   14      928.654 ||    0.179862           4.150       175.339       1.217
   15     1050.665 ||    0.009818           0.227         9.571       0.066
   16     1114.650 ||    0.285593           6.589       278.410       1.932
   17     1140.190 ||    1.292818          29.826      1260.303       8.748
   18     1214.656 ||    0.294923           6.804       287.506       1.996
   19     1338.265 ||   15.063752         347.533     14684.892     101.929
   20     1354.535 ||    7.183628         165.732      7002.957      48.608
   21     1404.245 ||    0.103700           2.392       101.092       0.702
   22     1465.492 ||    0.004378           0.101         4.267       0.030
   23     1491.734 ||    0.098810           2.280        96.325       0.669
   24     1742.295 ||    0.186933           4.313       182.231       1.265
   25     3051.312 ||    0.037538           0.866        36.594       0.254
   26     3128.527 ||    0.018650           0.430        18.181       0.126
   27     3146.853 ||    0.032311           0.745        31.498       0.219
   28     3195.312 ||    9.797576         226.038      9551.163      66.295
   29     3207.899 ||    0.011945           0.276        11.644       0.081
   30     3854.032 ||    0.097322           2.245        94.874       0.659
 ----------------------------------------------------------------------------



 vib:animation  F

 Task  times  cpu:      484.4s     wall:      538.5s


                                NWChem Input Module
                                -------------------


 Summary of allocated global arrays
-----------------------------------
  No active global arrays


MA_summarize_allocated_blocks: starting scan ...
MA_summarize_allocated_blocks: scan completed: 0 heap blocks, 0 stack blocks
MA usage statistics:

	allocation statistics:
					      heap	     stack
					      ----	     -----
	current number of blocks	         0	         0
	maximum number of blocks	        22	        39
	current total bytes		         0	         0
	maximum total bytes		  31920984	  27113112
	maximum total K-bytes		     31921	     27114
	maximum total M-bytes		        32	        28


                                     CITATION
                                     --------
                Please cite the following reference when publishing
                           results obtained with NWChem:

          E. Apra, E. J. Bylaska, W. A. de Jong, N. Govind, K. Kowalski,
       T. P. Straatsma, M. Valiev, H. J. J. van Dam, Y. Alexeev, J. Anchell,
       V. Anisimov, F. W. Aquino, R. Atta-Fynn, J. Autschbach, N. P. Bauman,
     J. C. Becca, D. E. Bernholdt, K. Bhaskaran-Nair, S. Bogatko, P. Borowski,
         J. Boschen, J. Brabec, A. Bruner, E. Cauet, Y. Chen, G. N. Chuev,
      C. J. Cramer, J. Daily, M. J. O. Deegan, T. H. Dunning Jr., M. Dupuis,
   K. G. Dyall, G. I. Fann, S. A. Fischer, A. Fonari, H. Fruchtl, L. Gagliardi,
      J. Garza, N. Gawande, S. Ghosh, K. Glaesemann, A. W. Gotz, J. Hammond,
       V. Helms, E. D. Hermes, K. Hirao, S. Hirata, M. Jacquelin, L. Jensen,
   B. G. Johnson, H. Jonsson, R. A. Kendall, M. Klemm, R. Kobayashi, V. Konkov,
      S. Krishnamoorthy, M. Krishnan, Z. Lin, R. D. Lins, R. J. Littlefield,
      A. J. Logsdail, K. Lopata, W. Ma, A. V. Marenich, J. Martin del Campo,
   D. Mejia-Rodriguez, J. E. Moore, J. M. Mullin, T. Nakajima, D. R. Nascimento,
    J. A. Nichols, P. J. Nichols, J. Nieplocha, A. Otero-de-la-Roza, B. Palmer,
    A. Panyala, T. Pirojsirikul, B. Peng, R. Peverati, J. Pittner, L. Pollack,
   R. M. Richard, P. Sadayappan, G. C. Schatz, W. A. Shelton, D. W. Silverstein,
   D. M. A. Smith, T. A. Soares, D. Song, M. Swart, H. L. Taylor, G. S. Thomas,
            V. Tipparaju, D. G. Truhlar, K. Tsemekhman, T. Van Voorhis,
      A. Vazquez-Mayagoitia, P. Verma, O. Villa, A. Vishnu, K. D. Vogiatzis,
        D. Wang, J. H. Weare, M. J. Williamson, T. L. Windus, K. Wolinski,
        A. T. Wong, Q. Wu, C. Yang, Q. Yu, M. Zacharias, Z. Zhang, Y. Zhao,
                                and R. J. Harrison
                        "NWChem: Past, present, and future
                         J. Chem. Phys. 152, 184102 (2020)
                               doi:10.1063/5.0004997

                                      AUTHORS
                                      -------
  E. Apra, E. J. Bylaska, N. Govind, K. Kowalski, M. Valiev, D. Mejia-Rodriguez,
       A. Kunitsa, N. P. Bauman, A. Panyala, W. A. de Jong, T. P. Straatsma,
   H. J. J. van Dam, D. Wang, T. L. Windus, J. Hammond, J. Autschbach, A. Woods,
    K. Bhaskaran-Nair, J. Brabec, K. Lopata, S. A. Fischer, S. Krishnamoorthy,
     M. Jacquelin, W. Ma, M. Klemm, O. Villa, Y. Chen, V. Anisimov, F. Aquino,
     S. Hirata, M. T. Hackler, E. Hermes, L. Jensen, J. E. Moore, J. C. Becca,
      V. Konjkov, T. Risthaus, M. Malagoli, A. Marenich, A. Otero-de-la-Roza,
        J. Mullin, P. Nichols, R. Peverati, J. Pittner, Y. Zhao, P.-D. Fan,
        A. Fonari, M. J. Williamson, R. J. Harrison, J. R. Rehr, M. Dupuis,
     D. Silverstein, D. M. A. Smith, J. Nieplocha, V. Tipparaju, M. Krishnan,
     B. E. Van Kuiken, A. Vazquez-Mayagoitia, M. Swart, Q. Wu, T. Van Voorhis,
     A. A. Auer, M. Nooijen, L. D. Crosby, E. Brown, G. Cisneros, G. I. Fann,
   H. Fruchtl, J. Garza, K. Hirao, R. A. Kendall, J. A. Nichols, K. Tsemekhman,
    K. Wolinski, J. Anchell, D. E. Bernholdt, P. Borowski, T. Clark, D. Clerc,
   H. Dachsel, M. J. O. Deegan, K. Dyall, D. Elwood, E. Glendening, M. Gutowski,
   A. C. Hess, J. Jaffe, B. G. Johnson, J. Ju, R. Kobayashi, R. Kutteh, Z. Lin,
   R. Littlefield, X. Long, B. Meng, T. Nakajima, S. Niu, L. Pollack, M. Rosing,
   K. Glaesemann, G. Sandrone, M. Stave, H. Taylor, G. Thomas, J. H. van Lenthe,
                               A. T. Wong, Z. Zhang.

 Total times  cpu:      923.8s     wall:     1031.1s
