 Entering Gaussian System, Link 0=g16
 Input=5.gjf
 Output=5.log
 Initial command:
 /sw/contrib/gaussian/g16/A03/g16/l1.exe "/gscratch/scrubbed/gds001/Gau-3797.inp" -scrdir="/gscratch/scrubbed/gds001/"
 Entering Link 1 = /sw/contrib/gaussian/g16/A03/g16/l1.exe PID=      3798.
  
 Copyright (c) 1988,1990,1992,1993,1995,1998,2003,2009,2016,
            Gaussian, Inc.  All Rights Reserved.
  
 This is part of the Gaussian(R) 16 program.  It is based on
 the Gaussian(R) 09 system (copyright 2009, Gaussian, Inc.),
 the Gaussian(R) 03 system (copyright 2003, Gaussian, Inc.),
 the Gaussian(R) 98 system (copyright 1998, Gaussian, Inc.),
 the Gaussian(R) 94 system (copyright 1995, Gaussian, Inc.),
 the Gaussian 92(TM) system (copyright 1992, Gaussian, Inc.),
 the Gaussian 90(TM) system (copyright 1990, Gaussian, Inc.),
 the Gaussian 88(TM) system (copyright 1988, Gaussian, Inc.),
 the Gaussian 86(TM) system (copyright 1986, Carnegie Mellon
 University), and the Gaussian 82(TM) system (copyright 1983,
 Carnegie Mellon University). Gaussian is a federally registered
 trademark of Gaussian, Inc.
  
 This software contains proprietary and confidential information,
 including trade secrets, belonging to Gaussian, Inc.
  
 This software is provided under written license and may be
 used, copied, transmitted, or stored only in accord with that
 written license.
  
 The following legend is applicable only to US Government
 contracts under FAR:
  
                    RESTRICTED RIGHTS LEGEND
  
 Use, reproduction and disclosure by the US Government is
 subject to restrictions as set forth in subparagraphs (a)
 and (c) of the Commercial Computer Software - Restricted
 Rights clause in FAR 52.227-19.
  
 Gaussian, Inc.
 340 Quinnipiac St., Bldg. 40, Wallingford CT 06492
  
  
 ---------------------------------------------------------------
 Warning -- This program may not be used in any manner that
 competes with the business of Gaussian, Inc. or will provide
 assistance to any competitor of Gaussian, Inc.  The licensee
 of this program is prohibited from giving any competitor of
 Gaussian, Inc. access to this program.  By using this program,
 the user acknowledges that Gaussian, Inc. is engaged in the
 business of creating and licensing software in the field of
 computational chemistry and represents and warrants to the
 licensee that it is not a competitor of Gaussian, Inc. and that
 it will not use this program in any manner prohibited above.
 ---------------------------------------------------------------
  

 Cite this work as:
 Gaussian 16, Revision A.03,
 M. J. Frisch, G. W. Trucks, H. B. Schlegel, G. E. Scuseria, 
 M. A. Robb, J. R. Cheeseman, G. Scalmani, V. Barone, 
 G. A. Petersson, H. Nakatsuji, X. Li, M. Caricato, A. V. Marenich, 
 J. Bloino, B. G. Janesko, R. Gomperts, B. Mennucci, H. P. Hratchian, 
 J. V. Ortiz, A. F. Izmaylov, J. L. Sonnenberg, D. Williams-Young, 
 F. Ding, F. Lipparini, F. Egidi, J. Goings, B. Peng, A. Petrone, 
 T. Henderson, D. Ranasinghe, V. G. Zakrzewski, J. Gao, N. Rega, 
 G. Zheng, W. Liang, M. Hada, M. Ehara, K. Toyota, R. Fukuda, 
 J. Hasegawa, M. Ishida, T. Nakajima, Y. Honda, O. Kitao, H. Nakai, 
 T. Vreven, K. Throssell, J. A. Montgomery, Jr., J. E. Peralta, 
 F. Ogliaro, M. J. Bearpark, J. J. Heyd, E. N. Brothers, K. N. Kudin, 
 V. N. Staroverov, T. A. Keith, R. Kobayashi, J. Normand, 
 K. Raghavachari, A. P. Rendell, J. C. Burant, S. S. Iyengar, 
 J. Tomasi, M. Cossi, J. M. Millam, M. Klene, C. Adamo, R. Cammi, 
 J. W. Ochterski, R. L. Martin, K. Morokuma, O. Farkas, 
 J. B. Foresman, and D. J. Fox, Gaussian, Inc., Wallingford CT, 2016.
 
 ******************************************
 Gaussian 16:  ES64L-G16RevA.03 25-Dec-2016
                27-Oct-2020 
 ******************************************
 %nprocshared=28
 Will use up to   28 processors via shared memory.
 %mem=41GB
 %chk=5.chk
 -------------------------------------------------------
 # MP2/6-31G** Opt=(Recalc=50) Freq=(vibrot, anharmonic)
 -------------------------------------------------------
 1/10=4,18=20,19=15,38=1,71=50,80=1/1,3;
 2/9=110,12=2,17=6,18=5,40=1/2;
 3/5=1,6=6,7=101,11=9,25=1,30=1,71=2,140=1/1,2,3;
 4//1;
 5/5=2,38=5/2;
 8/6=3,8=1,10=2,19=11,30=-1/1;
 9/15=3,16=-3/6;
 11/6=1,8=1,15=11,17=12,24=-1,27=1,28=-2,29=300,32=6,42=3/1,2,10;
 10/6=2,21=1/2;
 8/6=4,8=1,10=2,19=11,30=-1/11,4;
 10/5=1,20=4/2;
 11/12=2,14=11,16=1,17=2,28=-2,42=3/2,10,12;
 6/7=2,8=2,9=2,10=2/1;
 7/10=1,12=2,25=1,44=2/1,2,3,16;
 1/10=4,18=20,19=15,71=50,80=1/3(3);
 2/9=110/2;
 7/9=1,25=1,44=-1/16;
 99//99;
 2/9=110/2;
 3/5=1,6=6,7=101,11=9,25=1,30=1,71=2,140=1/1,2,3;
 4/5=5,16=3,69=1/1;
 5/5=2,38=5/2;
 8/6=3,8=1,10=2,19=11,30=-1/1;
 9/15=3,16=-3/6;
 11/6=1,8=1,15=11,17=12,24=-1,27=1,28=-2,29=300,32=6,42=3/1,2,10;
 10/6=2,21=1/2;
 8/6=4,8=1,10=2,19=11,30=-1/11,4;
 10/5=1,20=4/2;
 11/12=2,14=11,16=1,17=2,28=-2,42=3/2,10,12;
 7/10=1,12=2,25=1,44=2/1,2,3,16;
 1/18=20,19=15,71=50,80=1/3(-12);
 2/9=110/2;
 6/7=2,8=2,9=2,10=2/1;
 7/9=1,25=1,44=-1/16;
 99//99;
 -------
 H,Fe,Me
 -------
 Symbolic Z-matrix:
 Charge =  0 Multiplicity = 1
 C                    -1.76197   1.4132   -0.25387 
 C                    -2.02983   0.09998  -0.14692 
 O                    -0.52643   1.98124  -0.43208 
 C                    -0.91427  -0.88407  -0.21081 
 O                     0.20099  -0.516    -0.59242 
 C                    -3.40335  -0.43911   0.00895 
 H                     0.1374    1.2629   -0.55204 
 C                    -1.13897  -2.30621   0.23659 
 F                    -4.35775   0.5271   -0.02737 
 F                    -3.56355  -1.08942   1.18928 
 F                    -3.71528  -1.32258  -0.97279 
 H                    -1.86408  -2.80295  -0.41143 
 H                    -1.46642  -2.32759   1.27871 
 H                    -0.19473  -2.85603   0.16972 
 H                    -2.52153   2.18792  -0.21406 
 

 GradGradGradGradGradGradGradGradGradGradGradGradGradGradGradGradGradGrad
 Berny optimization.
 Initialization pass.
                           ----------------------------
                           !    Initial Parameters    !
                           ! (Angstroms and Degrees)  !
 --------------------------                            --------------------------
 ! Name  Definition              Value          Derivative Info.                !
 --------------------------------------------------------------------------------
 ! R1    R(1,2)                  1.3445         calculate D2E/DX2 analytically  !
 ! R2    R(1,3)                  1.3715         calculate D2E/DX2 analytically  !
 ! R3    R(1,15)                 1.0857         calculate D2E/DX2 analytically  !
 ! R4    R(2,4)                  1.4889         calculate D2E/DX2 analytically  !
 ! R5    R(2,6)                  1.4837         calculate D2E/DX2 analytically  !
 ! R6    R(3,7)                  0.9854         calculate D2E/DX2 analytically  !
 ! R7    R(4,5)                  1.2349         calculate D2E/DX2 analytically  !
 ! R8    R(4,8)                  1.5077         calculate D2E/DX2 analytically  !
 ! R9    R(6,9)                  1.3586         calculate D2E/DX2 analytically  !
 ! R10   R(6,10)                 1.3571         calculate D2E/DX2 analytically  !
 ! R11   R(6,11)                 1.3571         calculate D2E/DX2 analytically  !
 ! R12   R(8,12)                 1.092          calculate D2E/DX2 analytically  !
 ! R13   R(8,13)                 1.0926         calculate D2E/DX2 analytically  !
 ! R14   R(8,14)                 1.0947         calculate D2E/DX2 analytically  !
 ! A1    A(2,1,3)              126.4657         calculate D2E/DX2 analytically  !
 ! A2    A(2,1,15)             123.6881         calculate D2E/DX2 analytically  !
 ! A3    A(3,1,15)             109.8455         calculate D2E/DX2 analytically  !
 ! A4    A(1,2,4)              119.5282         calculate D2E/DX2 analytically  !
 ! A5    A(1,2,6)              123.2062         calculate D2E/DX2 analytically  !
 ! A6    A(4,2,6)              117.2552         calculate D2E/DX2 analytically  !
 ! A7    A(1,3,7)              108.7095         calculate D2E/DX2 analytically  !
 ! A8    A(2,4,5)              119.5329         calculate D2E/DX2 analytically  !
 ! A9    A(2,4,8)              119.9351         calculate D2E/DX2 analytically  !
 ! A10   A(5,4,8)              120.4944         calculate D2E/DX2 analytically  !
 ! A11   A(2,6,9)              112.8986         calculate D2E/DX2 analytically  !
 ! A12   A(2,6,10)             112.0089         calculate D2E/DX2 analytically  !
 ! A13   A(2,6,11)             111.9206         calculate D2E/DX2 analytically  !
 ! A14   A(9,6,10)             106.3267         calculate D2E/DX2 analytically  !
 ! A15   A(9,6,11)             106.3903         calculate D2E/DX2 analytically  !
 ! A16   A(10,6,11)            106.8642         calculate D2E/DX2 analytically  !
 ! A17   A(4,8,12)             110.606          calculate D2E/DX2 analytically  !
 ! A18   A(4,8,13)             110.2532         calculate D2E/DX2 analytically  !
 ! A19   A(4,8,14)             109.0916         calculate D2E/DX2 analytically  !
 ! A20   A(12,8,13)            110.984          calculate D2E/DX2 analytically  !
 ! A21   A(12,8,14)            107.9406         calculate D2E/DX2 analytically  !
 ! A22   A(13,8,14)            107.8764         calculate D2E/DX2 analytically  !
 ! D1    D(3,1,2,4)              0.4869         calculate D2E/DX2 analytically  !
 ! D2    D(3,1,2,6)           -178.3093         calculate D2E/DX2 analytically  !
 ! D3    D(15,1,2,4)          -179.8426         calculate D2E/DX2 analytically  !
 ! D4    D(15,1,2,6)             1.3612         calculate D2E/DX2 analytically  !
 ! D5    D(2,1,3,7)              5.0562         calculate D2E/DX2 analytically  !
 ! D6    D(15,1,3,7)          -174.6523         calculate D2E/DX2 analytically  !
 ! D7    D(1,2,4,5)            -12.6889         calculate D2E/DX2 analytically  !
 ! D8    D(1,2,4,8)            165.0912         calculate D2E/DX2 analytically  !
 ! D9    D(6,2,4,5)            166.1781         calculate D2E/DX2 analytically  !
 ! D10   D(6,2,4,8)            -16.0418         calculate D2E/DX2 analytically  !
 ! D11   D(1,2,6,9)              2.7166         calculate D2E/DX2 analytically  !
 ! D12   D(1,2,6,10)          -117.2755         calculate D2E/DX2 analytically  !
 ! D13   D(1,2,6,11)           122.7277         calculate D2E/DX2 analytically  !
 ! D14   D(4,2,6,9)           -176.1051         calculate D2E/DX2 analytically  !
 ! D15   D(4,2,6,10)            63.9028         calculate D2E/DX2 analytically  !
 ! D16   D(4,2,6,11)           -56.0941         calculate D2E/DX2 analytically  !
 ! D17   D(2,4,8,12)            64.6705         calculate D2E/DX2 analytically  !
 ! D18   D(2,4,8,13)           -58.459          calculate D2E/DX2 analytically  !
 ! D19   D(2,4,8,14)          -176.7501         calculate D2E/DX2 analytically  !
 ! D20   D(5,4,8,12)          -117.571          calculate D2E/DX2 analytically  !
 ! D21   D(5,4,8,13)           119.2994         calculate D2E/DX2 analytically  !
 ! D22   D(5,4,8,14)             1.0084         calculate D2E/DX2 analytically  !
 --------------------------------------------------------------------------------
 Trust Radius=3.00D-01 FncErr=1.00D-07 GrdErr=1.00D-07 EigMax=2.50D+02 EigMin=1.00D-04
 Number of steps in this run=     68 maximum allowed number of steps=    100.
 GradGradGradGradGradGradGradGradGradGradGradGradGradGradGradGradGradGrad

                          Input orientation:                          
 ---------------------------------------------------------------------
 Center     Atomic      Atomic             Coordinates (Angstroms)
 Number     Number       Type             X           Y           Z
 ---------------------------------------------------------------------
      1          6           0       -1.761969    1.413203   -0.253866
      2          6           0       -2.029827    0.099978   -0.146923
      3          8           0       -0.526427    1.981239   -0.432079
      4          6           0       -0.914272   -0.884074   -0.210806
      5          8           0        0.200993   -0.515996   -0.592417
      6          6           0       -3.403350   -0.439114    0.008947
      7          1           0        0.137397    1.262904   -0.552042
      8          6           0       -1.138966   -2.306210    0.236593
      9          9           0       -4.357751    0.527104   -0.027369
     10          9           0       -3.563553   -1.089422    1.189279
     11          9           0       -3.715284   -1.322576   -0.972791
     12          1           0       -1.864076   -2.802948   -0.411428
     13          1           0       -1.466423   -2.327590    1.278708
     14          1           0       -0.194732   -2.856026    0.169716
     15          1           0       -2.521532    2.187925   -0.214059
 ---------------------------------------------------------------------
                    Distance matrix (angstroms):
                    1          2          3          4          5
     1  C    0.000000
     2  C    1.344524   0.000000
     3  O    1.371491   2.425009   0.000000
     4  C    2.449067   1.488927   2.899898   0.000000
     5  O    2.773021   2.356787   2.605961   1.234878   0.000000
     6  C    2.488831   1.483738   3.785406   2.538068   3.654973
     7  H    1.928494   2.492665   0.985423   2.414946   1.780494
     8  C    3.802988   2.594313   4.382299   1.507688   2.384872
     9  F    2.752191   2.369801   4.117929   3.725939   4.710571
    10  F    3.404630   2.356358   4.613230   3.003514   4.204171
    11  F    3.437554   2.355097   4.623459   2.935741   4.016525
    12  H    4.220330   2.919660   4.967714   2.150454   3.086651
    13  H    4.053352   2.871051   4.730369   2.146453   3.092452
    14  H    4.567491   3.493680   4.885828   2.133337   2.492627
    15  H    1.085686   2.146113   2.017596   3.467055   3.855707
                    6          7          8          9         10
     6  C    0.000000
     7  H    3.968432   0.000000
     8  C    2.943689   3.871643   0.000000
     9  F    1.358594   4.585088   4.296268   0.000000
    10  F    1.357111   4.718333   2.875205   2.173509   0.000000
    11  F    1.357062   4.658850   3.011239   2.174374   2.179892
    12  H    2.851980   4.533962   1.092001   4.177938   2.895972
    13  H    2.988364   4.337687   1.092561   4.267890   2.437008
    14  H    4.020266   4.194857   1.094691   5.367974   3.938191
    15  H    2.780048   2.835453   4.723539   2.482918   3.714319
                   11         12         13         14         15
    11  F    0.000000
    12  H    2.435898   0.000000
    13  H    3.337166   1.800182   0.000000
    14  H    4.006380   1.768405   1.768137   0.000000
    15  H    3.784750   5.037858   4.871497   5.568009   0.000000
 Stoichiometry    C5H5F3O2
 Framework group  C1[X(C5H5F3O2)]
 Deg. of freedom    39
 Full point group                 C1      NOp   1
 Largest Abelian subgroup         C1      NOp   1
 Largest concise Abelian subgroup C1      NOp   1
                         Standard orientation:                         
 ---------------------------------------------------------------------
 Center     Atomic      Atomic             Coordinates (Angstroms)
 Number     Number       Type             X           Y           Z
 ---------------------------------------------------------------------
      1          6           0        0.934048   -1.481515   -0.097751
      2          6           0        0.253170   -0.324687   -0.020952
      3          8           0        2.297901   -1.625035   -0.114983
      4          6           0        0.998556    0.962570    0.044425
      5          8           0        2.213709    0.951847    0.263994
      6          6           0       -1.228108   -0.255428    0.029021
      7          1           0        2.710558   -0.740498    0.020543
      8          6           0        0.277888    2.262857   -0.206604
      9          9           0       -1.814267   -1.480918    0.048262
     10          9           0       -1.743214    0.397046   -1.043682
     11          9           0       -1.667768    0.396754    1.134904
     12          1           0       -0.472633    2.441701    0.566183
     13          1           0       -0.176950    2.257529   -1.199973
     14          1           0        0.999973    3.084896   -0.172050
     15          1           0        0.460103   -2.456839   -0.150985
 ---------------------------------------------------------------------
 Rotational constants (GHZ):           1.7952909           1.1601305           0.8163028
 Standard basis: 6-31G(d,p) (6D, 7F)
 There are   175 symmetry adapted cartesian basis functions of A   symmetry.
 There are   175 symmetry adapted basis functions of A   symmetry.
   175 basis functions,   315 primitive gaussians,   175 cartesian basis functions
    39 alpha electrons       39 beta electrons
       nuclear repulsion energy       579.7729695662 Hartrees.
 NAtoms=   15 NActive=   15 NUniq=   15 SFac= 1.00D+00 NAtFMM=   60 NAOKFM=F Big=F
 Integral buffers will be    131072 words long.
 Raffenetti 1 integral format.
 Two-electron integral symmetry is turned on.
 One-electron integrals computed using PRISM.
 NBasis=   175 RedAO= T EigKep=  1.09D-03  NBF=   175
 NBsUse=   175 1.00D-06 EigRej= -1.00D+00 NBFU=   175
 ExpMin= 1.61D-01 ExpMax= 7.00D+03 ExpMxC= 1.05D+03 IAcc=3 IRadAn=         5 AccDes= 0.00D+00
 Harris functional with IExCor=  205 and IRadAn=       5 diagonalized for initial guess.
 HarFok:  IExCor=  205 AccDes= 0.00D+00 IRadAn=         5 IDoV= 1 UseB2=F ITyADJ=14
 ICtDFT=  3500011 ScaDFX=  1.000000  1.000000  1.000000  1.000000
 FoFCou: FMM=F IPFlag=           0 FMFlag=      100000 FMFlg1=           0
         NFxFlg=           0 DoJE=T BraDBF=F KetDBF=T FulRan=T
         wScrn=  0.000000 ICntrl=       500 IOpCl=  0 I1Cent=   200000004 NGrid=           0
         NMat0=    1 NMatS0=      1 NMatT0=    0 NMatD0=    1 NMtDS0=    0 NMtDT0=    0
 Petite list used in FoFCou.
 Requested convergence on RMS density matrix=1.00D-08 within 128 cycles.
 Requested convergence on MAX density matrix=1.00D-06.
 Requested convergence on             energy=1.00D-06.
 No special actions if energy rises.
 Integral accuracy reduced to 1.0D-05 until final iterations.
 Initial convergence to 1.0D-05 achieved.  Increase integral accuracy.
 SCF Done:  E(RHF) =  -640.298888764     A.U. after   15 cycles
            NFock= 15  Conv=0.37D-08     -V/T= 2.0028
 ExpMin= 1.61D-01 ExpMax= 7.00D+03 ExpMxC= 1.05D+03 IAcc=3 IRadAn=         5 AccDes= 0.00D+00
 HarFok:  IExCor=  205 AccDes= 0.00D+00 IRadAn=         5 IDoV=-2 UseB2=F ITyADJ=14
 ICtDFT= 12500011 ScaDFX=  1.000000  1.000000  1.000000  1.000000
 Range of M.O.s used for correlation:    11   175
 NBasis=   175 NAE=    39 NBE=    39 NFC=    10 NFV=     0
 NROrb=    165 NOA=    29 NOB=    29 NVA=   136 NVB=   136

 **** Warning!!: The largest alpha MO coefficient is  0.12081929D+02

 Disk-based method using ON**2 memory for 29 occupieds at a time.
 Permanent disk used for amplitudes=    34934796 words.
 Estimated scratch disk usage=   287568991 words.
 Actual    scratch disk usage=   269743199 words.
 JobTyp=1 Pass  1:  I=  11 to  39 NPSUse= 28 ParTrn=T ParDer=T DoDerP=T.
 (rs|ai) integrals will be sorted in core.
 Spin components of T(2) and E(2):
     alpha-alpha T2 =       0.5893421270D-01 E2=     -0.2078031931D+00
     alpha-beta  T2 =       0.3139720926D+00 E2=     -0.1117959711D+01
     beta-beta   T2 =       0.5893421270D-01 E2=     -0.2078031931D+00
 ANorm=    0.1196595386D+01
 E2 =    -0.1533566098D+01 EUMP2 =    -0.64183245486199D+03
 G2DrvN: will do    16 centers at a time, making    1 passes.
 Calling FoFCou, ICntrl=  3107 FMM=F I1Cent=   0 AccDes= 0.00D+00.
 End of G2Drv F.D. properties file   721 does not exist.
 End of G2Drv F.D. properties file   722 does not exist.
 End of G2Drv F.D. properties file   788 does not exist.
          IDoAtm=111111111111111
          Differentiating once with respect to electric field.
                with respect to dipole field.
          Differentiating once with respect to nuclear coordinates.
 Keep R1 ints in memory in canonical form, NReq=124623714.
          There are    48 degrees of freedom in the 1st order CPHF.  IDoFFX=6 NUNeed=    48.
     45 vectors produced by pass  0 Test12= 1.11D-14 2.08D-09 XBig12= 1.64D+01 2.48D+00.
 AX will form    45 AO Fock derivatives at one time.
     45 vectors produced by pass  1 Test12= 1.11D-14 2.08D-09 XBig12= 9.40D-01 1.66D-01.
     45 vectors produced by pass  2 Test12= 1.11D-14 2.08D-09 XBig12= 3.08D-02 3.42D-02.
     45 vectors produced by pass  3 Test12= 1.11D-14 2.08D-09 XBig12= 4.56D-04 2.62D-03.
     45 vectors produced by pass  4 Test12= 1.11D-14 2.08D-09 XBig12= 4.88D-06 2.76D-04.
     45 vectors produced by pass  5 Test12= 1.11D-14 2.08D-09 XBig12= 3.26D-08 2.35D-05.
     41 vectors produced by pass  6 Test12= 1.11D-14 2.08D-09 XBig12= 1.74D-10 1.54D-06.
     13 vectors produced by pass  7 Test12= 1.11D-14 2.08D-09 XBig12= 8.65D-13 1.15D-07.
      3 vectors produced by pass  8 Test12= 1.11D-14 2.08D-09 XBig12= 3.84D-15 6.46D-09.
 InvSVY:  IOpt=1 It=  1 EMax= 3.55D-15
 Solved reduced A of dimension   327 with    48 vectors.
 End of Minotr F.D. properties file   721 does not exist.
 End of Minotr F.D. properties file   722 does not exist.
 End of Minotr F.D. properties file   788 does not exist.
 MDV=  5502926848.
 Form MO integral derivatives with frozen-active canonical formalism.
 Discarding MO integrals.
 Reordered first order wavefunction length =     56264832
 In DefCFB: NBatch=  1 ICI= 39 ICA=136 LFMax= 68
            Large arrays: LIAPS=   649740000 LIARS=    97461000 words.
 Semi-Direct transformation.
 ModeAB=           4 MOrb=            39 LenV=    5502109806
 LASXX=     87830691 LTotXX=    87830691 LenRXX=   177387171
 LTotAB=    89556480 MaxLAS=   100095450 LenRXY=           0
 NonZer=   265217862 LenScr=   397934592 LnRSAI=   100095450
 LnScr1=   150470656 LExtra=           0 Total=    825887869
 MaxDsk=          -1 SrtSym=           T ITran=            4
 JobTyp=0 Pass  1:  I=   1 to  39.
 (rs|ai) integrals will be sorted in core.
 SymMOI:  orbitals are not symmetric.
 Spin components of T(2) and E(2):
     alpha-alpha T2 =       0.5893421270D-01 E2=     -0.2078031931D+00
     alpha-beta  T2 =       0.3139720926D+00 E2=     -0.1117959711D+01
     beta-beta   T2 =       0.5893421270D-01 E2=     -0.2078031931D+00
 ANorm=    0.1692241424D+01
 E2 =    -0.1533566098D+01 EUMP2 =    -0.64183245486199D+03
          IDoAtm=111111111111111
          Differentiating once with respect to electric field.
                with respect to dipole field.
          Differentiating once with respect to nuclear coordinates.
          There are     1 degrees of freedom in the 1st order CPHF.  IDoFFX=0 NUNeed=     1.
 LinEq1:  Iter=  0 NonCon=     1 RMS=5.13D-03 Max=1.29D-01 NDo=     1
 LinEq1:  Iter=  1 NonCon=     1 RMS=1.96D-03 Max=4.41D-02 NDo=     1
 LinEq1:  Iter=  2 NonCon=     1 RMS=6.08D-04 Max=1.88D-02 NDo=     1
 LinEq1:  Iter=  3 NonCon=     1 RMS=2.69D-04 Max=6.13D-03 NDo=     1
 LinEq1:  Iter=  4 NonCon=     1 RMS=8.63D-05 Max=2.05D-03 NDo=     1
 LinEq1:  Iter=  5 NonCon=     1 RMS=3.16D-05 Max=5.63D-04 NDo=     1
 LinEq1:  Iter=  6 NonCon=     1 RMS=1.19D-05 Max=4.98D-04 NDo=     1
 LinEq1:  Iter=  7 NonCon=     1 RMS=3.93D-06 Max=6.76D-05 NDo=     1
 LinEq1:  Iter=  8 NonCon=     1 RMS=1.34D-06 Max=3.11D-05 NDo=     1
 LinEq1:  Iter=  9 NonCon=     1 RMS=3.77D-07 Max=7.59D-06 NDo=     1
 LinEq1:  Iter= 10 NonCon=     1 RMS=1.40D-07 Max=3.80D-06 NDo=     1
 LinEq1:  Iter= 11 NonCon=     1 RMS=4.64D-08 Max=1.45D-06 NDo=     1
 LinEq1:  Iter= 12 NonCon=     1 RMS=1.81D-08 Max=4.76D-07 NDo=     1
 LinEq1:  Iter= 13 NonCon=     1 RMS=5.63D-09 Max=1.19D-07 NDo=     1
 LinEq1:  Iter= 14 NonCon=     1 RMS=1.23D-09 Max=2.44D-08 NDo=     1
 LinEq1:  Iter= 15 NonCon=     1 RMS=4.09D-10 Max=6.21D-09 NDo=     1
 LinEq1:  Iter= 16 NonCon=     1 RMS=1.18D-10 Max=1.37D-09 NDo=     1
 LinEq1:  Iter= 17 NonCon=     0 RMS=4.23D-11 Max=4.62D-10 NDo=     1
 Linear equations converged to 1.000D-10 1.000D-09 after    17 iterations.
 End of Minotr F.D. properties file   721 does not exist.
 End of Minotr F.D. properties file   722 does not exist.
 End of Minotr F.D. properties file   788 does not exist.
 Symmetrizing basis deriv contribution to polar:
 IMax=3 JMax=2 DiffMx= 0.00D+00
 G2DrvN: will do    16 centers at a time, making    1 passes.
 Calling FoFCou, ICntrl=  3107 FMM=F I1Cent=   0 AccDes= 0.00D+00.
 End of G2Drv F.D. properties file   721 does not exist.
 End of G2Drv F.D. properties file   722 does not exist.
 End of G2Drv F.D. properties file   788 does not exist.
 R2 and R3 integrals will be kept in memory, NReq=   239901200.
 DD1Dir will call FoFMem   1 times, MxPair=      1560
 NAB=   780 NAA=     0 NBB=     0.
 Discarding MO integrals.

 **********************************************************************

            Population analysis using the SCF density.

 **********************************************************************

 Orbital symmetries:
       Occupied  (A) (A) (A) (A) (A) (A) (A) (A) (A) (A) (A) (A)
                 (A) (A) (A) (A) (A) (A) (A) (A) (A) (A) (A) (A)
                 (A) (A) (A) (A) (A) (A) (A) (A) (A) (A) (A) (A)
                 (A) (A) (A)
       Virtual   (A) (A) (A) (A) (A) (A) (A) (A) (A) (A) (A) (A)
                 (A) (A) (A) (A) (A) (A) (A) (A) (A) (A) (A) (A)
                 (A) (A) (A) (A) (A) (A) (A) (A) (A) (A) (A) (A)
                 (A) (A) (A) (A) (A) (A) (A) (A) (A) (A) (A) (A)
                 (A) (A) (A) (A) (A) (A) (A) (A) (A) (A) (A) (A)
                 (A) (A) (A) (A) (A) (A) (A) (A) (A) (A) (A) (A)
                 (A) (A) (A) (A) (A) (A) (A) (A) (A) (A) (A) (A)
                 (A) (A) (A) (A) (A) (A) (A) (A) (A) (A) (A) (A)
                 (A) (A) (A) (A) (A) (A) (A) (A) (A) (A) (A) (A)
                 (A) (A) (A) (A) (A) (A) (A) (A) (A) (A) (A) (A)
                 (A) (A) (A) (A) (A) (A) (A) (A) (A) (A) (A) (A)
                 (A) (A) (A) (A)
 The electronic state is 1-A.
 Alpha  occ. eigenvalues --  -26.35091 -26.34866 -26.34712 -20.62196 -20.57966
 Alpha  occ. eigenvalues --  -11.52911 -11.37219 -11.36906 -11.26975 -11.24800
 Alpha  occ. eigenvalues --   -1.72662  -1.63357  -1.63265  -1.42883  -1.39769
 Alpha  occ. eigenvalues --   -1.13129  -1.02659  -0.97261  -0.89152  -0.83274
 Alpha  occ. eigenvalues --   -0.82040  -0.81987  -0.78667  -0.71295  -0.71098
 Alpha  occ. eigenvalues --   -0.68853  -0.66760  -0.66382  -0.65733  -0.65053
 Alpha  occ. eigenvalues --   -0.63596  -0.62685  -0.61866  -0.59135  -0.56981
 Alpha  occ. eigenvalues --   -0.55385  -0.52348  -0.44279  -0.39604
 Alpha virt. eigenvalues --    0.08402   0.19738   0.25297   0.25640   0.27543
 Alpha virt. eigenvalues --    0.28289   0.32529   0.33014   0.38548   0.42135
 Alpha virt. eigenvalues --    0.42327   0.43932   0.47917   0.52513   0.55434
 Alpha virt. eigenvalues --    0.57825   0.68333   0.68650   0.71041   0.73450
 Alpha virt. eigenvalues --    0.74673   0.78375   0.78930   0.80478   0.83993
 Alpha virt. eigenvalues --    0.84977   0.90574   0.94102   0.97335   0.97683
 Alpha virt. eigenvalues --    0.99053   1.04223   1.08283   1.09575   1.11895
 Alpha virt. eigenvalues --    1.14814   1.17652   1.20101   1.20540   1.21961
 Alpha virt. eigenvalues --    1.27534   1.29076   1.31573   1.35368   1.36267
 Alpha virt. eigenvalues --    1.37334   1.42114   1.45082   1.45780   1.53080
 Alpha virt. eigenvalues --    1.55187   1.61155   1.62218   1.62784   1.63815
 Alpha virt. eigenvalues --    1.65595   1.66996   1.67862   1.71365   1.73728
 Alpha virt. eigenvalues --    1.77541   1.80427   1.83416   1.88045   1.90440
 Alpha virt. eigenvalues --    1.92039   1.96104   1.98698   2.00339   2.02880
 Alpha virt. eigenvalues --    2.05283   2.08089   2.09575   2.10354   2.11973
 Alpha virt. eigenvalues --    2.13292   2.15025   2.20087   2.24227   2.24441
 Alpha virt. eigenvalues --    2.28886   2.30477   2.31545   2.32331   2.34761
 Alpha virt. eigenvalues --    2.36098   2.36939   2.37530   2.41679   2.42999
 Alpha virt. eigenvalues --    2.44571   2.48429   2.52995   2.57079   2.60017
 Alpha virt. eigenvalues --    2.66391   2.70462   2.71009   2.72044   2.74141
 Alpha virt. eigenvalues --    2.78525   2.85689   2.86070   2.90057   2.90861
 Alpha virt. eigenvalues --    2.95728   2.98473   3.01593   3.07562   3.08533
 Alpha virt. eigenvalues --    3.12763   3.18350   3.21427   3.22474   3.27798
 Alpha virt. eigenvalues --    3.35269   3.38566   3.38823   3.44225   3.49514
 Alpha virt. eigenvalues --    3.54403   3.57935   3.77476   3.79338   3.82634
 Alpha virt. eigenvalues --    3.93362   4.39211   4.43102   4.53404   4.71899
 Alpha virt. eigenvalues --    4.73134   4.75784   4.91644   5.09883   5.34616
 Alpha virt. eigenvalues --    6.00290
          Condensed to atoms (all electrons):
               1          2          3          4          5          6
     1  C    4.468670   0.535075   0.307295  -0.036260  -0.000861  -0.021689
     2  C    0.535075   5.558381  -0.042810   0.330823  -0.076919   0.401702
     3  O    0.307295  -0.042810   8.133238  -0.003454  -0.026841   0.001205
     4  C   -0.036260   0.330823  -0.003454   4.366240   0.514539  -0.010334
     5  O   -0.000861  -0.076919  -0.026841   0.514539   8.236116   0.001313
     6  C   -0.021689   0.401702   0.001205  -0.010334   0.001313   3.601223
     7  H   -0.025542  -0.005083   0.300138  -0.003630   0.038749   0.000107
     8  C    0.002531  -0.100298  -0.000117   0.362708  -0.062706  -0.002610
     9  F    0.003619  -0.040970   0.000036   0.001196  -0.000003   0.289192
    10  F    0.000677  -0.040260  -0.000002  -0.003548   0.000004   0.257024
    11  F    0.000459  -0.049822  -0.000002   0.003023   0.000018   0.271309
    12  H   -0.000065  -0.000224   0.000001  -0.031027   0.001376   0.000580
    13  H   -0.000100   0.003337   0.000009  -0.034994   0.001302  -0.002434
    14  H   -0.000081   0.004646   0.000002  -0.035431   0.002179   0.000143
    15  H    0.416233  -0.054895  -0.031434   0.000960  -0.000047   0.002112
               7          8          9         10         11         12
     1  C   -0.025542   0.002531   0.003619   0.000677   0.000459  -0.000065
     2  C   -0.005083  -0.100298  -0.040970  -0.040260  -0.049822  -0.000224
     3  O    0.300138  -0.000117   0.000036  -0.000002  -0.000002   0.000001
     4  C   -0.003630   0.362708   0.001196  -0.003548   0.003023  -0.031027
     5  O    0.038749  -0.062706  -0.000003   0.000004   0.000018   0.001376
     6  C    0.000107  -0.002610   0.289192   0.257024   0.271309   0.000580
     7  H    0.265436   0.000663  -0.000000   0.000000   0.000000  -0.000017
     8  C    0.000663   5.064463  -0.000022   0.002480  -0.003984   0.388354
     9  F   -0.000000  -0.000022   9.194019  -0.031530  -0.031878   0.000024
    10  F    0.000000   0.002480  -0.031530   9.230688  -0.031987  -0.000875
    11  F    0.000000  -0.003984  -0.031878  -0.031987   9.220478   0.004699
    12  H   -0.000017   0.388354   0.000024  -0.000875   0.004699   0.508099
    13  H   -0.000039   0.391821   0.000013   0.002354   0.000050  -0.019308
    14  H    0.000007   0.391674   0.000000   0.000166   0.000066  -0.020705
    15  H    0.002966  -0.000063   0.004074   0.000080   0.000057   0.000000
              13         14         15
     1  C   -0.000100  -0.000081   0.416233
     2  C    0.003337   0.004646  -0.054895
     3  O    0.000009   0.000002  -0.031434
     4  C   -0.034994  -0.035431   0.000960
     5  O    0.001302   0.002179  -0.000047
     6  C   -0.002434   0.000143   0.002112
     7  H   -0.000039   0.000007   0.002966
     8  C    0.391821   0.391674  -0.000063
     9  F    0.000013   0.000000   0.004074
    10  F    0.002354   0.000166   0.000080
    11  F    0.000050   0.000066   0.000057
    12  H   -0.019308  -0.020705   0.000000
    13  H    0.510281  -0.021158  -0.000000
    14  H   -0.021158   0.512826   0.000001
    15  H   -0.000000   0.000001   0.451622
 Mulliken charges:
               1
     1  C    0.350039
     2  C   -0.422683
     3  O   -0.637264
     4  C    0.579190
     5  O   -0.628218
     6  C    1.211157
     7  H    0.426244
     8  C   -0.434894
     9  F   -0.387771
    10  F   -0.385271
    11  F   -0.382487
    12  H    0.169087
    13  H    0.168868
    14  H    0.165666
    15  H    0.208336
 Sum of Mulliken charges =  -0.00000
 Mulliken charges with hydrogens summed into heavy atoms:
               1
     1  C    0.558375
     2  C   -0.422683
     3  O   -0.211020
     4  C    0.579190
     5  O   -0.628218
     6  C    1.211157
     8  C    0.068727
     9  F   -0.387771
    10  F   -0.385271
    11  F   -0.382487
 APT charges:
               1
     1  C    0.626053
     2  C   -0.646413
     3  O   -0.688226
     4  C    0.803033
     5  O   -0.588553
     6  C    1.665895
     7  H    0.380707
     8  C   -0.116750
     9  F   -0.514156
    10  F   -0.555338
    11  F   -0.547810
    12  H    0.049658
    13  H    0.044351
    14  H    0.017751
    15  H    0.069799
 Sum of APT charges =  -0.00000
 APT charges with hydrogens summed into heavy atoms:
               1
     1  C    0.695851
     2  C   -0.646413
     3  O   -0.307518
     4  C    0.803033
     5  O   -0.588553
     6  C    1.665895
     8  C   -0.004991
     9  F   -0.514156
    10  F   -0.555338
    11  F   -0.547810
 Electronic spatial extent (au):  <R**2>=           1365.2218
 Charge=              0.0000 electrons
 Dipole moment (field-independent basis, Debye):
    X=             -0.5949    Y=              0.3581    Z=             -0.5472  Tot=              0.8840
 Quadrupole moment (field-independent basis, Debye-Ang):
   XX=            -65.4393   YY=            -51.8902   ZZ=            -56.1191
   XY=             -0.5313   XZ=             -0.8387   YZ=             -0.7642
 Traceless Quadrupole moment (field-independent basis, Debye-Ang):
   XX=             -7.6231   YY=              5.9260   ZZ=              1.6971
   XY=             -0.5313   XZ=             -0.8387   YZ=             -0.7642
 Octapole moment (field-independent basis, Debye-Ang**2):
  XXX=            -29.9183  YYY=             -1.4394  ZZZ=              0.7497  XYY=            -14.9625
  XXY=             -1.0108  XXZ=             -0.7385  XZZ=             -5.7724  YZZ=             -1.6144
  YYZ=             -0.7948  XYZ=             -2.5626
 Hexadecapole moment (field-independent basis, Debye-Ang**3):
 XXXX=           -802.0189 YYYY=           -562.8340 ZZZZ=           -123.5940 XXXY=             -2.0775
 XXXZ=             -3.3129 YYYX=             17.8360 YYYZ=              0.9322 ZZZX=              0.5620
 ZZZY=             -0.5739 XXYY=           -270.6272 XXZZ=           -156.4629 YYZZ=           -119.0766
 XXYZ=             -5.0872 YYXZ=             -0.8844 ZZXY=              1.7599
 N-N= 5.797729695662D+02 E-N=-2.674961102510D+03  KE= 6.385134119901D+02
  Exact polarizability:  65.139  -5.455  70.829   1.118   0.959  36.155
 Approx polarizability:  56.213  -3.766  55.633   1.256   1.193  37.256
 Calling FoFJK, ICntrl=  10100127 FMM=F ISym2X=0 I1Cent= 0 IOpClX= 0 NMat=1 NMatS=1 NMatT=0.
 ***** Axes restored to original set *****
 -------------------------------------------------------------------
 Center     Atomic                   Forces (Hartrees/Bohr)
 Number     Number              X              Y              Z
 -------------------------------------------------------------------
      1        6           0.026705795    0.032388164   -0.007634095
      2        6           0.010317342   -0.025746582   -0.001309556
      3        8          -0.026714429   -0.011229547    0.003423042
      4        6          -0.009598967    0.001178569    0.003815276
      5        8           0.012481989    0.002243997   -0.000727442
      6        6          -0.010810546    0.010863400    0.002115694
      7        1          -0.008258735   -0.003570291    0.000578529
      8        6           0.008831804   -0.007633148   -0.000817081
      9        9           0.004667879    0.000658755   -0.000355068
     10        9          -0.000244677   -0.001414232   -0.000399734
     11        9           0.001571708   -0.000698274    0.000525012
     12        1          -0.001863640    0.002291972    0.005874417
     13        1          -0.003832798   -0.000283617   -0.005322822
     14        1          -0.002730756    0.005616994   -0.001622296
     15        1          -0.000521969   -0.004666159    0.001856125
 -------------------------------------------------------------------
 Cartesian Forces:  Max     0.032388164 RMS     0.009833392
 FormGI is forming the generalized inverse of G from B-inverse, IUseBI=4.

 GradGradGradGradGradGradGradGradGradGradGradGradGradGradGradGradGradGrad
 Berny optimization.
 Internal  Forces:  Max     0.038156116 RMS     0.007205078
 Search for a local minimum.
 Step number   1 out of a maximum of   68
 All quantities printed in internal units (Hartrees-Bohrs-Radians)
 Mixed Optimization -- RFO/linear search
 Second derivative matrix not updated -- analytic derivatives used.
 ITU=  0
     Eigenvalues ---    0.00071   0.00494   0.00707   0.01587   0.02225
     Eigenvalues ---    0.03708   0.03958   0.05804   0.06039   0.06847
     Eigenvalues ---    0.12795   0.12880   0.13274   0.13319   0.13963
     Eigenvalues ---    0.14123   0.18239   0.19281   0.20981   0.21806
     Eigenvalues ---    0.23854   0.24922   0.27325   0.27742   0.30749
     Eigenvalues ---    0.34766   0.35571   0.35956   0.36368   0.37622
     Eigenvalues ---    0.37850   0.38297   0.41884   0.47997   0.49936
     Eigenvalues ---    0.52519   0.58179   0.79195   0.84933
 RFO step:  Lambda=-1.20979301D-02 EMin= 7.05611887D-04
 Linear search not attempted -- first point.
 Iteration  1 RMS(Cart)=  0.10790348 RMS(Int)=  0.00470950
 Iteration  2 RMS(Cart)=  0.00684023 RMS(Int)=  0.00014115
 Iteration  3 RMS(Cart)=  0.00002235 RMS(Int)=  0.00014061
 Iteration  4 RMS(Cart)=  0.00000000 RMS(Int)=  0.00014061
 Variable       Old X    -DE/DX   Delta X   Delta X   Delta X     New X
                                 (Linear)    (Quad)   (Total)
    R1        2.54078   0.01101   0.00000   0.03922   0.03922   2.58000
    R2        2.59174  -0.03816   0.00000  -0.10942  -0.10942   2.48232
    R3        2.05165  -0.00290   0.00000  -0.00678  -0.00678   2.04486
    R4        2.81366   0.00015   0.00000  -0.04690  -0.04690   2.76677
    R5        2.80386   0.00124   0.00000   0.00462   0.00462   2.80848
    R6        1.86218  -0.00303   0.00000   0.01968   0.01968   1.88187
    R7        2.33358   0.01217   0.00000   0.02776   0.02776   2.36134
    R8        2.84912  -0.00061   0.00000  -0.00664  -0.00664   2.84248
    R9        2.56737  -0.00280   0.00000  -0.00829  -0.00829   2.55908
   R10        2.56457   0.00036   0.00000   0.00370   0.00370   2.56827
   R11        2.56448  -0.00029   0.00000   0.00219   0.00219   2.56666
   R12        2.06358  -0.00329   0.00000  -0.00685  -0.00685   2.05674
   R13        2.06464  -0.00392   0.00000  -0.00896  -0.00896   2.05568
   R14        2.06867  -0.00508   0.00000  -0.01716  -0.01716   2.05150
    A1        2.20724  -0.00581   0.00000  -0.03658  -0.03658   2.17066
    A2        2.15876  -0.00104   0.00000  -0.03352  -0.03353   2.12524
    A3        1.91717   0.00685   0.00000   0.07012   0.07012   1.98728
    A4        2.08616   0.00354   0.00000   0.00819   0.00816   2.09432
    A5        2.15035  -0.01984   0.00000  -0.07917  -0.07920   2.07116
    A6        2.04649   0.01631   0.00000   0.07122   0.07119   2.11768
    A7        1.89734  -0.01577   0.00000  -0.06954  -0.06954   1.82780
    A8        2.08624   0.00168   0.00000   0.00597   0.00596   2.09220
    A9        2.09326   0.00179   0.00000   0.00706   0.00705   2.10031
   A10        2.10302  -0.00348   0.00000  -0.01274  -0.01275   2.09027
   A11        1.97045  -0.00633   0.00000  -0.01841  -0.01838   1.95207
   A12        1.95492   0.00254   0.00000   0.00860   0.00863   1.96355
   A13        1.95338  -0.00124   0.00000   0.00271   0.00271   1.95609
   A14        1.85575   0.00256   0.00000   0.00938   0.00942   1.86517
   A15        1.85686   0.00374   0.00000   0.00935   0.00935   1.86621
   A16        1.86513  -0.00081   0.00000  -0.01107  -0.01107   1.85406
   A17        1.93044   0.00142   0.00000  -0.00458  -0.00480   1.92564
   A18        1.92428   0.00077   0.00000  -0.00251  -0.00273   1.92155
   A19        1.90401  -0.00465   0.00000  -0.01017  -0.01018   1.89382
   A20        1.93704  -0.00443   0.00000  -0.05252  -0.05294   1.88410
   A21        1.88392   0.00321   0.00000   0.03452   0.03452   1.91844
   A22        1.88280   0.00374   0.00000   0.03768   0.03766   1.92046
    D1        0.00850   0.00191   0.00000   0.02423   0.02399   0.03249
    D2       -3.11208   0.00160   0.00000   0.00947   0.00976  -3.10232
    D3       -3.13885   0.00171   0.00000   0.02802   0.02773  -3.11112
    D4        0.02376   0.00140   0.00000   0.01326   0.01350   0.03725
    D5        0.08825   0.00044   0.00000  -0.03934  -0.03928   0.04897
    D6       -3.04826   0.00064   0.00000  -0.04244  -0.04250  -3.09075
    D7       -0.22146   0.00233   0.00000   0.13663   0.13627  -0.08519
    D8        2.88138   0.00202   0.00000   0.14488   0.14458   3.02596
    D9        2.90035   0.00220   0.00000   0.14877   0.14908   3.04943
   D10       -0.27998   0.00189   0.00000   0.15702   0.15739  -0.12260
   D11        0.04741   0.00049   0.00000  -0.01132  -0.01138   0.03603
   D12       -2.04684  -0.00017   0.00000  -0.01662  -0.01665  -2.06349
   D13        2.14200  -0.00004   0.00000  -0.01029  -0.01034   2.13166
   D14       -3.07361   0.00031   0.00000  -0.02511  -0.02507  -3.09869
   D15        1.11531  -0.00034   0.00000  -0.03040  -0.03034   1.08498
   D16       -0.97903  -0.00021   0.00000  -0.02408  -0.02403  -1.00306
   D17        1.12871  -0.00224   0.00000  -0.05219  -0.05201   1.07671
   D18       -1.02030   0.00188   0.00000   0.01936   0.01921  -1.00109
   D19       -3.08487  -0.00032   0.00000  -0.01893  -0.01891  -3.10378
   D20       -2.05200  -0.00244   0.00000  -0.04344  -0.04329  -2.09529
   D21        2.08217   0.00168   0.00000   0.02812   0.02793   2.11010
   D22        0.01760  -0.00052   0.00000  -0.01017  -0.01019   0.00741
         Item               Value     Threshold  Converged?
 Maximum Force            0.038156     0.000450     NO 
 RMS     Force            0.007205     0.000300     NO 
 Maximum Displacement     0.368261     0.001800     NO 
 RMS     Displacement     0.109438     0.001200     NO 
 Predicted change in Energy=-6.943550D-03
 GradGradGradGradGradGradGradGradGradGradGradGradGradGradGradGradGradGrad

                          Input orientation:                          
 ---------------------------------------------------------------------
 Center     Atomic      Atomic             Coordinates (Angstroms)
 Number     Number       Type             X           Y           Z
 ---------------------------------------------------------------------
      1          6           0       -1.771904    1.404697   -0.298621
      2          6           0       -2.000096    0.069044   -0.131460
      3          8           0       -0.588581    1.933943   -0.511122
      4          6           0       -0.878732   -0.872240   -0.143482
      5          8           0        0.274397   -0.463376   -0.397541
      6          6           0       -3.399117   -0.397827    0.051612
      7          1           0        0.031116    1.156091   -0.562297
      8          6           0       -1.100788   -2.322794    0.186855
      9          9           0       -4.284963    0.623820   -0.021814
     10          9           0       -3.592779   -1.002052    1.253474
     11          9           0       -3.762251   -1.304663   -0.892074
     12          1           0       -1.783172   -2.773953   -0.531041
     13          1           0       -1.543955   -2.417333    1.175803
     14          1           0       -0.143130   -2.833296    0.158107
     15          1           0       -2.575816    2.128336   -0.266934
 ---------------------------------------------------------------------
                    Distance matrix (angstroms):
                    1          2          3          4          5
     1  C    0.000000
     2  C    1.365278   0.000000
     3  O    1.313587   2.369465   0.000000
     4  C    2.450769   1.464109   2.844997   0.000000
     5  O    2.772514   2.351083   2.550445   1.249570   0.000000
     6  C    2.453483   1.486185   3.694988   2.572055   3.701452
     7  H    1.839079   2.343739   0.995840   2.262157   1.645904
     8  C    3.818413   2.575067   4.343885   1.504174   2.385391
     9  F    2.646102   2.353809   3.952099   3.722285   4.702227
    10  F    3.393675   2.366839   4.556213   3.055223   4.239231
    11  F    3.413840   2.360253   4.550371   3.010325   4.152934
    12  H    4.185124   2.879123   4.857132   2.141197   3.096802
    13  H    4.102902   2.845887   4.763619   2.137837   3.098350
    14  H    4.563123   3.457708   4.834549   2.116083   2.469736
    15  H    1.082096   2.142543   2.011597   3.449462   3.854574
                    6          7          8          9         10
     6  C    0.000000
     7  H    3.815500   0.000000
     8  C    3.001018   3.734310   0.000000
     9  F    1.354207   4.382234   4.343392   0.000000
    10  F    1.359068   4.592082   3.015304   2.179206   0.000000
    11  F    1.358220   4.533618   3.046976   2.179364   2.173400
    12  H    2.932020   4.328725   1.088378   4.250075   3.098194
    13  H    2.963754   4.274482   1.087820   4.265680   2.491332
    14  H    4.067469   4.057653   1.085609   5.398037   4.056274
    15  H    2.675966   2.797963   4.711071   2.290160   3.625628
                   11         12         13         14         15
    11  F    0.000000
    12  H    2.491166   0.000000
    13  H    3.230322   1.760033   0.000000
    14  H    4.066648   1.779939   1.780742   0.000000
    15  H    3.685636   4.972974   4.879481   5.542239   0.000000
 Stoichiometry    C5H5F3O2
 Framework group  C1[X(C5H5F3O2)]
 Deg. of freedom    39
 Full point group                 C1      NOp   1
 Largest Abelian subgroup         C1      NOp   1
 Largest concise Abelian subgroup C1      NOp   1
                         Standard orientation:                         
 ---------------------------------------------------------------------
 Center     Atomic      Atomic             Coordinates (Angstroms)
 Number     Number       Type             X           Y           Z
 ---------------------------------------------------------------------
      1          6           0        0.812709   -1.525417   -0.055963
      2          6           0        0.240132   -0.286791   -0.011862
      3          8           0        2.107737   -1.744768   -0.038685
      4          6           0        1.084216    0.909117    0.018840
      5          8           0        2.325904    0.792712    0.096841
      6          6           0       -1.242504   -0.187151    0.012751
      7          1           0        2.516160   -0.841698    0.058027
      8          6           0        0.467390    2.277257   -0.082436
      9          9           0       -1.829317   -1.407470    0.031480
     10          9           0       -1.737559    0.471909   -1.067816
     11          9           0       -1.690949    0.484072    1.105050
     12          1           0       -0.204255    2.452258    0.755916
     13          1           0       -0.112397    2.358938   -0.999239
     14          1           0        1.263497    3.015327   -0.078853
     15          1           0        0.216639   -2.427069   -0.107498
 ---------------------------------------------------------------------
 Rotational constants (GHZ):           1.8007686           1.1723710           0.8175602
 Standard basis: 6-31G(d,p) (6D, 7F)
 There are   175 symmetry adapted cartesian basis functions of A   symmetry.
 There are   175 symmetry adapted basis functions of A   symmetry.
   175 basis functions,   315 primitive gaussians,   175 cartesian basis functions
    39 alpha electrons       39 beta electrons
       nuclear repulsion energy       581.5828601429 Hartrees.
 NAtoms=   15 NActive=   15 NUniq=   15 SFac= 1.00D+00 NAtFMM=   60 NAOKFM=F Big=F
 Integral buffers will be    131072 words long.
 Raffenetti 1 integral format.
 Two-electron integral symmetry is turned on.
 One-electron integrals computed using PRISM.
 NBasis=   175 RedAO= T EigKep=  1.06D-03  NBF=   175
 NBsUse=   175 1.00D-06 EigRej= -1.00D+00 NBFU=   175
 Initial guess from the checkpoint file:  "5.chk"
 B after Tr=     0.000000    0.000000   -0.000000
         Rot=    0.999512   -0.000398    0.000036    0.031221 Ang=  -3.58 deg.
 ExpMin= 1.61D-01 ExpMax= 7.00D+03 ExpMxC= 1.05D+03 IAcc=2 IRadAn=         4 AccDes= 0.00D+00
 Harris functional with IExCor=  205 and IRadAn=       4 diagonalized for initial guess.
 HarFok:  IExCor=  205 AccDes= 0.00D+00 IRadAn=         4 IDoV= 1 UseB2=F ITyADJ=14
 ICtDFT=  3500011 ScaDFX=  1.000000  1.000000  1.000000  1.000000
 FoFCou: FMM=F IPFlag=           0 FMFlag=      100000 FMFlg1=           0
         NFxFlg=           0 DoJE=T BraDBF=F KetDBF=T FulRan=T
         wScrn=  0.000000 ICntrl=       500 IOpCl=  0 I1Cent=   200000004 NGrid=           0
         NMat0=    1 NMatS0=      1 NMatT0=    0 NMatD0=    1 NMtDS0=    0 NMtDT0=    0
 Petite list used in FoFCou.
 Requested convergence on RMS density matrix=1.00D-08 within 128 cycles.
 Requested convergence on MAX density matrix=1.00D-06.
 Requested convergence on             energy=1.00D-06.
 No special actions if energy rises.
 Integral accuracy reduced to 1.0D-05 until final iterations.
 Initial convergence to 1.0D-05 achieved.  Increase integral accuracy.
 SCF Done:  E(RHF) =  -640.304844476     A.U. after   15 cycles
            NFock= 15  Conv=0.64D-08     -V/T= 2.0026
 ExpMin= 1.61D-01 ExpMax= 7.00D+03 ExpMxC= 1.05D+03 IAcc=3 IRadAn=         5 AccDes= 0.00D+00
 HarFok:  IExCor=  205 AccDes= 0.00D+00 IRadAn=         5 IDoV=-2 UseB2=F ITyADJ=14
 ICtDFT= 12500011 ScaDFX=  1.000000  1.000000  1.000000  1.000000
 Range of M.O.s used for correlation:    11   175
 NBasis=   175 NAE=    39 NBE=    39 NFC=    10 NFV=     0
 NROrb=    165 NOA=    29 NOB=    29 NVA=   136 NVB=   136

 **** Warning!!: The largest alpha MO coefficient is  0.12423216D+02

 Fully direct method using O(ONN) memory.
 JobTyp=1 Pass  1:  I=  11 to  39 NPSUse= 28 ParTrn=T ParDer=T DoDerP=T.
 Spin components of T(2) and E(2):
     alpha-alpha T2 =       0.5906520791D-01 E2=     -0.2084350277D+00
     alpha-beta  T2 =       0.3123421360D+00 E2=     -0.1116892589D+01
     beta-beta   T2 =       0.5906520791D-01 E2=     -0.2084350277D+00
 ANorm=    0.1196023642D+01
 E2 =    -0.1533762644D+01 EUMP2 =    -0.64183860712045D+03
          IDoAtm=111111111111111
          Differentiating once with respect to electric field.
                with respect to dipole field.
          Differentiating once with respect to nuclear coordinates.
 Keep R1 ints in memory in canonical form, NReq=124633084.
          There are     1 degrees of freedom in the 1st order CPHF.  IDoFFX=0 NUNeed=     1.
 LinEq1:  Iter=  0 NonCon=     1 RMS=5.22D-03 Max=1.41D-01 NDo=     1
 AX will form     1 AO Fock derivatives at one time.
 LinEq1:  Iter=  1 NonCon=     1 RMS=1.99D-03 Max=5.03D-02 NDo=     1
 LinEq1:  Iter=  2 NonCon=     1 RMS=6.27D-04 Max=1.93D-02 NDo=     1
 LinEq1:  Iter=  3 NonCon=     1 RMS=2.73D-04 Max=6.58D-03 NDo=     1
 LinEq1:  Iter=  4 NonCon=     1 RMS=8.89D-05 Max=2.17D-03 NDo=     1
 LinEq1:  Iter=  5 NonCon=     1 RMS=3.34D-05 Max=6.94D-04 NDo=     1
 LinEq1:  Iter=  6 NonCon=     1 RMS=1.27D-05 Max=5.16D-04 NDo=     1
 LinEq1:  Iter=  7 NonCon=     1 RMS=4.10D-06 Max=6.66D-05 NDo=     1
 LinEq1:  Iter=  8 NonCon=     1 RMS=1.43D-06 Max=3.59D-05 NDo=     1
 LinEq1:  Iter=  9 NonCon=     1 RMS=3.90D-07 Max=6.02D-06 NDo=     1
 LinEq1:  Iter= 10 NonCon=     1 RMS=1.32D-07 Max=1.81D-06 NDo=     1
 LinEq1:  Iter= 11 NonCon=     1 RMS=3.75D-08 Max=7.08D-07 NDo=     1
 LinEq1:  Iter= 12 NonCon=     1 RMS=1.33D-08 Max=3.47D-07 NDo=     1
 LinEq1:  Iter= 13 NonCon=     1 RMS=3.34D-09 Max=5.13D-08 NDo=     1
 LinEq1:  Iter= 14 NonCon=     1 RMS=7.34D-10 Max=1.84D-08 NDo=     1
 LinEq1:  Iter= 15 NonCon=     1 RMS=2.68D-10 Max=8.84D-09 NDo=     1
 LinEq1:  Iter= 16 NonCon=     1 RMS=8.29D-11 Max=2.69D-09 NDo=     1
 LinEq1:  Iter= 17 NonCon=     0 RMS=2.89D-11 Max=6.05D-10 NDo=     1
 Linear equations converged to 1.000D-10 1.000D-09 after    17 iterations.
 End of Minotr F.D. properties file   721 does not exist.
 End of Minotr F.D. properties file   722 does not exist.
 End of Minotr F.D. properties file   788 does not exist.
 Symmetrizing basis deriv contribution to polar:
 IMax=3 JMax=2 DiffMx= 0.00D+00
 Calling FoFJK, ICntrl=  10002127 FMM=F ISym2X=0 I1Cent= 0 IOpClX= 0 NMat=1 NMatS=1 NMatT=0.
 ***** Axes restored to original set *****
 -------------------------------------------------------------------
 Center     Atomic                   Forces (Hartrees/Bohr)
 Number     Number              X              Y              Z
 -------------------------------------------------------------------
      1        6          -0.005791583   -0.000306040   -0.000461270
      2        6          -0.001451028   -0.002829267   -0.000693605
      3        8           0.004805378    0.003581480   -0.002039790
      4        6          -0.000925221   -0.000559825    0.001503577
      5        8           0.000241123    0.001851880   -0.000205870
      6        6          -0.000188026    0.000400280    0.001369257
      7        1           0.003969318   -0.001102299    0.001141174
      8        6           0.001091663   -0.000714823   -0.001169766
      9        9          -0.000680381   -0.000445425    0.000290136
     10        9          -0.000105246   -0.000058885   -0.000181138
     11        9           0.000075729   -0.000056024   -0.000102377
     12        1          -0.000674816    0.000199750    0.000555092
     13        1          -0.000702912   -0.000031921   -0.000147488
     14        1           0.000169423    0.000239565   -0.000233546
     15        1           0.000166579   -0.000168446    0.000375612
 -------------------------------------------------------------------
 Cartesian Forces:  Max     0.005791583 RMS     0.001614961

 GradGradGradGradGradGradGradGradGradGradGradGradGradGradGradGradGradGrad
 Berny optimization.
 Using GEDIIS/GDIIS optimizer.
 FormGI is forming the generalized inverse of G from B-inverse, IUseBI=4.
 Internal  Forces:  Max     0.009048774 RMS     0.001692120
 Search for a local minimum.
 Step number   2 out of a maximum of   68
 All quantities printed in internal units (Hartrees-Bohrs-Radians)
 Mixed Optimization -- RFO/linear search
 Update second derivatives using D2CorX and points    1    2
 DE= -6.15D-03 DEPred=-6.94D-03 R= 8.86D-01
 TightC=F SS=  1.41D+00  RLast= 3.85D-01 DXNew= 5.0454D-01 1.1537D+00
 Trust test= 8.86D-01 RLast= 3.85D-01 DXMaxT set to 5.05D-01
 ITU=  1  0
 Use linear search instead of GDIIS.
     Eigenvalues ---    0.00071   0.00517   0.00723   0.01588   0.02231
     Eigenvalues ---    0.03712   0.03959   0.05750   0.06039   0.07138
     Eigenvalues ---    0.12765   0.12905   0.13277   0.13366   0.13964
     Eigenvalues ---    0.14120   0.18310   0.19550   0.20943   0.21844
     Eigenvalues ---    0.23871   0.24921   0.27316   0.27788   0.30670
     Eigenvalues ---    0.34857   0.35545   0.35957   0.36612   0.37619
     Eigenvalues ---    0.37861   0.38287   0.41996   0.48168   0.51826
     Eigenvalues ---    0.52900   0.59838   0.79034   0.85176
 RFO step:  Lambda=-1.10667929D-03 EMin= 7.05752479D-04
 Quartic linear search produced a step of -0.04566.
 Iteration  1 RMS(Cart)=  0.08207395 RMS(Int)=  0.00320123
 Iteration  2 RMS(Cart)=  0.00494358 RMS(Int)=  0.00003432
 Iteration  3 RMS(Cart)=  0.00001224 RMS(Int)=  0.00003381
 Iteration  4 RMS(Cart)=  0.00000000 RMS(Int)=  0.00003381
 Variable       Old X    -DE/DX   Delta X   Delta X   Delta X     New X
                                 (Linear)    (Quad)   (Total)
    R1        2.58000   0.00261  -0.00179   0.00719   0.00540   2.58540
    R2        2.48232   0.00905   0.00500   0.01066   0.01566   2.49798
    R3        2.04486  -0.00023   0.00031  -0.00098  -0.00067   2.04420
    R4        2.76677  -0.00125   0.00214  -0.00386  -0.00172   2.76505
    R5        2.80848   0.00107  -0.00021   0.00320   0.00299   2.81147
    R6        1.88187   0.00327  -0.00090   0.00874   0.00784   1.88971
    R7        2.36134   0.00087  -0.00127   0.00404   0.00277   2.36412
    R8        2.84248   0.00010   0.00030  -0.00059  -0.00028   2.84219
    R9        2.55908   0.00009   0.00038  -0.00059  -0.00021   2.55887
   R10        2.56827  -0.00012  -0.00017  -0.00058  -0.00075   2.56752
   R11        2.56666   0.00009  -0.00010   0.00077   0.00067   2.56733
   R12        2.05674  -0.00003   0.00031  -0.00073  -0.00042   2.05632
   R13        2.05568   0.00016   0.00041   0.00013   0.00054   2.05622
   R14        2.05150   0.00004   0.00078  -0.00122  -0.00043   2.05107
    A1        2.17066   0.00055   0.00167   0.00452   0.00619   2.17685
    A2        2.12524  -0.00035   0.00153  -0.00207  -0.00054   2.12470
    A3        1.98728  -0.00019  -0.00320  -0.00245  -0.00565   1.98163
    A4        2.09432  -0.00353  -0.00037  -0.00577  -0.00616   2.08816
    A5        2.07116   0.00280   0.00362  -0.00365  -0.00006   2.07110
    A6        2.11768   0.00073  -0.00325   0.00950   0.00623   2.12391
    A7        1.82780   0.00412   0.00318   0.00420   0.00738   1.83517
    A8        2.09220  -0.00263  -0.00027  -0.00431  -0.00472   2.08748
    A9        2.10031   0.00134  -0.00032   0.01047   0.01001   2.11032
   A10        2.09027   0.00130   0.00058  -0.00532  -0.00488   2.08539
   A11        1.95207   0.00157   0.00084   0.00364   0.00448   1.95655
   A12        1.96355  -0.00001  -0.00039  -0.00587  -0.00626   1.95729
   A13        1.95609  -0.00053  -0.00012   0.00441   0.00429   1.96038
   A14        1.86517  -0.00067  -0.00043  -0.00037  -0.00079   1.86438
   A15        1.86621  -0.00039  -0.00043  -0.00251  -0.00295   1.86326
   A16        1.85406  -0.00007   0.00051   0.00047   0.00098   1.85505
   A17        1.92564  -0.00001   0.00022  -0.00284  -0.00262   1.92302
   A18        1.92155   0.00003   0.00012   0.00157   0.00170   1.92325
   A19        1.89382  -0.00026   0.00046  -0.00121  -0.00075   1.89307
   A20        1.88410  -0.00059   0.00242  -0.01113  -0.00870   1.87539
   A21        1.91844   0.00041  -0.00158   0.00856   0.00699   1.92543
   A22        1.92046   0.00044  -0.00172   0.00518   0.00345   1.92391
    D1        0.03249  -0.00099  -0.00110  -0.02794  -0.02905   0.00344
    D2       -3.10232  -0.00099  -0.00045  -0.04134  -0.04177   3.13909
    D3       -3.11112  -0.00049  -0.00127  -0.02454  -0.02582  -3.13694
    D4        0.03725  -0.00048  -0.00062  -0.03795  -0.03854  -0.00129
    D5        0.04897  -0.00128   0.00179  -0.07206  -0.07027  -0.02130
    D6       -3.09075  -0.00175   0.00194  -0.07521  -0.07327   3.11916
    D7       -0.08519   0.00037  -0.00622   0.12124   0.11503   0.02984
    D8        3.02596   0.00092  -0.00660   0.15282   0.14624  -3.11099
    D9        3.04943   0.00037  -0.00681   0.13495   0.12813  -3.10563
   D10       -0.12260   0.00092  -0.00719   0.16653   0.15933   0.03673
   D11        0.03603  -0.00011   0.00052  -0.04225  -0.04172  -0.00569
   D12       -2.06349  -0.00036   0.00076  -0.04024  -0.03946  -2.10295
   D13        2.13166   0.00012   0.00047  -0.03985  -0.03935   2.09231
   D14       -3.09869  -0.00008   0.00114  -0.05578  -0.05466   3.12984
   D15        1.08498  -0.00033   0.00139  -0.05376  -0.05240   1.03257
   D16       -1.00306   0.00014   0.00110  -0.05337  -0.05229  -1.05535
   D17        1.07671  -0.00070   0.00237  -0.06072  -0.05835   1.01836
   D18       -1.00109   0.00002  -0.00088  -0.04617  -0.04704  -1.04813
   D19       -3.10378  -0.00038   0.00086  -0.05270  -0.05184   3.12756
   D20       -2.09529  -0.00022   0.00198  -0.02915  -0.02718  -2.12247
   D21        2.11010   0.00050  -0.00128  -0.01460  -0.01587   2.09422
   D22        0.00741   0.00011   0.00047  -0.02113  -0.02067  -0.01326
         Item               Value     Threshold  Converged?
 Maximum Force            0.009049     0.000450     NO 
 RMS     Force            0.001692     0.000300     NO 
 Maximum Displacement     0.305658     0.001800     NO 
 RMS     Displacement     0.082415     0.001200     NO 
 Predicted change in Energy=-5.575901D-04
 GradGradGradGradGradGradGradGradGradGradGradGradGradGradGradGradGradGrad

                          Input orientation:                          
 ---------------------------------------------------------------------
 Center     Atomic      Atomic             Coordinates (Angstroms)
 Number     Number       Type             X           Y           Z
 ---------------------------------------------------------------------
      1          6           0       -1.778619    1.393828   -0.368564
      2          6           0       -2.005592    0.066748   -0.125385
      3          8           0       -0.587872    1.927903   -0.578884
      4          6           0       -0.877652   -0.864284   -0.081985
      5          8           0        0.286386   -0.432484   -0.235794
      6          6           0       -3.404299   -0.389101    0.096569
      7          1           0        0.057267    1.168143   -0.497992
      8          6           0       -1.097851   -2.334812    0.144168
      9          9           0       -4.290160    0.632706    0.027762
     10          9           0       -3.566796   -0.969005    1.314474
     11          9           0       -3.798058   -1.311276   -0.820091
     12          1           0       -1.748934   -2.739998   -0.627842
     13          1           0       -1.586803   -2.498404    1.102361
     14          1           0       -0.134145   -2.833743    0.124510
     15          1           0       -2.586643    2.112175   -0.403845
 ---------------------------------------------------------------------
                    Distance matrix (angstroms):
                    1          2          3          4          5
     1  C    0.000000
     2  C    1.368135   0.000000
     3  O    1.321873   2.383168   0.000000
     4  C    2.448048   1.463200   2.850823   0.000000
     5  O    2.759943   2.348315   2.540367   1.251037   0.000000
     6  C    2.457239   1.487765   3.709044   2.577135   3.705874
     7  H    1.854228   2.367972   0.999991   2.275499   1.638063
     8  C    3.824800   2.581500   4.353576   1.504023   2.383136
     9  F    2.654096   2.358605   3.968941   3.728034   4.706258
    10  F    3.407812   2.362909   4.566276   3.031924   4.187864
    11  F    3.405819   2.365271   4.566811   3.045222   4.218574
    12  H    4.142056   2.862894   4.810381   2.139018   3.101750
    13  H    4.165319   2.874500   4.839074   2.139139   3.093141
    14  H    4.562869   3.460868   4.834657   2.115233   2.464287
    15  H    1.081743   2.144511   2.014864   3.447252   3.841591
                    6          7          8          9         10
     6  C    0.000000
     7  H    3.841998   0.000000
     8  C    3.017906   3.743977   0.000000
     9  F    1.354095   4.411715   4.360109   0.000000
    10  F    1.358671   4.581078   3.054625   2.178155   0.000000
    11  F    1.358573   4.595084   3.044427   2.177174   2.174166
    12  H    2.965084   4.307295   1.088156   4.273497   3.195877
    13  H    2.960417   4.325235   1.088103   4.273962   2.510862
    14  H    4.083009   4.054534   1.085379   5.412771   4.083669
    15  H    2.678686   2.808970   4.721494   2.297191   3.661556
                   11         12         13         14         15
    11  F    0.000000
    12  H    2.505418   0.000000
    13  H    3.161446   1.754496   0.000000
    14  H    4.078533   1.783918   1.782935   0.000000
    15  H    3.655244   4.929048   4.952350   5.545809   0.000000
 Stoichiometry    C5H5F3O2
 Framework group  C1[X(C5H5F3O2)]
 Deg. of freedom    39
 Full point group                 C1      NOp   1
 Largest Abelian subgroup         C1      NOp   1
 Largest concise Abelian subgroup C1      NOp   1
                         Standard orientation:                         
 ---------------------------------------------------------------------
 Center     Atomic      Atomic             Coordinates (Angstroms)
 Number     Number       Type             X           Y           Z
 ---------------------------------------------------------------------
      1          6           0        0.813232   -1.524101    0.012620
      2          6           0        0.236405   -0.283537    0.004517
      3          8           0        2.115860   -1.748790    0.017599
      4          6           0        1.084440    0.908825   -0.003531
      5          8           0        2.328634    0.782096   -0.035376
      6          6           0       -1.248191   -0.186830   -0.003603
      7          1           0        2.537472   -0.842342   -0.006413
      8          6           0        0.481197    2.286233    0.026953
      9          9           0       -1.838132   -1.405647   -0.008796
     10          9           0       -1.712088    0.479169   -1.093204
     11          9           0       -1.728038    0.475981    1.080901
     12          1           0       -0.138312    2.405204    0.913598
     13          1           0       -0.158490    2.435418   -0.840522
     14          1           0        1.286294    3.014149    0.029265
     15          1           0        0.218913   -2.427954    0.014433
 ---------------------------------------------------------------------
 Rotational constants (GHZ):           1.8001138           1.1661869           0.8136548
 Standard basis: 6-31G(d,p) (6D, 7F)
 There are   175 symmetry adapted cartesian basis functions of A   symmetry.
 There are   175 symmetry adapted basis functions of A   symmetry.
   175 basis functions,   315 primitive gaussians,   175 cartesian basis functions
    39 alpha electrons       39 beta electrons
       nuclear repulsion energy       580.7771458488 Hartrees.
 NAtoms=   15 NActive=   15 NUniq=   15 SFac= 1.00D+00 NAtFMM=   60 NAOKFM=F Big=F
 Integral buffers will be    131072 words long.
 Raffenetti 1 integral format.
 Two-electron integral symmetry is turned on.
 One-electron integrals computed using PRISM.
 NBasis=   175 RedAO= T EigKep=  1.05D-03  NBF=   175
 NBsUse=   175 1.00D-06 EigRej= -1.00D+00 NBFU=   175
 Initial guess from the checkpoint file:  "5.chk"
 B after Tr=     0.000000   -0.000000   -0.000000
         Rot=    0.999995   -0.001732    0.002410    0.000799 Ang=  -0.35 deg.
 ExpMin= 1.61D-01 ExpMax= 7.00D+03 ExpMxC= 1.05D+03 IAcc=2 IRadAn=         4 AccDes= 0.00D+00
 Harris functional with IExCor=  205 and IRadAn=       4 diagonalized for initial guess.
 HarFok:  IExCor=  205 AccDes= 0.00D+00 IRadAn=         4 IDoV= 1 UseB2=F ITyADJ=14
 ICtDFT=  3500011 ScaDFX=  1.000000  1.000000  1.000000  1.000000
 FoFCou: FMM=F IPFlag=           0 FMFlag=      100000 FMFlg1=           0
         NFxFlg=           0 DoJE=T BraDBF=F KetDBF=T FulRan=T
         wScrn=  0.000000 ICntrl=       500 IOpCl=  0 I1Cent=   200000004 NGrid=           0
         NMat0=    1 NMatS0=      1 NMatT0=    0 NMatD0=    1 NMtDS0=    0 NMtDT0=    0
 Petite list used in FoFCou.
 Requested convergence on RMS density matrix=1.00D-08 within 128 cycles.
 Requested convergence on MAX density matrix=1.00D-06.
 Requested convergence on             energy=1.00D-06.
 No special actions if energy rises.
 Integral accuracy reduced to 1.0D-05 until final iterations.
 Initial convergence to 1.0D-05 achieved.  Increase integral accuracy.
 SCF Done:  E(RHF) =  -640.304602777     A.U. after   14 cycles
            NFock= 14  Conv=0.44D-08     -V/T= 2.0027
 ExpMin= 1.61D-01 ExpMax= 7.00D+03 ExpMxC= 1.05D+03 IAcc=3 IRadAn=         5 AccDes= 0.00D+00
 HarFok:  IExCor=  205 AccDes= 0.00D+00 IRadAn=         5 IDoV=-2 UseB2=F ITyADJ=14
 ICtDFT= 12500011 ScaDFX=  1.000000  1.000000  1.000000  1.000000
 Range of M.O.s used for correlation:    11   175
 NBasis=   175 NAE=    39 NBE=    39 NFC=    10 NFV=     0
 NROrb=    165 NOA=    29 NOB=    29 NVA=   136 NVB=   136

 **** Warning!!: The largest alpha MO coefficient is  0.12439015D+02

 Fully direct method using O(ONN) memory.
 JobTyp=1 Pass  1:  I=  11 to  39 NPSUse= 28 ParTrn=T ParDer=T DoDerP=T.
 Spin components of T(2) and E(2):
     alpha-alpha T2 =       0.5915216508D-01 E2=     -0.2084968874D+00
     alpha-beta  T2 =       0.3128427210D+00 E2=     -0.1117373376D+01
     beta-beta   T2 =       0.5915216508D-01 E2=     -0.2084968874D+00
 ANorm=    0.1196305584D+01
 E2 =    -0.1534367151D+01 EUMP2 =    -0.64183896992780D+03
          IDoAtm=111111111111111
          Differentiating once with respect to electric field.
                with respect to dipole field.
          Differentiating once with respect to nuclear coordinates.
 Keep R1 ints in memory in canonical form, NReq=124632586.
          There are     1 degrees of freedom in the 1st order CPHF.  IDoFFX=0 NUNeed=     1.
 LinEq1:  Iter=  0 NonCon=     1 RMS=5.24D-03 Max=1.43D-01 NDo=     1
 AX will form     1 AO Fock derivatives at one time.
 LinEq1:  Iter=  1 NonCon=     1 RMS=2.00D-03 Max=5.05D-02 NDo=     1
 LinEq1:  Iter=  2 NonCon=     1 RMS=6.33D-04 Max=1.96D-02 NDo=     1
 LinEq1:  Iter=  3 NonCon=     1 RMS=2.76D-04 Max=6.60D-03 NDo=     1
 LinEq1:  Iter=  4 NonCon=     1 RMS=8.97D-05 Max=2.18D-03 NDo=     1
 LinEq1:  Iter=  5 NonCon=     1 RMS=3.37D-05 Max=7.09D-04 NDo=     1
 LinEq1:  Iter=  6 NonCon=     1 RMS=1.29D-05 Max=5.24D-04 NDo=     1
 LinEq1:  Iter=  7 NonCon=     1 RMS=4.19D-06 Max=6.66D-05 NDo=     1
 LinEq1:  Iter=  8 NonCon=     1 RMS=1.47D-06 Max=3.64D-05 NDo=     1
 LinEq1:  Iter=  9 NonCon=     1 RMS=4.03D-07 Max=6.66D-06 NDo=     1
 LinEq1:  Iter= 10 NonCon=     1 RMS=1.36D-07 Max=1.80D-06 NDo=     1
 LinEq1:  Iter= 11 NonCon=     1 RMS=3.88D-08 Max=7.30D-07 NDo=     1
 LinEq1:  Iter= 12 NonCon=     1 RMS=1.38D-08 Max=3.56D-07 NDo=     1
 LinEq1:  Iter= 13 NonCon=     1 RMS=3.47D-09 Max=5.07D-08 NDo=     1
 LinEq1:  Iter= 14 NonCon=     1 RMS=7.76D-10 Max=1.98D-08 NDo=     1
 LinEq1:  Iter= 15 NonCon=     1 RMS=2.87D-10 Max=9.43D-09 NDo=     1
 LinEq1:  Iter= 16 NonCon=     1 RMS=8.99D-11 Max=2.79D-09 NDo=     1
 LinEq1:  Iter= 17 NonCon=     0 RMS=3.24D-11 Max=6.57D-10 NDo=     1
 Linear equations converged to 1.000D-10 1.000D-09 after    17 iterations.
 End of Minotr F.D. properties file   721 does not exist.
 End of Minotr F.D. properties file   722 does not exist.
 End of Minotr F.D. properties file   788 does not exist.
 Symmetrizing basis deriv contribution to polar:
 IMax=3 JMax=2 DiffMx= 0.00D+00
 Calling FoFJK, ICntrl=  10002127 FMM=F ISym2X=0 I1Cent= 0 IOpClX= 0 NMat=1 NMatS=1 NMatT=0.
 ***** Axes restored to original set *****
 -------------------------------------------------------------------
 Center     Atomic                   Forces (Hartrees/Bohr)
 Number     Number              X              Y              Z
 -------------------------------------------------------------------
      1        6           0.001332884    0.000672542   -0.000030401
      2        6          -0.000547108    0.000822490    0.000051568
      3        8          -0.000816899   -0.001013108    0.000927987
      4        6           0.001446286   -0.000149672    0.000289192
      5        8          -0.000473777    0.000158631   -0.000771784
      6        6          -0.000241100   -0.000086901   -0.000070755
      7        1          -0.000502192   -0.000024038   -0.000157003
      8        6          -0.000678675    0.000320791    0.000041985
      9        9           0.000159830    0.000066561    0.000043035
     10        9           0.000328233   -0.000299505   -0.000179845
     11        9           0.000522568   -0.000329130    0.000132683
     12        1          -0.000149836   -0.000026546   -0.000108045
     13        1          -0.000268654    0.000048317    0.000239918
     14        1          -0.000030540    0.000041460    0.000029614
     15        1          -0.000081021   -0.000201891   -0.000438147
 -------------------------------------------------------------------
 Cartesian Forces:  Max     0.001446286 RMS     0.000489670

 GradGradGradGradGradGradGradGradGradGradGradGradGradGradGradGradGradGrad
 Berny optimization.
 Using GEDIIS/GDIIS optimizer.
 FormGI is forming the generalized inverse of G from B-inverse, IUseBI=4.
 Internal  Forces:  Max     0.002065854 RMS     0.000632530
 Search for a local minimum.
 Step number   3 out of a maximum of   68
 All quantities printed in internal units (Hartrees-Bohrs-Radians)
 Mixed Optimization -- En-DIIS/RFO-DIIS
 Update second derivatives using D2CorX and points    2    3
 DE= -3.63D-04 DEPred=-5.58D-04 R= 6.51D-01
 TightC=F SS=  1.41D+00  RLast= 3.40D-01 DXNew= 8.4853D-01 1.0193D+00
 Trust test= 6.51D-01 RLast= 3.40D-01 DXMaxT set to 8.49D-01
 ITU=  1  1  0
 Use linear search instead of GDIIS.
     Eigenvalues ---    0.00071   0.00575   0.00892   0.01589   0.02318
     Eigenvalues ---    0.03712   0.03950   0.05665   0.06039   0.06929
     Eigenvalues ---    0.12752   0.12910   0.13278   0.13365   0.13965
     Eigenvalues ---    0.14115   0.18303   0.19420   0.20947   0.21845
     Eigenvalues ---    0.24176   0.24869   0.27368   0.27706   0.30699
     Eigenvalues ---    0.34949   0.35554   0.35959   0.36834   0.37620
     Eigenvalues ---    0.37869   0.38514   0.41854   0.48555   0.50379
     Eigenvalues ---    0.52509   0.61246   0.79030   0.85078
 RFO step:  Lambda=-6.52792326D-05 EMin= 7.12122573D-04
 Quartic linear search produced a step of -0.24031.
 Iteration  1 RMS(Cart)=  0.03020390 RMS(Int)=  0.00042907
 Iteration  2 RMS(Cart)=  0.00056289 RMS(Int)=  0.00000837
 Iteration  3 RMS(Cart)=  0.00000013 RMS(Int)=  0.00000837
 Variable       Old X    -DE/DX   Delta X   Delta X   Delta X     New X
                                 (Linear)    (Quad)   (Total)
    R1        2.58540  -0.00061  -0.00130   0.00037  -0.00093   2.58447
    R2        2.49798  -0.00173  -0.00376   0.00223  -0.00153   2.49645
    R3        2.04420  -0.00006   0.00016  -0.00024  -0.00008   2.04412
    R4        2.76505  -0.00038   0.00041   0.00177   0.00219   2.76723
    R5        2.81147  -0.00054  -0.00072  -0.00035  -0.00107   2.81040
    R6        1.88971  -0.00032  -0.00189   0.00056  -0.00132   1.88839
    R7        2.36412  -0.00029  -0.00067  -0.00055  -0.00122   2.36290
    R8        2.84219  -0.00018   0.00007  -0.00035  -0.00028   2.84191
    R9        2.55887  -0.00006   0.00005  -0.00090  -0.00085   2.55802
   R10        2.56752  -0.00007   0.00018  -0.00033  -0.00014   2.56737
   R11        2.56733  -0.00002  -0.00016   0.00083   0.00067   2.56800
   R12        2.05632   0.00018   0.00010  -0.00019  -0.00009   2.05623
   R13        2.05622   0.00032  -0.00013   0.00092   0.00079   2.05701
   R14        2.05107  -0.00005   0.00010  -0.00018  -0.00007   2.05099
    A1        2.17685  -0.00115  -0.00149  -0.00098  -0.00247   2.17438
    A2        2.12470   0.00045   0.00013   0.00024   0.00037   2.12507
    A3        1.98163   0.00069   0.00136   0.00075   0.00210   1.98374
    A4        2.08816   0.00009   0.00148  -0.00205  -0.00057   2.08759
    A5        2.07110   0.00173   0.00001   0.00591   0.00592   2.07702
    A6        2.12391  -0.00182  -0.00150  -0.00384  -0.00534   2.11858
    A7        1.83517  -0.00069  -0.00177   0.00218   0.00041   1.83559
    A8        2.08748   0.00056   0.00114  -0.00043   0.00074   2.08822
    A9        2.11032  -0.00207  -0.00240  -0.00349  -0.00586   2.10446
   A10        2.08539   0.00150   0.00117   0.00392   0.00512   2.09051
   A11        1.95655   0.00014  -0.00108   0.00208   0.00100   1.95755
   A12        1.95729  -0.00037   0.00150  -0.00085   0.00065   1.95794
   A13        1.96038  -0.00068  -0.00103  -0.00222  -0.00325   1.95713
   A14        1.86438   0.00039   0.00019   0.00085   0.00104   1.86542
   A15        1.86326   0.00058   0.00071   0.00127   0.00199   1.86525
   A16        1.85505   0.00002  -0.00024  -0.00104  -0.00128   1.85376
   A17        1.92302  -0.00004   0.00063   0.00103   0.00166   1.92468
   A18        1.92325  -0.00014  -0.00041  -0.00273  -0.00314   1.92011
   A19        1.89307   0.00004   0.00018   0.00085   0.00103   1.89411
   A20        1.87539  -0.00001   0.00209  -0.00292  -0.00082   1.87457
   A21        1.92543   0.00006  -0.00168   0.00243   0.00074   1.92617
   A22        1.92391   0.00009  -0.00083   0.00132   0.00049   1.92441
    D1        0.00344  -0.00042   0.00698  -0.01026  -0.00328   0.00016
    D2        3.13909  -0.00038   0.01004  -0.00613   0.00391  -3.14018
    D3       -3.13694  -0.00036   0.00621  -0.00931  -0.00311  -3.14006
    D4       -0.00129  -0.00031   0.00926  -0.00519   0.00408   0.00279
    D5       -0.02130   0.00022   0.01689   0.00488   0.02176   0.00046
    D6        3.11916   0.00016   0.01761   0.00400   0.02161   3.14077
    D7        0.02984  -0.00056  -0.02764  -0.01019  -0.03785  -0.00801
    D8       -3.11099  -0.00036  -0.03514  -0.00683  -0.04199   3.13021
    D9       -3.10563  -0.00062  -0.03079  -0.01448  -0.04526   3.13230
   D10        0.03673  -0.00042  -0.03829  -0.01112  -0.04939  -0.01266
   D11       -0.00569  -0.00004   0.01003  -0.00797   0.00205  -0.00364
   D12       -2.10295  -0.00037   0.00948  -0.00993  -0.00046  -2.10341
   D13        2.09231   0.00034   0.00946  -0.00643   0.00302   2.09533
   D14        3.12984   0.00002   0.01314  -0.00375   0.00939   3.13923
   D15        1.03257  -0.00032   0.01259  -0.00571   0.00689   1.03946
   D16       -1.05535   0.00040   0.01257  -0.00220   0.01036  -1.04498
   D17        1.01836  -0.00013   0.01402  -0.02258  -0.00856   1.00980
   D18       -1.04813  -0.00001   0.01131  -0.01794  -0.00663  -1.05477
   D19        3.12756  -0.00006   0.01246  -0.01844  -0.00598   3.12158
   D20       -2.12247   0.00007   0.00653  -0.01922  -0.01270  -2.13516
   D21        2.09422   0.00019   0.00381  -0.01459  -0.01077   2.08345
   D22       -0.01326   0.00014   0.00497  -0.01508  -0.01012  -0.02338
         Item               Value     Threshold  Converged?
 Maximum Force            0.002066     0.000450     NO 
 RMS     Force            0.000633     0.000300     NO 
 Maximum Displacement     0.102036     0.001800     NO 
 RMS     Displacement     0.030195     0.001200     NO 
 Predicted change in Energy=-7.334356D-05
 GradGradGradGradGradGradGradGradGradGradGradGradGradGradGradGradGradGrad

                          Input orientation:                          
 ---------------------------------------------------------------------
 Center     Atomic      Atomic             Coordinates (Angstroms)
 Number     Number       Type             X           Y           Z
 ---------------------------------------------------------------------
      1          6           0       -1.775765    1.399289   -0.352318
      2          6           0       -2.004816    0.069744   -0.128047
      3          8           0       -0.583324    1.931353   -0.552812
      4          6           0       -0.877172   -0.864050   -0.099964
      5          8           0        0.283143   -0.438477   -0.289789
      6          6           0       -3.401595   -0.396112    0.081123
      7          1           0        0.056670    1.165596   -0.501753
[...]
 LinEq1:  Iter=  5 NonCon=     1 RMS=3.34D-05 Max=6.99D-04 NDo=     1
 LinEq1:  Iter=  6 NonCon=     1 RMS=1.28D-05 Max=5.23D-04 NDo=     1
 LinEq1:  Iter=  7 NonCon=     1 RMS=4.16D-06 Max=6.63D-05 NDo=     1
 LinEq1:  Iter=  8 NonCon=     1 RMS=1.46D-06 Max=3.64D-05 NDo=     1
 LinEq1:  Iter=  9 NonCon=     1 RMS=4.01D-07 Max=6.57D-06 NDo=     1
 LinEq1:  Iter= 10 NonCon=     1 RMS=1.36D-07 Max=1.83D-06 NDo=     1
 LinEq1:  Iter= 11 NonCon=     1 RMS=3.86D-08 Max=7.28D-07 NDo=     1
 LinEq1:  Iter= 12 NonCon=     1 RMS=1.37D-08 Max=3.58D-07 NDo=     1
 LinEq1:  Iter= 13 NonCon=     1 RMS=3.42D-09 Max=4.55D-08 NDo=     1
 LinEq1:  Iter= 14 NonCon=     1 RMS=7.47D-10 Max=1.70D-08 NDo=     1
 LinEq1:  Iter= 15 NonCon=     1 RMS=2.72D-10 Max=8.50D-09 NDo=     1
 LinEq1:  Iter= 16 NonCon=     1 RMS=8.46D-11 Max=2.77D-09 NDo=     1
 LinEq1:  Iter= 17 NonCon=     0 RMS=3.11D-11 Max=7.13D-10 NDo=     1
 Linear equations converged to 1.000D-10 1.000D-09 after    17 iterations.
 End of Minotr F.D. properties file   721 does not exist.
 End of Minotr F.D. properties file   722 does not exist.
 End of Minotr F.D. properties file   788 does not exist.
 Symmetrizing basis deriv contribution to polar:
 IMax=3 JMax=2 DiffMx= 0.00D+00
 G2DrvN: will do    16 centers at a time, making    1 passes.
 Calling FoFCou, ICntrl=  3107 FMM=F I1Cent=   0 AccDes= 0.00D+00.
 End of G2Drv F.D. properties file   721 does not exist.
 End of G2Drv F.D. properties file   722 does not exist.
 End of G2Drv F.D. properties file   788 does not exist.
 R2 and R3 integrals will be kept in memory, NReq=   239901200.
 DD1Dir will call FoFMem   1 times, MxPair=      1560
 NAB=   780 NAA=     0 NBB=     0.
 Discarding MO integrals.

 **********************************************************************

            Population analysis using the MP2 density.

 **********************************************************************

 Alpha  occ. eigenvalues --  -26.35421 -26.34464 -26.34380 -20.62649 -20.57852
 Alpha  occ. eigenvalues --  -11.52673 -11.37314 -11.37210 -11.26380 -11.24725
 Alpha  occ. eigenvalues --   -1.72552  -1.63586  -1.62816  -1.45196  -1.39603
 Alpha  occ. eigenvalues --   -1.12810  -1.02927  -0.96796  -0.89656  -0.83534
 Alpha  occ. eigenvalues --   -0.82208  -0.81814  -0.79245  -0.71394  -0.70977
 Alpha  occ. eigenvalues --   -0.69023  -0.67475  -0.66217  -0.65832  -0.64784
 Alpha  occ. eigenvalues --   -0.64095  -0.62499  -0.62453  -0.59855  -0.56837
 Alpha  occ. eigenvalues --   -0.56252  -0.52260  -0.44496  -0.38874
 Alpha virt. eigenvalues --    0.08127   0.20146   0.25661   0.25784   0.28560
 Alpha virt. eigenvalues --    0.29427   0.32790   0.33352   0.38795   0.42026
 Alpha virt. eigenvalues --    0.43038   0.44901   0.47777   0.53161   0.55659
 Alpha virt. eigenvalues --    0.58768   0.68085   0.68864   0.70606   0.73704
 Alpha virt. eigenvalues --    0.73919   0.78780   0.79549   0.80387   0.83311
 Alpha virt. eigenvalues --    0.84128   0.89615   0.93394   0.96766   0.97350
 Alpha virt. eigenvalues --    0.98401   1.03328   1.08760   1.09134   1.13096
 Alpha virt. eigenvalues --    1.14903   1.18566   1.19479   1.20904   1.22757
 Alpha virt. eigenvalues --    1.28281   1.28866   1.34237   1.35069   1.36648
 Alpha virt. eigenvalues --    1.37334   1.42854   1.45238   1.47526   1.51124
 Alpha virt. eigenvalues --    1.56715   1.61044   1.61679   1.62487   1.63571
 Alpha virt. eigenvalues --    1.65764   1.66808   1.68368   1.72254   1.73866
 Alpha virt. eigenvalues --    1.76684   1.81172   1.81625   1.90802   1.91683
 Alpha virt. eigenvalues --    1.92226   1.97511   1.98964   1.99740   2.03011
 Alpha virt. eigenvalues --    2.06528   2.09304   2.09883   2.10925   2.11770
 Alpha virt. eigenvalues --    2.13065   2.14197   2.20618   2.23999   2.24547
 Alpha virt. eigenvalues --    2.28782   2.30278   2.32186   2.32578   2.35272
 Alpha virt. eigenvalues --    2.36088   2.37396   2.38203   2.41793   2.43222
 Alpha virt. eigenvalues --    2.44817   2.49420   2.53544   2.58899   2.59718
 Alpha virt. eigenvalues --    2.67483   2.70040   2.71973   2.74591   2.75190
 Alpha virt. eigenvalues --    2.77100   2.84558   2.85813   2.92216   2.93485
 Alpha virt. eigenvalues --    2.98167   2.98473   3.04403   3.08024   3.09563
 Alpha virt. eigenvalues --    3.13050   3.19442   3.21423   3.23850   3.29681
 Alpha virt. eigenvalues --    3.37100   3.39102   3.39586   3.45818   3.48458
 Alpha virt. eigenvalues --    3.53811   3.59464   3.79089   3.80450   3.86496
 Alpha virt. eigenvalues --    3.93568   4.39885   4.46523   4.54817   4.72346
 Alpha virt. eigenvalues --    4.74247   4.76013   4.91387   5.10620   5.32083
 Alpha virt. eigenvalues --    6.01688
          Condensed to atoms (all electrons):
               1          2          3          4          5          6
     1  C    4.758867   0.403204   0.313109  -0.038615  -0.009047  -0.025672
     2  C    0.403204   5.847563  -0.040481   0.229511  -0.071919   0.262581
     3  O    0.313109  -0.040481   8.037721  -0.009364  -0.040031   0.002034
     4  C   -0.038615   0.229511  -0.009364   4.692283   0.462094  -0.009406
     5  O   -0.009047  -0.071919  -0.040031   0.462094   8.143435   0.002539
     6  C   -0.025672   0.262581   0.002034  -0.009406   0.002539   4.022671
     7  H   -0.031638  -0.011579   0.269828  -0.008688   0.076148   0.000157
     8  C    0.003687  -0.107845  -0.000239   0.331733  -0.071452  -0.004444
     9  F    0.002165  -0.046385   0.000087   0.001602  -0.000004   0.289050
    10  F    0.000970  -0.043823  -0.000003  -0.004452   0.000006   0.260033
    11  F    0.000388  -0.050677  -0.000003   0.000320   0.000010   0.266142
    12  H   -0.000036  -0.000416   0.000007  -0.028340   0.002059   0.001031
    13  H   -0.000125   0.000948   0.000007  -0.028581   0.000920  -0.000652
    14  H   -0.000101   0.006006   0.000005  -0.030095   0.003975   0.000139
    15  H    0.400055  -0.063572  -0.033447   0.001487  -0.000197  -0.000126
               7          8          9         10         11         12
     1  C   -0.031638   0.003687   0.002165   0.000970   0.000388  -0.000036
     2  C   -0.011579  -0.107845  -0.046385  -0.043823  -0.050677  -0.000416
     3  O    0.269828  -0.000239   0.000087  -0.000003  -0.000003   0.000007
     4  C   -0.008688   0.331733   0.001602  -0.004452   0.000320  -0.028340
     5  O    0.076148  -0.071452  -0.000004   0.000006   0.000010   0.002059
     6  C    0.000157  -0.004444   0.289050   0.260033   0.266142   0.001031
     7  H    0.310010   0.001702  -0.000002  -0.000000  -0.000000  -0.000061
     8  C    0.001702   5.184838  -0.000014   0.002831  -0.004231   0.361522
     9  F   -0.000002  -0.000014   9.114051  -0.035458  -0.036220   0.000040
    10  F   -0.000000   0.002831  -0.035458   9.156599  -0.039015  -0.001011
    11  F   -0.000000  -0.004231  -0.036220  -0.039015   9.151636   0.008418
    12  H   -0.000061   0.361522   0.000040  -0.001011   0.008418   0.546316
    13  H   -0.000060   0.366592   0.000015   0.003753  -0.000019  -0.025089
    14  H   -0.000002   0.360458   0.000000   0.000140   0.000054  -0.020159
    15  H    0.003655  -0.000121   0.008146   0.000138   0.000135   0.000000
              13         14         15
     1  C   -0.000125  -0.000101   0.400055
     2  C    0.000948   0.006006  -0.063572
     3  O    0.000007   0.000005  -0.033447
     4  C   -0.028581  -0.030095   0.001487
     5  O    0.000920   0.003975  -0.000197
     6  C   -0.000652   0.000139  -0.000126
     7  H   -0.000060  -0.000002   0.003655
     8  C    0.366592   0.360458  -0.000121
     9  F    0.000015   0.000000   0.008146
    10  F    0.003753   0.000140   0.000138
    11  F   -0.000019   0.000054   0.000135
    12  H   -0.025089  -0.020159   0.000000
    13  H    0.538615  -0.018796   0.000001
    14  H   -0.018796   0.544655   0.000002
    15  H    0.000001   0.000002   0.510890
 Mulliken charges:
               1
     1  C    0.222789
     2  C   -0.313117
     3  O   -0.499231
     4  C    0.438513
     5  O   -0.498536
     6  C    0.933924
     7  H    0.390529
     8  C   -0.425018
     9  F   -0.297072
    10  F   -0.300707
    11  F   -0.296938
    12  H    0.155719
    13  H    0.162471
    14  H    0.153718
    15  H    0.172956
 Sum of Mulliken charges =  -0.00000
 Mulliken charges with hydrogens summed into heavy atoms:
               1
     1  C    0.395744
     2  C   -0.313117
     3  O   -0.108702
     4  C    0.438513
     5  O   -0.498536
     6  C    0.933924
     8  C    0.046890
     9  F   -0.297072
    10  F   -0.300707
    11  F   -0.296938
 APT charges:
               1
     1  C    0.666120
     2  C   -0.714328
     3  O   -0.694063
     4  C    0.831064
     5  O   -0.612487
     6  C    1.662028
     7  H    0.401428
     8  C   -0.115079
     9  F   -0.508143
    10  F   -0.550134
    11  F   -0.554259
    12  H    0.045836
    13  H    0.042786
    14  H    0.027699
    15  H    0.071533
 Sum of APT charges =  -0.00000
 APT charges with hydrogens summed into heavy atoms:
               1
     1  C    0.737653
     2  C   -0.714328
     3  O   -0.292636
     4  C    0.831064
     5  O   -0.612487
     6  C    1.662028
     8  C    0.001242
     9  F   -0.508143
    10  F   -0.550134
    11  F   -0.554259
 Electronic spatial extent (au):  <R**2>=           1359.1287
 Charge=             -0.0000 electrons
 Dipole moment (field-independent basis, Debye):
    X=             -0.2847    Y=              0.4525    Z=             -0.0789  Tot=              0.5404
 Quadrupole moment (field-independent basis, Debye-Ang):
   XX=            -63.5012   YY=            -52.5897   ZZ=            -55.8916
   XY=              0.5356   XZ=             -0.0163   YZ=             -0.1012
 Traceless Quadrupole moment (field-independent basis, Debye-Ang):
   XX=             -6.1737   YY=              4.7378   ZZ=              1.4359
   XY=              0.5356   XZ=             -0.0163   YZ=             -0.1012
 Octapole moment (field-independent basis, Debye-Ang**2):
  XXX=            -29.4777  YYY=             -0.3054  ZZZ=             -0.4043  XYY=            -13.5471
  XXY=             -1.9068  XXZ=              0.1623  XZZ=             -5.5514  YZZ=             -1.3943
  YYZ=             -0.0094  XYZ=             -0.0603
 Hexadecapole moment (field-independent basis, Debye-Ang**3):
 XXXX=           -807.0330 YYYY=           -584.3387 ZZZZ=           -118.4540 XXXY=             -8.5423
 XXXZ=              0.0281 YYYX=             21.7208 YYYZ=              0.1568 ZZZX=              0.3091
 ZZZY=             -1.0045 XXYY=           -259.6319 XXZZ=           -152.3323 YYZZ=           -119.8757
 XXYZ=              0.3231 YYXZ=              0.2987 ZZXY=              0.4628
 N-N= 5.812454510472D+02 E-N=-2.677755130104D+03  KE= 6.397230014237D+02
  Exact polarizability:  64.606  -4.142  73.252   0.348   0.035  35.467
 Approx polarizability:  55.855  -3.108  57.005   0.300   0.018  36.655
 Calling FoFJK, ICntrl=  10100127 FMM=F ISym2X=0 I1Cent= 0 IOpClX= 0 NMat=1 NMatS=1 NMatT=0.
 -------------------------------------------------------------------
 Center     Atomic                   Forces (Hartrees/Bohr)
 Number     Number              X              Y              Z
 -------------------------------------------------------------------
      1        6           0.000096628    0.000458104    0.000068174
      2        6          -0.000110318    0.000064221   -0.000065868
      3        8          -0.000111338   -0.000006607    0.000024158
      4        6           0.000120281   -0.000866683    0.000139529
      5        8           0.000970267   -0.000118398    0.000002905
      6        6          -0.000219575    0.000194432    0.000020634
      7        1           0.000064336   -0.000036661   -0.000046001
      8        6          -0.001170893    0.000164657   -0.000129351
      9        9          -0.000006334   -0.000052376   -0.000004932
     10        9           0.000095368   -0.000105472    0.000115012
     11        9           0.000079151   -0.000075368   -0.000120001
     12        1           0.000005679    0.000316852    0.000050371
     13        1           0.000019057    0.000285744   -0.000016688
     14        1           0.000159983   -0.000264268   -0.000000298
     15        1           0.000007709    0.000041822   -0.000037644
 -------------------------------------------------------------------
 Cartesian Forces:  Max     0.001170893 RMS     0.000292628
 NDeriv=     39 NFrqRd=  0 NDerD0=      0 MskFDP=       0 MskDFD=       0 MskDF0=       0
 Re-enter D2Numr:  normal mode  19 step-up   number 1
 Standard basis: 6-31G(d,p) (6D, 7F)
   175 basis functions,   315 primitive gaussians,   175 cartesian basis functions
    39 alpha electrons       39 beta electrons
       nuclear repulsion energy       581.2078066909 Hartrees.
 NAtoms=   15 NActive=   15 NUniq=   15 SFac= 1.00D+00 NAtFMM=   60 NAOKFM=F Big=F
 Integral buffers will be    131072 words long.
 Raffenetti 1 integral format.
 Two-electron integral symmetry is turned off.
 One-electron integrals computed using PRISM.
 NBasis=   175 RedAO= T EigKep=  1.06D-03  NBF=   175
 NBsUse=   175 1.00D-06 EigRej= -1.00D+00 NBFU=   175
 Initial guess from the checkpoint file:  "5.chk"
 B after Tr=     0.000039    0.000057   -0.000008
         Rot=    1.000000   -0.000006   -0.000002    0.000010 Ang=  -0.00 deg.
 Requested convergence on RMS density matrix=1.00D-08 within 128 cycles.
 Requested convergence on MAX density matrix=1.00D-06.
 Requested convergence on             energy=1.00D-06.
 No special actions if energy rises.
 SCF Done:  E(RHF) =  -640.304588988     A.U. after    9 cycles
            NFock=  9  Conv=0.82D-08     -V/T= 2.0026
 ExpMin= 1.61D-01 ExpMax= 7.00D+03 ExpMxC= 1.05D+03 IAcc=3 IRadAn=         5 AccDes= 0.00D+00
 HarFok:  IExCor=  205 AccDes= 0.00D+00 IRadAn=         5 IDoV=-2 UseB2=F ITyADJ=14
 ICtDFT= 12500011 ScaDFX=  1.000000  1.000000  1.000000  1.000000
 Range of M.O.s used for correlation:    11   175
 NBasis=   175 NAE=    39 NBE=    39 NFC=    10 NFV=     0
 NROrb=    165 NOA=    29 NOB=    29 NVA=   136 NVB=   136

 **** Warning!!: The largest alpha MO coefficient is  0.12266853D+02

 Disk-based method using ON**2 memory for 29 occupieds at a time.
 Permanent disk used for amplitudes=    34934796 words.
 Estimated scratch disk usage=   288621954 words.
 Actual    scratch disk usage=   270796162 words.
 JobTyp=1 Pass  1:  I=  11 to  39 NPSUse= 28 ParTrn=T ParDer=T DoDerP=T.
 (rs|ai) integrals will be sorted in core.
 Spin components of T(2) and E(2):
     alpha-alpha T2 =       0.5915767538D-01 E2=     -0.2085397752D+00
     alpha-beta  T2 =       0.3127718075D+00 E2=     -0.1117378743D+01
     beta-beta   T2 =       0.5915767538D-01 E2=     -0.2085397752D+00
 ANorm=    0.1196280552D+01
 E2 =    -0.1534458293D+01 EUMP2 =    -0.64183904728162D+03
 G2DrvN: will do    16 centers at a time, making    1 passes.
 Calling FoFCou, ICntrl=  3107 FMM=F I1Cent=   0 AccDes= 0.00D+00.
 End of G2Drv F.D. properties file   721 does not exist.
 End of G2Drv F.D. properties file   722 does not exist.
 End of G2Drv F.D. properties file   788 does not exist.
          IDoAtm=111111111111111
          Differentiating once with respect to electric field.
                with respect to dipole field.
          Differentiating once with respect to nuclear coordinates.
 Keep R1 ints in memory in canonical form, NReq=124623718.
          There are    48 degrees of freedom in the 1st order CPHF.  IDoFFX=6 NUNeed=    48.
     45 vectors produced by pass  0 Test12= 1.11D-14 2.08D-09 XBig12= 1.74D+01 2.71D+00.
 AX will form    45 AO Fock derivatives at one time.
     45 vectors produced by pass  1 Test12= 1.11D-14 2.08D-09 XBig12= 9.26D-01 1.79D-01.
     45 vectors produced by pass  2 Test12= 1.11D-14 2.08D-09 XBig12= 2.82D-02 3.48D-02.
     45 vectors produced by pass  3 Test12= 1.11D-14 2.08D-09 XBig12= 3.98D-04 3.13D-03.
     45 vectors produced by pass  4 Test12= 1.11D-14 2.08D-09 XBig12= 4.17D-06 3.02D-04.
     45 vectors produced by pass  5 Test12= 1.11D-14 2.08D-09 XBig12= 2.78D-08 2.04D-05.
     39 vectors produced by pass  6 Test12= 1.11D-14 2.08D-09 XBig12= 1.42D-10 1.58D-06.
     13 vectors produced by pass  7 Test12= 1.11D-14 2.08D-09 XBig12= 7.18D-13 8.96D-08.
      3 vectors produced by pass  8 Test12= 1.11D-14 2.08D-09 XBig12= 3.23D-15 7.01D-09.
 InvSVY:  IOpt=1 It=  1 EMax= 2.66D-15
 Solved reduced A of dimension   325 with    48 vectors.
 End of Minotr F.D. properties file   721 does not exist.
 End of Minotr F.D. properties file   722 does not exist.
 End of Minotr F.D. properties file   788 does not exist.
 MDV=  5502926848.
 Form MO integral derivatives with frozen-active canonical formalism.
 Discarding MO integrals.
 Reordered first order wavefunction length =     56264832
 In DefCFB: NBatch=  1 ICI= 39 ICA=136 LFMax= 68
            Large arrays: LIAPS=   649740000 LIARS=    97461000 words.
 Semi-Direct transformation.
 ModeAB=           4 MOrb=            39 LenV=    5502109479
 LASXX=     87830691 LTotXX=    87830691 LenRXX=   177387171
 LTotAB=    89556480 MaxLAS=   100238775 LenRXY=           0
 NonZer=   265217862 LenScr=   397934592 LnRSAI=   100238775
 LnScr1=   150470656 LExtra=           0 Total=    826031194
 MaxDsk=          -1 SrtSym=           T ITran=            4
 JobTyp=0 Pass  1:  I=   1 to  39.
 (rs|ai) integrals will be sorted in core.
 Spin components of T(2) and E(2):
     alpha-alpha T2 =       0.5915767538D-01 E2=     -0.2085397752D+00
     alpha-beta  T2 =       0.3127718075D+00 E2=     -0.1117378743D+01
     beta-beta   T2 =       0.5915767538D-01 E2=     -0.2085397752D+00
 ANorm=    0.1691796181D+01
 E2 =    -0.1534458293D+01 EUMP2 =    -0.64183904728162D+03
          IDoAtm=111111111111111
          Differentiating once with respect to electric field.
                with respect to dipole field.
          Differentiating once with respect to nuclear coordinates.
          There are     1 degrees of freedom in the 1st order CPHF.  IDoFFX=0 NUNeed=     1.
 LinEq1:  Iter=  0 NonCon=     1 RMS=5.24D-03 Max=1.43D-01 NDo=     1
 LinEq1:  Iter=  1 NonCon=     1 RMS=2.00D-03 Max=5.07D-02 NDo=     1
 LinEq1:  Iter=  2 NonCon=     1 RMS=6.34D-04 Max=1.97D-02 NDo=     1
 LinEq1:  Iter=  3 NonCon=     1 RMS=2.76D-04 Max=6.60D-03 NDo=     1
 LinEq1:  Iter=  4 NonCon=     1 RMS=8.95D-05 Max=2.17D-03 NDo=     1
 LinEq1:  Iter=  5 NonCon=     1 RMS=3.37D-05 Max=7.01D-04 NDo=     1
 LinEq1:  Iter=  6 NonCon=     1 RMS=1.29D-05 Max=5.25D-04 NDo=     1
 LinEq1:  Iter=  7 NonCon=     1 RMS=4.18D-06 Max=6.68D-05 NDo=     1
 LinEq1:  Iter=  8 NonCon=     1 RMS=1.47D-06 Max=3.67D-05 NDo=     1
 LinEq1:  Iter=  9 NonCon=     1 RMS=4.03D-07 Max=6.67D-06 NDo=     1
 LinEq1:  Iter= 10 NonCon=     1 RMS=1.36D-07 Max=1.83D-06 NDo=     1
 LinEq1:  Iter= 11 NonCon=     1 RMS=3.88D-08 Max=7.34D-07 NDo=     1
 LinEq1:  Iter= 12 NonCon=     1 RMS=1.38D-08 Max=3.56D-07 NDo=     1
 LinEq1:  Iter= 13 NonCon=     1 RMS=3.46D-09 Max=5.49D-08 NDo=     1
 LinEq1:  Iter= 14 NonCon=     1 RMS=7.69D-10 Max=1.95D-08 NDo=     1
 LinEq1:  Iter= 15 NonCon=     1 RMS=2.85D-10 Max=9.29D-09 NDo=     1
 LinEq1:  Iter= 16 NonCon=     1 RMS=8.89D-11 Max=2.79D-09 NDo=     1
 LinEq1:  Iter= 17 NonCon=     0 RMS=3.21D-11 Max=6.61D-10 NDo=     1
 Linear equations converged to 1.000D-10 1.000D-09 after    17 iterations.
 End of Minotr F.D. properties file   721 does not exist.
 End of Minotr F.D. properties file   722 does not exist.
 End of Minotr F.D. properties file   788 does not exist.
 Symmetrizing basis deriv contribution to polar:
 IMax=3 JMax=2 DiffMx= 0.00D+00
 G2DrvN: will do    16 centers at a time, making    1 passes.
 Calling FoFCou, ICntrl=  3107 FMM=F I1Cent=   0 AccDes= 0.00D+00.
 End of G2Drv F.D. properties file   721 does not exist.
 End of G2Drv F.D. properties file   722 does not exist.
 End of G2Drv F.D. properties file   788 does not exist.
