 argument  1 = 5C.nw
 


============================== echo of input deck ==============================
echo
start 5C
title "Me,H,MeF Chelate"
charge 0

geometry
 zmatrix
  O
  C  1  R1
  C  2  R2  1  A1
  C  3  R3  2  A2  1  D0
  O  4  R4  3  A3  2  D0
  H  1  R5  2  A4  3  D0
  C  2  R6  3  A5  4  D180
  H  3  R7  2  A6  1  D180
  C  4  R8  3  A7  2  D180
  H  7  R9  2  A8  1  D1
  H  7  R10 2  A9  1  D2
  H  7  R11 2  A10 1  D3
  F  9  R12 4  A11 5  D4
  F  9  R13 4  A12 5  D5
  F  9  R14 4  A13 5  D6
  variables
    R1  1.329
    R2  1.363
    A1  124.5
    R3  1.440
    A2  119.5
    R4  1.249
    A3  123.5
    R5  0.994
    A4  105.4
    R6  1.485
    A5  122.5
    R7  1.078
    A6  120.0
    R8  1.499
    A7  117.6
    R9  1.100
    A8  110.0
    D1  180.0
    R10 1.100
    A9  110.0
    D2  60.00
    R11 1.100
    A10 110.0
    D3  -60.0
    R12 1.350
    A11 110.0
    D4  0.000
    R13 1.350
    A12 110.0
    D5  120.0
    R14 1.350
    A13 110.0
    D6  -120.
  constants
    D0  0.000
    D180 180.0
 end
end

basis spherical
 * library aug-cc-pVDZ
end

set lindep:n_dep 0

set cphf:maxsub 95
set cphf:maxiter 999
set int:acc_std 1d-16
set fock:densityscreen f

scf
 maxiter 99
 vectors input atomic
 thresh 1d-9
 tol2e 1d-15
end

mp2
 freeze atomic
 tight
end

driver
 clear
 maxiter 99
 tight
end

set "mp2:aotol2e fock" 1d-15
set mp2:aotol2e 1d-15
set mp2:backtol 1d-15


task mp2 optimize
task mp2 frequencies


================================================================================


                                         
                                         
 
 
             Northwest Computational Chemistry Package (NWChem) 7.0.0
             --------------------------------------------------------
 
 
                    Environmental Molecular Sciences Laboratory
                       Pacific Northwest National Laboratory
                                Richland, WA 99352
 
                              Copyright (c) 1994-2020
                       Pacific Northwest National Laboratory
                            Battelle Memorial Institute
 
             NWChem is an open-source computational chemistry package
                        distributed under the terms of the
                      Educational Community License (ECL) 2.0
             A copy of the license is included with this distribution
                              in the LICENSE.TXT file
 
                                  ACKNOWLEDGMENT
                                  --------------

            This software and its documentation were developed at the
            EMSL at Pacific Northwest National Laboratory, a multiprogram
            national laboratory, operated for the U.S. Department of Energy
            by Battelle under Contract Number DE-AC05-76RL01830. Support
            for this work was provided by the Department of Energy Office
            of Biological and Environmental Research, Office of Basic
            Energy Sciences, and the Office of Advanced Scientific Computing.


           Job information
           ---------------

    hostname        = compute-0-16.local
    program         = /scratch/nwchem.277679
    date            = Fri Mar 26 19:26:21 2021

    compiled        = Thu_Jun_25_16:07:03_2020
    source          = /home/edo/nwchem-7.0.1
    nwchem branch   = 7.0.1
    nwchem revision = de46fdf
    ga revision     = 5.7.1
    use scalapack   = T
    input           = 5C.nw
    prefix          = 5C.
    data base       = ./5C.db
    status          = startup
    nproc           =       11
    time left       =     -1s



           Memory information
           ------------------

    heap     =   13107198 doubles =    100.0 Mbytes
    stack    =   13107195 doubles =    100.0 Mbytes
    global   =   26214400 doubles =    200.0 Mbytes (distinct from heap & stack)
    total    =   52428793 doubles =    400.0 Mbytes
    verify   = yes
    hardfail = no 


           Directory information
           ---------------------
 
  0 permanent = .
  0 scratch   = /scratch
 
 
 
 
                                NWChem Input Module
                                -------------------
 
 
                                 Me,H,MeF Chelate
                                 ----------------

 Scaling coordinates for geometry "geometry" by  1.889725989
 (inverse scale =  0.529177249)

 CS  symmetry detected
 
 
                             Geometry "geometry" -> ""
                             -------------------------
 
 Output coordinates in angstroms (scale by  1.889725989 to convert to a.u.)
 
  No.       Tag          Charge          X              Y              Z
 ---- ---------------- ---------- -------------- -------------- --------------
    1 O                    8.0000    -1.11100638    -2.46361400     0.00000000
    2 C                    6.0000     0.16473346    -2.09115077     0.00000000
    3 C                    6.0000     0.59099689    -0.79652013     0.00000000
    4 C                    6.0000    -0.37768783     0.26896094     0.00000000
    5 O                    8.0000    -1.61206627     0.07840688     0.00000000
    6 H                    1.0000    -1.63296529    -1.61768557     0.00000000
    7 C                    6.0000     1.10481497    -3.24070361     0.00000000
    8 H                    1.0000     1.64630965    -0.57652243     0.00000000
    9 C                    6.0000     0.13805703     1.67644389     0.00000000
   10 H                    1.0000     2.14315063    -2.87757959     0.00000000
   11 H                    1.0000     0.94289916    -3.85912144    -0.89517745
   12 H                    1.0000     0.94289916    -3.85912144     0.89517745
   13 F                    9.0000    -0.89421675     2.54645013     0.00000000
   14 F                    9.0000     0.89248620     1.89174746     1.09862687
   15 F                    9.0000     0.89248620     1.89174746    -1.09862687
 
      Atomic Mass 
      ----------- 
 
      O                 15.994910
      C                 12.000000
      H                  1.007825
      F                 18.998400
 

 Effective nuclear repulsion energy (a.u.)     565.7929702544

            Nuclear Dipole moment (a.u.) 
            ----------------------------
        X                 Y               Z
 ---------------- ---------------- ----------------
     0.0000000000     0.0000000000     0.0000000000
 
      Symmetry information
      --------------------
 
 Group name             Cs        
 Group number              2
 Group order               2
 No. of unique centers    13
 
      Symmetry unique atoms
 
     1    2    3    4    5    6    7    8    9   10   11   13   14
 


                                Z-matrix (user)
                                -------- 

 Units are Angstrom for bonds and degrees for angles

  Constants are marked with an asterisk (*).

  Constrained variables are marked with a plus sign (+).

 
      Type          Name      I     J     K     L     M      Value
      ----------- --------  ----- ----- ----- ----- ----- ----------
    1 Stretch      R1          2     1                       1.32900
    2 Stretch      R2          3     2                       1.36300
    3 Bend         A1          3     2     1               124.50000
    4 Stretch      R3          4     3                       1.44000
    5 Bend         A2          4     3     2               119.50000
    6*Torsion      D0          4     3     2     1           0.00000
    7 Stretch      R4          5     4                       1.24900
    8 Bend         A3          5     4     3               123.50000
    9*Torsion      D0          5     4     3     2           0.00000
   10 Stretch      R5          6     1                       0.99400
   11 Bend         A4          6     1     2               105.40000
   12*Torsion      D0          6     1     2     3           0.00000
   13 Stretch      R6          7     2                       1.48500
   14 Bend         A5          7     2     3               122.50000
   15*Torsion      D180        7     2     3     4         180.00000
   16 Stretch      R7          8     3                       1.07800
   17 Bend         A6          8     3     2               120.00000
   18*Torsion      D180        8     3     2     1         180.00000
   19 Stretch      R8          9     4                       1.49900
   20 Bend         A7          9     4     3               117.60000
   21*Torsion      D180        9     4     3     2         180.00000
   22 Stretch      R9         10     7                       1.10000
   23 Bend         A8         10     7     2               110.00000
   24 Torsion      D1         10     7     2     1         180.00000
   25 Stretch      R10        11     7                       1.10000
   26 Bend         A9         11     7     2               110.00000
   27 Torsion      D2         11     7     2     1          60.00000
   28 Stretch      R11        12     7                       1.10000
   29 Bend         A10        12     7     2               110.00000
   30 Torsion      D3         12     7     2     1         -60.00000
   31 Stretch      R12        13     9                       1.35000
   32 Bend         A11        13     9     4               110.00000
   33 Torsion      D4         13     9     4     5           0.00000
   34 Stretch      R13        14     9                       1.35000
   35 Bend         A12        14     9     4               110.00000
   36 Torsion      D5         14     9     4     5         120.00000
   37 Stretch      R14        15     9                       1.35000
   38 Bend         A13        15     9     4               110.00000
   39 Torsion      D6         15     9     4     5        -120.00000
 
 
            XYZ format geometry
            -------------------
    15
 geometry
 O                    -1.11100638    -2.46361400     0.00000000
 C                     0.16473346    -2.09115077     0.00000000
 C                     0.59099689    -0.79652013     0.00000000
 C                    -0.37768783     0.26896094     0.00000000
 O                    -1.61206627     0.07840688     0.00000000
 H                    -1.63296529    -1.61768557     0.00000000
 C                     1.10481497    -3.24070361     0.00000000
 H                     1.64630965    -0.57652243     0.00000000
 C                     0.13805703     1.67644389     0.00000000
 H                     2.14315063    -2.87757959     0.00000000
 H                     0.94289916    -3.85912144    -0.89517745
 H                     0.94289916    -3.85912144     0.89517745
 F                    -0.89421675     2.54645013     0.00000000
 F                     0.89248620     1.89174746     1.09862687
 F                     0.89248620     1.89174746    -1.09862687
 
 ==============================================================================
                                internuclear distances
 ------------------------------------------------------------------------------
       center one      |      center two      | atomic units |  angstroms
 ------------------------------------------------------------------------------
    2 C                |   1 O                |     2.51145  |     1.32900
    3 C                |   2 C                |     2.57570  |     1.36300
    4 C                |   3 C                |     2.72121  |     1.44000
    5 O                |   4 C                |     2.36027  |     1.24900
    6 H                |   1 O                |     1.87839  |     0.99400
    7 C                |   2 C                |     2.80624  |     1.48500
    8 H                |   3 C                |     2.03712  |     1.07800
    9 C                |   4 C                |     2.83270  |     1.49900
   10 H                |   7 C                |     2.07870  |     1.10000
   11 H                |   7 C                |     2.07870  |     1.10000
   12 H                |   7 C                |     2.07870  |     1.10000
   13 F                |   9 C                |     2.55113  |     1.35000
   14 F                |   9 C                |     2.55113  |     1.35000
   15 F                |   9 C                |     2.55113  |     1.35000
 ------------------------------------------------------------------------------
                         number of included internuclear distances:         14
 ==============================================================================



 ==============================================================================
                                 internuclear angles
 ------------------------------------------------------------------------------
        center 1       |       center 2       |       center 3       |  degrees
 ------------------------------------------------------------------------------
    2 C                |   1 O                |   6 H                |   105.40
    1 O                |   2 C                |   3 C                |   124.50
    1 O                |   2 C                |   7 C                |   113.00
    3 C                |   2 C                |   7 C                |   122.50
    2 C                |   3 C                |   4 C                |   119.50
    2 C                |   3 C                |   8 H                |   120.00
    4 C                |   3 C                |   8 H                |   120.50
    3 C                |   4 C                |   5 O                |   123.50
    3 C                |   4 C                |   9 C                |   117.60
    5 O                |   4 C                |   9 C                |   118.90
    2 C                |   7 C                |  10 H                |   110.00
    2 C                |   7 C                |  11 H                |   110.00
    2 C                |   7 C                |  12 H                |   110.00
   10 H                |   7 C                |  11 H                |   108.94
   10 H                |   7 C                |  12 H                |   108.94
   11 H                |   7 C                |  12 H                |   108.94
    4 C                |   9 C                |  13 F                |   110.00
    4 C                |   9 C                |  14 F                |   110.00
    4 C                |   9 C                |  15 F                |   110.00
   13 F                |   9 C                |  14 F                |   108.94
   13 F                |   9 C                |  15 F                |   108.94
   14 F                |   9 C                |  15 F                |   108.94
 ------------------------------------------------------------------------------
                            number of included internuclear angles:         22
 ==============================================================================





 Summary of "ao basis" -> "" (spherical)
 ------------------------------------------------------------------------------
       Tag                 Description            Shells   Functions and Types
 ---------------- ------------------------------  ------  ---------------------
 *                        aug-cc-pVDZ                 on all atoms 


 
  Deleted DRIVER restart files 
 
 
 
                           NWChem Geometry Optimization
                           ----------------------------
 
 
 
 
                                 Me,H,MeF Chelate
 
 
 maximum gradient threshold         (gmax) =   0.000015
 rms gradient threshold             (grms) =   0.000010
 maximum cartesian step threshold   (xmax) =   0.000060
 rms cartesian step threshold       (xrms) =   0.000040
 fixed trust radius                (trust) =   0.300000
 maximum step size to saddle      (sadstp) =   0.100000
 energy precision                  (eprec) =   1.0D-07
 maximum number of steps          (nptopt) =   99
 initial hessian option           (inhess) =    0
 line search option               (linopt) =    1
 hessian update option            (modupd) =    1
 saddle point option              (modsad) =    0
 initial eigen-mode to follow     (moddir) =    0
 initial variable to follow       (vardir) =    0
 follow first negative mode     (firstneg) =    T
 apply conjugacy                    (opcg) =    F
 source of zmatrix                         =   user    


          -------------------
          Energy Minimization
          -------------------

 
 Names of Z-matrix variables 
    1 R1           2 R2           3 A1           4 R3           5 A2      
    6 D0           7 R4           8 A3           9 D0          10 R5      
   11 A4          12 D0          13 R6          14 A5          15 D180    
   16 R7          17 A6          18 D180        19 R8          20 A7      
   21 D180        22 R9          23 A8          24 D1          25 R10     
   26 A9          27 D2          28 R11         29 A10         30 D3      
   31 R12         32 A11         33 D4          34 R13         35 A12     
   36 D5          37 R14         38 A13         39 D6      
 
 Variables with the same non-blank name are constrained to be equal
 
     variables named       D0 =     6    9   12 
     variables named     D180 =    15   18   21 

 Number of frozen variables =    6
           Frozen variables =    6    9   12   15   18   21
 
 Using diagonal initial Hessian 
 Scaling for Hessian diagonals: bonds = 1.00  angles = 0.25  torsions = 0.10

          --------
          Step   0
          --------
 
 
                         Geometry "geometry" -> "geometry"
                         ---------------------------------
 
 Output coordinates in angstroms (scale by  1.889725989 to convert to a.u.)
 
  No.       Tag          Charge          X              Y              Z
 ---- ---------------- ---------- -------------- -------------- --------------
    1 O                    8.0000    -1.11100638    -2.46361400     0.00000000
    2 C                    6.0000     0.16473346    -2.09115077     0.00000000
    3 C                    6.0000     0.59099689    -0.79652013     0.00000000
    4 C                    6.0000    -0.37768783     0.26896094     0.00000000
    5 O                    8.0000    -1.61206627     0.07840688     0.00000000
    6 H                    1.0000    -1.63296529    -1.61768557     0.00000000
    7 C                    6.0000     1.10481497    -3.24070361     0.00000000
    8 H                    1.0000     1.64630965    -0.57652243     0.00000000
    9 C                    6.0000     0.13805703     1.67644389     0.00000000
   10 H                    1.0000     2.14315063    -2.87757959     0.00000000
   11 H                    1.0000     0.94289916    -3.85912144    -0.89517745
   12 H                    1.0000     0.94289916    -3.85912144     0.89517745
   13 F                    9.0000    -0.89421675     2.54645013     0.00000000
   14 F                    9.0000     0.89248620     1.89174746     1.09862687
   15 F                    9.0000     0.89248620     1.89174746    -1.09862687
 
      Atomic Mass 
      ----------- 
 
      O                 15.994910
      C                 12.000000
      H                  1.007825
      F                 18.998400
 

 Effective nuclear repulsion energy (a.u.)     565.7929702544

            Nuclear Dipole moment (a.u.) 
            ----------------------------
        X                 Y               Z
 ---------------- ---------------- ----------------
     0.0000000000     0.0000000000     0.0000000000
 
      Symmetry information
      --------------------
 
 Group name             Cs        
 Group number              2
 Group order               2
 No. of unique centers    13
 
      Symmetry unique atoms
 
     1    2    3    4    5    6    7    8    9   10   11   13   14
 
                      Basis "ao basis" -> "ao basis" (spherical)
                      -----
  O (Oxygen)
  ----------
            Exponent  Coefficients 
       -------------- ---------------------------------------------------------
  1 S  1.17200000E+04  0.000710
  1 S  1.75900000E+03  0.005470
  1 S  4.00800000E+02  0.027837
  1 S  1.13700000E+02  0.104800
  1 S  3.70300000E+01  0.283062
  1 S  1.32700000E+01  0.448719
  1 S  5.02500000E+00  0.270952
  1 S  1.01300000E+00  0.015458
 
  2 S  1.17200000E+04 -0.000160
  2 S  1.75900000E+03 -0.001263
  2 S  4.00800000E+02 -0.006267
  2 S  1.13700000E+02 -0.025716
  2 S  3.70300000E+01 -0.070924
  2 S  1.32700000E+01 -0.165411
  2 S  5.02500000E+00 -0.116955
  2 S  1.01300000E+00  0.557368
 
  3 S  3.02300000E-01  1.000000
 
  4 S  7.89600000E-02  1.000000
 
  5 P  1.77000000E+01  0.043018
  5 P  3.85400000E+00  0.228913
  5 P  1.04600000E+00  0.508728
 
  6 P  2.75300000E-01  1.000000
 
  7 P  6.85600000E-02  1.000000
 
  8 D  1.18500000E+00  1.000000
 
  9 D  3.32000000E-01  1.000000
 
  C (Carbon)
  ----------
            Exponent  Coefficients 
       -------------- ---------------------------------------------------------
  1 S  6.66500000E+03  0.000692
  1 S  1.00000000E+03  0.005329
  1 S  2.28000000E+02  0.027077
  1 S  6.47100000E+01  0.101718
  1 S  2.10600000E+01  0.274740
  1 S  7.49500000E+00  0.448564
  1 S  2.79700000E+00  0.285074
  1 S  5.21500000E-01  0.015204
 
  2 S  6.66500000E+03 -0.000146
  2 S  1.00000000E+03 -0.001154
  2 S  2.28000000E+02 -0.005725
  2 S  6.47100000E+01 -0.023312
  2 S  2.10600000E+01 -0.063955
  2 S  7.49500000E+00 -0.149981
  2 S  2.79700000E+00 -0.127262
  2 S  5.21500000E-01  0.544529
 
  3 S  1.59600000E-01  1.000000
 
  4 S  4.69000000E-02  1.000000
 
  5 P  9.43900000E+00  0.038109
  5 P  2.00200000E+00  0.209480
  5 P  5.45600000E-01  0.508557
 
  6 P  1.51700000E-01  1.000000
 
  7 P  4.04100000E-02  1.000000
 
  8 D  5.50000000E-01  1.000000
 
  9 D  1.51000000E-01  1.000000
 
  H (Hydrogen)
  ------------
            Exponent  Coefficients 
       -------------- ---------------------------------------------------------
  1 S  1.30100000E+01  0.019685
  1 S  1.96200000E+00  0.137977
  1 S  4.44600000E-01  0.478148
 
  2 S  1.22000000E-01  1.000000
 
  3 S  2.97400000E-02  1.000000
 
  4 P  7.27000000E-01  1.000000
 
  5 P  1.41000000E-01  1.000000
 
  F (Fluorine)
  ------------
            Exponent  Coefficients 
       -------------- ---------------------------------------------------------
  1 S  1.47100000E+04  0.000721
  1 S  2.20700000E+03  0.005553
  1 S  5.02800000E+02  0.028267
  1 S  1.42600000E+02  0.106444
  1 S  4.64700000E+01  0.286814
  1 S  1.67000000E+01  0.448641
  1 S  6.35600000E+00  0.264761
  1 S  1.31600000E+00  0.015333
 
  2 S  1.47100000E+04 -0.000165
  2 S  2.20700000E+03 -0.001308
  2 S  5.02800000E+02 -0.006495
  2 S  1.42600000E+02 -0.026691
  2 S  4.64700000E+01 -0.073690
  2 S  1.67000000E+01 -0.170776
  2 S  6.35600000E+00 -0.112327
  2 S  1.31600000E+00  0.562814
 
  3 S  3.89700000E-01  1.000000
 
  4 S  9.86300000E-02  1.000000
 
  5 P  2.26700000E+01  0.044878
  5 P  4.97700000E+00  0.235718
  5 P  1.34700000E+00  0.508521
 
  6 P  3.47100000E-01  1.000000
 
  7 P  8.50200000E-02  1.000000
 
  8 D  1.64000000E+00  1.000000
 
  9 D  4.64000000E-01  1.000000
 


 Summary of "ao basis" -> "ao basis" (spherical)
 ------------------------------------------------------------------------------
       Tag                 Description            Shells   Functions and Types
 ---------------- ------------------------------  ------  ---------------------
 O                        aug-cc-pVDZ                9       23   4s3p2d
 C                        aug-cc-pVDZ                9       23   4s3p2d
 H                        aug-cc-pVDZ                5        9   3s2p
 F                        aug-cc-pVDZ                9       23   4s3p2d


                                 NWChem SCF Module
                                 -----------------
 
 
                                 Me,H,MeF Chelate
 
 

  ao basis        = "ao basis"
  functions       =   275
  atoms           =    15
  closed shells   =    39
  open shells     =     0
  charge          =   0.00
  wavefunction    = RHF 
  input vectors   = atomic
  output vectors  = ./5C.movecs
  use symmetry    = T
  symmetry adapt  = T


 Summary of "ao basis" -> "ao basis" (spherical)
 ------------------------------------------------------------------------------
       Tag                 Description            Shells   Functions and Types
 ---------------- ------------------------------  ------  ---------------------
 O                        aug-cc-pVDZ                9       23   4s3p2d
 C                        aug-cc-pVDZ                9       23   4s3p2d
 H                        aug-cc-pVDZ                5        9   3s2p
 F                        aug-cc-pVDZ                9       23   4s3p2d


      Symmetry analysis of basis
      --------------------------
 
        a'        181
        a"         94
 

int_init: setting std/high accuracies to  1.0D-16  1.0D-32

 Forming initial guess at       0.3s


 Forcing the number of linearly dependent vectors to be  0
 
      Superposition of Atomic Density Guess
      -------------------------------------
 
 Sum of atomic energies:        -638.53116575
 
      Non-variational initial energy
      ------------------------------

 Total energy =    -643.239074
 1-e energy   =   -2004.728059
 2-e energy   =     795.696014
 HOMO         =      -0.301308
 LUMO         =      -0.064094
 
 
      Symmetry analysis of molecular orbitals - initial
      -------------------------------------------------
 
  Numbering of irreducible representations: 
 
     1 a'          2 a"      
 
  Orbital symmetries:
 
     1 a'          2 a"          3 a'          4 a'          5 a'      
     6 a'          7 a'          8 a'          9 a'         10 a'      
    11 a'         12 a'         13 a'         14 a"         15 a'      
    16 a'         17 a'         18 a'         19 a'         20 a'      
    21 a"         22 a'         23 a'         24 a'         25 a'      
    26 a"         27 a'         28 a"         29 a"         30 a'      
    31 a"         32 a"         33 a'         34 a'         35 a'      
    36 a"         37 a'         38 a'         39 a"         40 a"      
    41 a'         42 a'         43 a'         44 a"         45 a'      
    46 a'         47 a"         48 a'         49 a"      
 

 Starting SCF solution at       6.7s



 ----------------------------------------------
         Quadratically convergent ROHF

 Convergence threshold     :          1.000E-09
 Maximum no. of iterations :           99
 Final Fock-matrix accuracy:          1.000E-15
 ----------------------------------------------

 Warning: symmetry breaking in RHF:   1.029658063763542E-011

              iter       energy          gnorm     gmax       time
             ----- ------------------- --------- --------- --------
                 1     -640.1139377583  2.13D+00  2.69D-01     13.8
 Warning: symmetry breaking in RHF:   9.711701720593879E-010
 Warning: symmetry breaking in RHF:   6.220240156284973E-010
                 2     -640.3417275877  5.86D-01  6.70D-02     28.4
 Warning: symmetry breaking in RHF:   7.373435473301271E-010
                 3     -640.3742773037  5.83D-02  9.27D-03     47.8
 Warning: symmetry breaking in RHF:   7.195262441417327E-010
                 4     -640.3747891931  1.99D-03  4.77D-04     78.7
 Warning: symmetry breaking in RHF:   7.196493401195880E-010
                 5     -640.3747900342  2.43D-06  6.32D-07    130.0
 Warning: symmetry breaking in RHF:   7.196494233863149E-010
                 6     -640.3747900342  1.71D-10  2.54D-11    198.2


       Final RHF  results 
       ------------------ 

         Total SCF energy =   -640.374790034152
      One-electron energy =  -2007.774997479549
      Two-electron energy =    801.607237190961
 Nuclear repulsion energy =    565.792970254437

        Time for solution =    191.7s


 
       Symmetry analysis of molecular orbitals - final
       -----------------------------------------------
 
  Numbering of irreducible representations: 
 
     1 a'          2 a"      
 
  Orbital symmetries:
 
     1 a"          2 a'          3 a'          4 a'          5 a'      
     6 a'          7 a'          8 a'          9 a'         10 a'      
    11 a'         12 a"         13 a'         14 a'         15 a'      
    16 a'         17 a'         18 a'         19 a'         20 a'      
    21 a"         22 a'         23 a'         24 a"         25 a'      
    26 a'         27 a'         28 a"         29 a'         30 a"      
    31 a"         32 a'         33 a'         34 a'         35 a"      
    36 a'         37 a"         38 a'         39 a"         40 a'      
    41 a'         42 a"         43 a'         44 a"         45 a'      
    46 a'         47 a'         48 a"         49 a'      
 
             Final eigenvalues
             -----------------

              1      
    1  -26.3729
    2  -26.3729
    3  -26.3599
    4  -20.6265
    5  -20.5940
    6  -11.5372
    7  -11.3856
    8  -11.3724
    9  -11.2674
   10  -11.2514
   11   -1.7449
   12   -1.6583
   13   -1.6490
   14   -1.4558
   15   -1.4111
   16   -1.1148
   17   -1.0553
   18   -0.9994
   19   -0.8980
   20   -0.8442
   21   -0.8389
   22   -0.8248
   23   -0.7768
   24   -0.7257
   25   -0.7254
   26   -0.7167
   27   -0.6867
   28   -0.6822
   29   -0.6714
   30   -0.6633
   31   -0.6453
   32   -0.6280
   33   -0.6064
   34   -0.5766
   35   -0.5753
   36   -0.5721
   37   -0.5507
   38   -0.4652
   39   -0.3775
   40    0.0276
   41    0.0458
   42    0.0484
   43    0.0527
   44    0.0615
   45    0.0719
   46    0.0791
   47    0.1004
   48    0.1031
   49    0.1152
 
                       ROHF Final Molecular Orbital Analysis
                       -------------------------------------
 
 Vector   14  Occ=2.000000D+00  E=-1.455767D+00  Symmetry=a'
              MO Center= -9.4D-01, -2.0D+00,  4.4D-15, r^2= 1.3D+00
   Bfn.  Coefficient  Atom+Function         Bfn.  Coefficient  Atom+Function  
  ----- ------------  ---------------      ----- ------------  ---------------
     3      0.447564   1 O  s                 2      0.375966   1 O  s         
    27     -0.281782   2 C  s                95      0.167053   5 O  s         
   116      0.159423   6 H  s                25      0.155136   2 C  s         
 
 Vector   15  Occ=2.000000D+00  E=-1.411144D+00  Symmetry=a'
              MO Center= -1.2D+00, -2.0D-01, -2.7D-19, r^2= 1.4D+00
   Bfn.  Coefficient  Atom+Function         Bfn.  Coefficient  Atom+Function  
  ----- ------------  ---------------      ----- ------------  ---------------
    95      0.433315   5 O  s                94      0.366845   5 O  s         
    73     -0.222682   4 C  s                71      0.203509   4 C  s         
    72      0.201194   4 C  s                 3     -0.198657   1 O  s         
     2     -0.160960   1 O  s                74     -0.153812   4 C  px        
 
 Vector   16  Occ=2.000000D+00  E=-1.114797D+00  Symmetry=a'
              MO Center=  3.0D-01, -1.2D+00, -8.7D-19, r^2= 2.8D+00
   Bfn.  Coefficient  Atom+Function         Bfn.  Coefficient  Atom+Function  
  ----- ------------  ---------------      ----- ------------  ---------------
    50      0.352037   3 C  s                49     -0.301790   3 C  s         
    48     -0.254069   3 C  s                73     -0.248571   4 C  s         
    25     -0.212146   2 C  s               128     -0.175809   7 C  s         
    26     -0.173861   2 C  s                54      0.155680   3 C  px        
   126     -0.150222   7 C  s         
 
 Vector   17  Occ=2.000000D+00  E=-1.055288D+00  Symmetry=a'
              MO Center=  3.0D-01, -2.4D-01,  4.0D-13, r^2= 5.8D+00
   Bfn.  Coefficient  Atom+Function         Bfn.  Coefficient  Atom+Function  
  ----- ------------  ---------------      ----- ------------  ---------------
   160      0.336591   9 C  s               158     -0.248297   9 C  s         
    73     -0.222764   4 C  s               126      0.198066   7 C  s         
    71     -0.156547   4 C  s         
 
 Vector   18  Occ=2.000000D+00  E=-9.994248D-01  Symmetry=a'
              MO Center=  4.5D-01, -8.7D-01,  6.5D-13, r^2= 5.9D+00
   Bfn.  Coefficient  Atom+Function         Bfn.  Coefficient  Atom+Function  
  ----- ------------  ---------------      ----- ------------  ---------------
   160      0.307913   9 C  s                32      0.228640   2 C  py        
   126     -0.228455   7 C  s               158     -0.205793   9 C  s         
    48      0.201235   3 C  s                29      0.193271   2 C  py        
    75     -0.158986   4 C  py        
 
 Vector   19  Occ=2.000000D+00  E=-8.979673D-01  Symmetry=a'
              MO Center=  2.1D-01,  1.0D+00, -3.4D-13, r^2= 4.3D+00
   Bfn.  Coefficient  Atom+Function         Bfn.  Coefficient  Atom+Function  
  ----- ------------  ---------------      ----- ------------  ---------------
   160      0.364304   9 C  s               162     -0.262848   9 C  py        
    72      0.235639   4 C  s               211     -0.230643  13 F  px        
   236      0.198403  14 F  pz              259     -0.198403  15 F  pz        
    73     -0.168758   4 C  s               214     -0.154592  13 F  px        
 
 Vector   20  Occ=2.000000D+00  E=-8.441927D-01  Symmetry=a'
              MO Center= -2.9D-03,  4.4D-01,  5.6D-17, r^2= 6.6D+00
   Bfn.  Coefficient  Atom+Function         Bfn.  Coefficient  Atom+Function  
  ----- ------------  ---------------      ----- ------------  ---------------
    26      0.340301   2 C  s                78      0.324791   4 C  py        
    55      0.287061   3 C  py              161     -0.246356   9 C  px        
   212     -0.237787  13 F  py              159     -0.221716   9 C  s         
   236      0.217492  14 F  pz              259     -0.217492  15 F  pz        
     5      0.192891   1 O  px               27     -0.192853   2 C  s         
 
 Vector   21  Occ=2.000000D+00  E=-8.389073D-01  Symmetry=a"
              MO Center=  5.1D-01,  1.9D+00,  4.3D-14, r^2= 1.9D+00
   Bfn.  Coefficient  Atom+Function         Bfn.  Coefficient  Atom+Function  
  ----- ------------  ---------------      ----- ------------  ---------------
   163      0.317553   9 C  pz              234     -0.297286  14 F  px        
   257      0.297286  15 F  px              213      0.247387  13 F  pz        
   237     -0.187124  14 F  px              260      0.187124  15 F  px        
   236     -0.178483  14 F  pz              259     -0.178483  15 F  pz        
   216      0.167371  13 F  pz        
 
 Vector   22  Occ=2.000000D+00  E=-8.248363D-01  Symmetry=a'
              MO Center= -1.8D-01, -4.5D-01,  1.4D-17, r^2= 7.2D+00
   Bfn.  Coefficient  Atom+Function         Bfn.  Coefficient  Atom+Function  
  ----- ------------  ---------------      ----- ------------  ---------------
     5      0.281918   1 O  px              211     -0.202120  13 F  px        
    26      0.200507   2 C  s               116     -0.197996   6 H  s         
    50     -0.183101   3 C  s                49     -0.171114   3 C  s         
   161      0.167708   9 C  px               25      0.154997   2 C  s         
 
 Vector   23  Occ=2.000000D+00  E=-7.768250D-01  Symmetry=a'
              MO Center= -2.3D-01, -7.5D-02,  2.5D-13, r^2= 4.6D+00
   Bfn.  Coefficient  Atom+Function         Bfn.  Coefficient  Atom+Function  
  ----- ------------  ---------------      ----- ------------  ---------------
    32      0.353160   2 C  py               55      0.305427   3 C  py        
    72     -0.256205   4 C  s                73      0.236670   4 C  s         
    78      0.227048   4 C  py              128     -0.216144   7 C  s         
    26      0.209544   2 C  s                52     -0.201969   3 C  py        
    97     -0.191987   5 O  px               71     -0.187459   4 C  s         
 
 Vector   24  Occ=2.000000D+00  E=-7.257478D-01  Symmetry=a"
              MO Center=  5.2D-01,  2.0D+00,  3.4D-13, r^2= 2.0D+00
   Bfn.  Coefficient  Atom+Function         Bfn.  Coefficient  Atom+Function  
  ----- ------------  ---------------      ----- ------------  ---------------
   235      0.410460  14 F  py              258     -0.410460  15 F  py        
   238      0.286290  14 F  py              261     -0.286290  15 F  py        
   213      0.282617  13 F  pz              216      0.196240  13 F  pz        
 
 Vector   25  Occ=2.000000D+00  E=-7.254369D-01  Symmetry=a'
              MO Center=  3.2D-01,  1.7D+00,  5.2D-15, r^2= 3.2D+00
   Bfn.  Coefficient  Atom+Function         Bfn.  Coefficient  Atom+Function  
  ----- ------------  ---------------      ----- ------------  ---------------
   234     -0.318326  14 F  px              257     -0.318326  15 F  px        
   212      0.300631  13 F  py               50      0.242784   3 C  s         
   237     -0.220509  14 F  px              260     -0.220509  15 F  px        
    73     -0.215703   4 C  s               215      0.201641  13 F  py        
   235     -0.153183  14 F  py              258     -0.153183  15 F  py        
 
 Vector   26  Occ=2.000000D+00  E=-7.166638D-01  Symmetry=a'
              MO Center= -8.5D-02, -9.6D-01, -4.1D-13, r^2= 4.0D+00
   Bfn.  Coefficient  Atom+Function         Bfn.  Coefficient  Atom+Function  
  ----- ------------  ---------------      ----- ------------  ---------------
    50      0.477251   3 C  s               149     -0.407842   8 H  s         
    27     -0.328124   2 C  s                73     -0.294943   4 C  s         
     6      0.284976   1 O  py              148     -0.269992   8 H  s         
    51     -0.229579   3 C  px               72      0.209283   4 C  s         
     9      0.180682   1 O  py               97      0.181222   5 O  px        
 
 Vector   27  Occ=2.000000D+00  E=-6.867339D-01  Symmetry=a'
              MO Center= -3.0D-01,  5.4D-01, -4.3D-13, r^2= 5.4D+00
   Bfn.  Coefficient  Atom+Function         Bfn.  Coefficient  Atom+Function  
  ----- ------------  ---------------      ----- ------------  ---------------
   211      0.231249  13 F  px               97     -0.201851   5 O  px        
   160     -0.202099   9 C  s                32     -0.193863   2 C  py        
   235     -0.193497  14 F  py              258     -0.193497  15 F  py        
   234      0.180188  14 F  px              257      0.180188  15 F  px        
    55     -0.179275   3 C  py               26     -0.171598   2 C  s         
 
 Vector   28  Occ=2.000000D+00  E=-6.822425D-01  Symmetry=a"
              MO Center=  5.9D-01,  1.9D+00, -5.7D-13, r^2= 2.1D+00
   Bfn.  Coefficient  Atom+Function         Bfn.  Coefficient  Atom+Function  
  ----- ------------  ---------------      ----- ------------  ---------------
   236      0.391954  14 F  pz              259      0.391954  15 F  pz        
   239      0.260613  14 F  pz              262      0.260613  15 F  pz        
   213      0.247382  13 F  pz              216      0.174003  13 F  pz        
   235     -0.164070  14 F  py              258      0.164070  15 F  py        
 
 Vector   29  Occ=2.000000D+00  E=-6.713733D-01  Symmetry=a'
              MO Center= -4.0D-01,  1.2D+00, -3.8D-13, r^2= 4.7D+00
   Bfn.  Coefficient  Atom+Function         Bfn.  Coefficient  Atom+Function  
  ----- ------------  ---------------      ----- ------------  ---------------
    50      0.398365   3 C  s               211      0.365584  13 F  px        
    49     -0.285729   3 C  s                73     -0.253705   4 C  s         
   214      0.249135  13 F  px              212      0.241778  13 F  py        
    97      0.215779   5 O  px               27     -0.207229   2 C  s         
    54      0.192981   3 C  px              235     -0.188806  14 F  py        
 
 Vector   30  Occ=2.000000D+00  E=-6.633130D-01  Symmetry=a"
              MO Center=  1.4D-02,  2.2D+00, -2.8D-13, r^2= 2.0D+00
   Bfn.  Coefficient  Atom+Function         Bfn.  Coefficient  Atom+Function  
  ----- ------------  ---------------      ----- ------------  ---------------
   213      0.485442  13 F  pz              216      0.337825  13 F  pz        
   234      0.303932  14 F  px              257     -0.303932  15 F  px        
   237      0.210344  14 F  px              260     -0.210344  15 F  px        
 
 Vector   31  Occ=2.000000D+00  E=-6.453384D-01  Symmetry=a"
              MO Center=  1.9D-02, -2.5D+00,  4.5D-14, r^2= 2.8D+00
   Bfn.  Coefficient  Atom+Function         Bfn.  Coefficient  Atom+Function  
  ----- ------------  ---------------      ----- ------------  ---------------
     7      0.353862   1 O  pz              131      0.265494   7 C  pz        
    10      0.263086   1 O  pz               30      0.225389   2 C  pz        
   189     -0.183861  11 H  s               198      0.183861  12 H  s         
 
 Vector   32  Occ=2.000000D+00  E=-6.279967D-01  Symmetry=a'
              MO Center= -4.8D-01,  6.4D-01, -6.7D-13, r^2= 4.7D+00
   Bfn.  Coefficient  Atom+Function         Bfn.  Coefficient  Atom+Function  
  ----- ------------  ---------------      ----- ------------  ---------------
   159      0.360838   9 C  s               212      0.289258  13 F  py        
    75      0.255500   4 C  py              165     -0.256639   9 C  py        
     6      0.228791   1 O  py               97     -0.216370   5 O  px        
   215      0.210282  13 F  py               73     -0.198303   4 C  s         
   235      0.195871  14 F  py              258      0.195871  15 F  py        
 
 Vector   33  Occ=2.000000D+00  E=-6.063741D-01  Symmetry=a'
              MO Center=  3.7D-01, -1.8D+00, -1.1D-12, r^2= 4.0D+00
   Bfn.  Coefficient  Atom+Function         Bfn.  Coefficient  Atom+Function  
  ----- ------------  ---------------      ----- ------------  ---------------
    50      0.352027   3 C  s                73     -0.304480   4 C  s         
   149     -0.291242   8 H  s                28      0.261016   2 C  px        
   129     -0.213680   7 C  px              130      0.209534   7 C  py        
     5     -0.198331   1 O  px              148     -0.196790   8 H  s         
    74      0.180760   4 C  px               27     -0.174185   2 C  s         
 
 Vector   34  Occ=2.000000D+00  E=-5.765674D-01  Symmetry=a'
              MO Center=  1.2D+00, -3.0D+00,  3.1D-13, r^2= 2.4D+00
   Bfn.  Coefficient  Atom+Function         Bfn.  Coefficient  Atom+Function  
  ----- ------------  ---------------      ----- ------------  ---------------
    55      0.467147   3 C  py               32      0.391065   2 C  py        
   180      0.351059  10 H  s               129      0.294580   7 C  px        
   130      0.286333   7 C  py              181      0.277101  10 H  s         
    72     -0.252149   4 C  s                26      0.242909   2 C  s         
    78      0.234065   4 C  py              128     -0.203756   7 C  s         
 
 Vector   35  Occ=2.000000D+00  E=-5.752851D-01  Symmetry=a"
              MO Center= -1.7D-01, -1.7D+00,  3.2D-13, r^2= 5.4D+00
   Bfn.  Coefficient  Atom+Function         Bfn.  Coefficient  Atom+Function  
  ----- ------------  ---------------      ----- ------------  ---------------
    99      0.315895   5 O  pz              131     -0.283295   7 C  pz        
   102      0.243822   5 O  pz               76      0.218095   4 C  pz        
   189      0.213521  11 H  s               198     -0.213521  12 H  s         
     7      0.190766   1 O  pz               10      0.150185   1 O  pz        
 
 Vector   36  Occ=2.000000D+00  E=-5.721366D-01  Symmetry=a'
              MO Center= -1.5D-01, -1.6D+00,  3.9D-16, r^2= 3.5D+00
   Bfn.  Coefficient  Atom+Function         Bfn.  Coefficient  Atom+Function  
  ----- ------------  ---------------      ----- ------------  ---------------
    49      0.378868   3 C  s                 6     -0.331249   1 O  py        
    54     -0.296546   3 C  px               29      0.275600   2 C  py        
   149     -0.250847   8 H  s                51     -0.245058   3 C  px        
   148     -0.223475   8 H  s                 9     -0.215495   1 O  py        
   128      0.199385   7 C  s                46      0.180850   2 C  d  2      
 
 Vector   37  Occ=2.000000D+00  E=-5.507145D-01  Symmetry=a"
              MO Center= -7.4D-01, -1.4D+00, -6.2D-14, r^2= 3.9D+00
   Bfn.  Coefficient  Atom+Function         Bfn.  Coefficient  Atom+Function  
  ----- ------------  ---------------      ----- ------------  ---------------
     7      0.389416   1 O  pz               99     -0.325292   5 O  pz        
    10      0.303084   1 O  pz              102     -0.250725   5 O  pz        
    76     -0.216749   4 C  pz              131     -0.180433   7 C  pz        
 
 Vector   38  Occ=2.000000D+00  E=-4.652326D-01  Symmetry=a'
              MO Center= -8.8D-01, -1.8D-01,  4.6D-13, r^2= 3.0D+00
   Bfn.  Coefficient  Atom+Function         Bfn.  Coefficient  Atom+Function  
  ----- ------------  ---------------      ----- ------------  ---------------
    98      0.496256   5 O  py              101      0.408726   5 O  py        
    27      0.374060   2 C  s                50     -0.317147   3 C  s         
   159     -0.220240   9 C  s               162      0.198716   9 C  py        
   128     -0.188074   7 C  s                 6      0.178851   1 O  py        
    52      0.174018   3 C  py               75     -0.174692   4 C  py        
 
 Vector   39  Occ=2.000000D+00  E=-3.774664D-01  Symmetry=a"
              MO Center=  4.9D-02, -1.1D+00,  3.4D-13, r^2= 2.6D+00
   Bfn.  Coefficient  Atom+Function         Bfn.  Coefficient  Atom+Function  
  ----- ------------  ---------------      ----- ------------  ---------------
    53      0.418693   3 C  pz               56      0.316628   3 C  pz        
    99     -0.240437   5 O  pz               30      0.225734   2 C  pz        
     7     -0.221454   1 O  pz              102     -0.190532   5 O  pz        
    10     -0.176950   1 O  pz               33      0.155527   2 C  pz        
 
 Vector   40  Occ=0.000000D+00  E= 2.761830D-02  Symmetry=a'
              MO Center=  2.1D+00, -3.4D+00,  3.4D-16, r^2= 1.8D+01
   Bfn.  Coefficient  Atom+Function         Bfn.  Coefficient  Atom+Function  
  ----- ------------  ---------------      ----- ------------  ---------------
   160      7.226156   9 C  s                35     -5.522254   2 C  py        
    81     -4.761115   4 C  py              128     -2.941805   7 C  s         
   182     -2.652403  10 H  s                50      2.601293   3 C  s         
    58     -1.913347   3 C  py              135      1.755181   7 C  px        
    73      1.660866   4 C  s               191     -1.299389  11 H  s         
 
 Vector   41  Occ=0.000000D+00  E= 4.578391D-02  Symmetry=a'
              MO Center=  2.6D+00, -2.2D+00, -4.6D-15, r^2= 2.3D+01
   Bfn.  Coefficient  Atom+Function         Bfn.  Coefficient  Atom+Function  
  ----- ------------  ---------------      ----- ------------  ---------------
    50     12.140839   3 C  s                27     -6.578169   2 C  s         
    73     -6.559666   4 C  s                35     -6.208740   2 C  py        
   150      6.205121   8 H  s                57     -5.697696   3 C  px        
   128     -3.494900   7 C  s                34      2.623230   2 C  px        
   191     -2.441679  11 H  s               200     -2.441679  12 H  s         
 
 Vector   42  Occ=0.000000D+00  E= 4.842804D-02  Symmetry=a"
              MO Center=  5.8D-01, -3.5D+00,  1.4D-13, r^2= 1.7D+01
   Bfn.  Coefficient  Atom+Function         Bfn.  Coefficient  Atom+Function  
  ----- ------------  ---------------      ----- ------------  ---------------
   191      3.732957  11 H  s               200     -3.732957  12 H  s         
   137      1.622751   7 C  pz               59     -0.631796   3 C  pz        
   190      0.591745  11 H  s               199     -0.591745  12 H  s         
   134      0.367118   7 C  pz               36      0.329794   2 C  pz        
    30      0.201173   2 C  pz               82      0.202098   4 C  pz        
 
 Vector   43  Occ=0.000000D+00  E= 5.267785D-02  Symmetry=a'
              MO Center= -2.8D-01, -2.1D+00,  2.2D-13, r^2= 2.7D+01
   Bfn.  Coefficient  Atom+Function         Bfn.  Coefficient  Atom+Function  
  ----- ------------  ---------------      ----- ------------  ---------------
    27     11.564822   2 C  s                50    -10.879355   3 C  s         
   160      6.063197   9 C  s               182      4.840703  10 H  s         
   150     -4.347161   8 H  s                81     -4.000482   4 C  py        
    57      3.812501   3 C  px               35      3.271696   2 C  py        
   118     -3.246779   6 H  s                58      2.552643   3 C  py        
 
 Vector   44  Occ=0.000000D+00  E= 6.147258D-02  Symmetry=a"
              MO Center= -2.5D-02, -1.6D+00, -3.7D-13, r^2= 1.1D+01
   Bfn.  Coefficient  Atom+Function         Bfn.  Coefficient  Atom+Function  
  ----- ------------  ---------------      ----- ------------  ---------------
   191      2.404340  11 H  s               200     -2.404340  12 H  s         
   137      1.263538   7 C  pz               36     -0.460312   2 C  pz        
    82      0.451042   4 C  pz               79      0.358912   4 C  pz        
    76      0.319994   4 C  pz               33     -0.309675   2 C  pz        
   105     -0.276711   5 O  pz               30     -0.265374   2 C  pz        
 
 Vector   45  Occ=0.000000D+00  E= 7.193533D-02  Symmetry=a'
              MO Center=  5.6D-02, -1.2D+00,  1.1D-13, r^2= 3.1D+01
   Bfn.  Coefficient  Atom+Function         Bfn.  Coefficient  Atom+Function  
  ----- ------------  ---------------      ----- ------------  ---------------
    73     10.532531   4 C  s               160    -10.111788   9 C  s         
   128      6.257536   7 C  s               182     -5.471318  10 H  s         
    34     -4.595118   2 C  px               81      4.208342   4 C  py        
   118     -3.642902   6 H  s               150      3.321406   8 H  s         
    27     -3.243994   2 C  s                35      3.247697   2 C  py        
 
 Vector   46  Occ=0.000000D+00  E= 7.910417D-02  Symmetry=a'
              MO Center=  5.8D-01,  1.6D+00,  2.0D-13, r^2= 2.7D+01
   Bfn.  Coefficient  Atom+Function         Bfn.  Coefficient  Atom+Function  
  ----- ------------  ---------------      ----- ------------  ---------------
   160     26.536122   9 C  s                27    -18.154802   2 C  s         
    73    -15.729081   4 C  s                50     15.621351   3 C  s         
    35    -12.345483   2 C  py               81    -11.739263   4 C  py        
   128     -9.300603   7 C  s                58     -6.872439   3 C  py        
   150      6.320150   8 H  s               168     -5.681393   9 C  py        
 
 Vector   47  Occ=0.000000D+00  E= 1.004360D-01  Symmetry=a'
              MO Center=  1.1D-01, -1.0D+00,  7.8D-13, r^2= 2.4D+01
   Bfn.  Coefficient  Atom+Function         Bfn.  Coefficient  Atom+Function  
  ----- ------------  ---------------      ----- ------------  ---------------
   128     22.456178   7 C  s                73    -14.185704   4 C  s         
    35     12.501741   2 C  py               58      7.812078   3 C  py        
    27     -7.199142   2 C  s               136      6.250361   7 C  py        
    34     -4.867449   2 C  px              135     -4.424398   7 C  px        
    50     -4.002556   3 C  s               182      2.870090  10 H  s         
 
 Vector   48  Occ=0.000000D+00  E= 1.031217D-01  Symmetry=a"
              MO Center=  2.5D-01,  1.5D+00,  9.5D-13, r^2= 1.7D+01
   Bfn.  Coefficient  Atom+Function         Bfn.  Coefficient  Atom+Function  
  ----- ------------  ---------------      ----- ------------  ---------------
   169      2.778137   9 C  pz               36      1.395379   2 C  pz        
   233     -1.204602  14 F  s               256      1.204602  15 F  s         
   191      1.016051  11 H  s               200     -1.016051  12 H  s         
    82     -0.662444   4 C  pz               59     -0.627165   3 C  pz        
   166      0.581421   9 C  pz              219     -0.458638  13 F  pz        
 
 Vector   49  Occ=0.000000D+00  E= 1.152039D-01  Symmetry=a'
              MO Center=  1.8D-01, -1.1D+00,  1.4D-13, r^2= 2.8D+01
   Bfn.  Coefficient  Atom+Function         Bfn.  Coefficient  Atom+Function  
  ----- ------------  ---------------      ----- ------------  ---------------
    73     22.453790   4 C  s               160    -14.684761   9 C  s         
   128     13.523143   7 C  s                27    -11.836823   2 C  s         
    50     -8.582797   3 C  s                34     -6.987200   2 C  px        
    80      6.356915   4 C  px               35      5.334427   2 C  py        
   150     -5.095341   8 H  s               182      4.424843  10 H  s         
 
 Vector   50  Occ=0.000000D+00  E= 1.163956D-01  Symmetry=a"
              MO Center=  9.3D-01, -1.6D+00,  5.6D-12, r^2= 1.6D+01
   Bfn.  Coefficient  Atom+Function         Bfn.  Coefficient  Atom+Function  
  ----- ------------  ---------------      ----- ------------  ---------------
    36      4.239573   2 C  pz               59     -3.827371   3 C  pz        
   137     -2.719866   7 C  pz               82      2.347959   4 C  pz        
   191     -1.400867  11 H  s               200      1.400867  12 H  s         
   190     -0.911328  11 H  s               199      0.911328  12 H  s         
    13     -0.722101   1 O  pz              169     -0.608418   9 C  pz        
 
 Vector   51  Occ=0.000000D+00  E= 1.295694D-01  Symmetry=a'
              MO Center=  2.2D-01,  2.8D-01, -7.1D-13, r^2= 2.4D+01
   Bfn.  Coefficient  Atom+Function         Bfn.  Coefficient  Atom+Function  
  ----- ------------  ---------------      ----- ------------  ---------------
    35     13.456417   2 C  py              128     13.122170   7 C  s         
    50    -10.791799   3 C  s                81      6.499412   4 C  py        
   160     -6.301902   9 C  s               167      3.832411   9 C  px        
   150     -3.521771   8 H  s                34     -3.081133   2 C  px        
   182      2.990826  10 H  s               135     -2.846779   7 C  px        
 
 Vector   52  Occ=0.000000D+00  E= 1.408357D-01  Symmetry=a'
              MO Center=  1.4D+00, -1.8D+00, -2.1D-12, r^2= 2.4D+01
   Bfn.  Coefficient  Atom+Function         Bfn.  Coefficient  Atom+Function  
  ----- ------------  ---------------      ----- ------------  ---------------
    50     33.431092   3 C  s                27    -28.726904   2 C  s         
    73    -23.717801   4 C  s                81     15.622367   4 C  py        
   128     13.551964   7 C  s               160    -10.457456   9 C  s         
    57     -7.551278   3 C  px               34     -6.598157   2 C  px        
   182      6.214938  10 H  s                35      5.730046   2 C  py        
 
 Vector   53  Occ=0.000000D+00  E= 1.410961D-01  Symmetry=a"
              MO Center=  3.4D-01, -5.3D-01,  7.9D-13, r^2= 2.0D+01
   Bfn.  Coefficient  Atom+Function         Bfn.  Coefficient  Atom+Function  
  ----- ------------  ---------------      ----- ------------  ---------------
    82      3.760557   4 C  pz              169     -3.297249   9 C  pz        
   191      3.289450  11 H  s               200     -3.289450  12 H  s         
   137      2.701487   7 C  pz              190      1.413923  11 H  s         
   199     -1.413923  12 H  s               105     -0.655658   5 O  pz        
   134      0.628500   7 C  pz               36     -0.565239   2 C  pz        
 
 Vector   54  Occ=0.000000D+00  E= 1.500887D-01  Symmetry=a'
              MO Center= -5.9D-01, -1.6D+00, -6.0D-12, r^2= 2.2D+01
   Bfn.  Coefficient  Atom+Function         Bfn.  Coefficient  Atom+Function  
  ----- ------------  ---------------      ----- ------------  ---------------
    50     24.716505   3 C  s                27    -18.869805   2 C  s         
    73    -10.605453   4 C  s               128     10.259221   7 C  s         
    34     -9.282497   2 C  px              160      8.051184   9 C  s         
    58     -7.350855   3 C  py               80     -5.787394   4 C  px        
   118     -5.125097   6 H  s                 4     -3.968622   1 O  s         
 
 Vector   55  Occ=0.000000D+00  E= 1.557573D-01  Symmetry=a'
              MO Center=  5.1D-01, -1.1D+00,  1.1D-12, r^2= 2.3D+01
   Bfn.  Coefficient  Atom+Function         Bfn.  Coefficient  Atom+Function  
  ----- ------------  ---------------      ----- ------------  ---------------
    50     40.583008   3 C  s                73    -26.420286   4 C  s         
    35    -23.889445   2 C  py              128    -17.868785   7 C  s         
    27    -14.911085   2 C  s               160     14.206813   9 C  s         
    57    -12.628392   3 C  px               34     11.334217   2 C  px        
    80    -10.108876   4 C  px              150      8.048622   8 H  s         
 
 Vector   56  Occ=0.000000D+00  E= 1.579511D-01  Symmetry=a'
              MO Center=  1.4D+00, -1.5D+00, -4.4D-13, r^2= 2.3D+01
   Bfn.  Coefficient  Atom+Function         Bfn.  Coefficient  Atom+Function  
  ----- ------------  ---------------      ----- ------------  ---------------
    50     15.515283   3 C  s                35    -12.700991   2 C  py        
    57    -11.008280   3 C  px              128    -10.723613   7 C  s         
   150     10.392308   8 H  s                27     -8.894023   2 C  s         
    73     -6.462338   4 C  s                34      6.218398   2 C  px        
    58     -5.836537   3 C  py               80      5.244473   4 C  px        
 
 Vector   57  Occ=0.000000D+00  E= 1.699092D-01  Symmetry=a"
              MO Center=  4.1D-01, -1.4D+00,  2.0D-13, r^2= 1.9D+01
   Bfn.  Coefficient  Atom+Function         Bfn.  Coefficient  Atom+Function  
  ----- ------------  ---------------      ----- ------------  ---------------
    82      4.764638   4 C  pz              137      4.506777   7 C  pz        
    36     -3.187875   2 C  pz              191      2.529666  11 H  s         
   200     -2.529666  12 H  s                59     -2.350932   3 C  pz        
   169     -1.253322   9 C  pz              190      1.002703  11 H  s         
   199     -1.002703  12 H  s               105     -0.742565   5 O  pz        
 
 Vector   58  Occ=0.000000D+00  E= 1.741998D-01  Symmetry=a'
              MO Center=  6.7D-01, -2.0D+00,  1.4D-14, r^2= 2.5D+01
   Bfn.  Coefficient  Atom+Function         Bfn.  Coefficient  Atom+Function  
  ----- ------------  ---------------      ----- ------------  ---------------
    50     24.226194   3 C  s                73    -12.318364   4 C  s         
    81      9.852321   4 C  py               35     -7.512948   2 C  py        
   135      6.747549   7 C  px              182     -6.648300  10 H  s         
    34     -6.576305   2 C  px              160     -6.592029   9 C  s         
   136      4.120398   7 C  py               57     -3.907086   3 C  px        
 
 Vector   59  Occ=0.000000D+00  E= 1.858725D-01  Symmetry=a"
              MO Center=  5.3D-01, -2.0D+00,  1.6D-13, r^2= 2.0D+01
   Bfn.  Coefficient  Atom+Function         Bfn.  Coefficient  Atom+Function  
  ----- ------------  ---------------      ----- ------------  ---------------
   191      4.223465  11 H  s               200     -4.223465  12 H  s         
    36      4.178333   2 C  pz               59     -2.987517   3 C  pz        
   169      2.695813   9 C  pz               82     -2.563249   4 C  pz        
   137      2.438859   7 C  pz              190      2.365706  11 H  s         
   199     -2.365706  12 H  s               134      1.126626   7 C  pz        
 
 Vector   60  Occ=0.000000D+00  E= 1.863564D-01  Symmetry=a'
              MO Center=  3.4D-01, -1.2D+00, -3.8D-13, r^2= 2.2D+01
   Bfn.  Coefficient  Atom+Function         Bfn.  Coefficient  Atom+Function  
  ----- ------------  ---------------      ----- ------------  ---------------
    27      8.567506   2 C  s                81     -7.671495   4 C  py        
   182     -6.747361  10 H  s               150      6.697943   8 H  s         
   128     -6.306874   7 C  s               160      5.917008   9 C  s         
   135      5.539808   7 C  px               73     -5.087014   4 C  s         
     4     -5.004325   1 O  s                34     -3.957930   2 C  px        
 
 Vector   61  Occ=0.000000D+00  E= 2.040724D-01  Symmetry=a"
              MO Center=  7.6D-02, -9.8D-01, -1.2D-12, r^2= 6.3D+00
   Bfn.  Coefficient  Atom+Function         Bfn.  Coefficient  Atom+Function  
  ----- ------------  ---------------      ----- ------------  ---------------
    82      1.232670   4 C  pz              169     -0.988569   9 C  pz        
   137      0.614222   7 C  pz              105     -0.576482   5 O  pz        
    13     -0.557166   1 O  pz               33      0.557517   2 C  pz        
   190      0.458829  11 H  s               199     -0.458829  12 H  s         
    56     -0.425351   3 C  pz               79      0.393246   4 C  pz        
 
 Vector   62  Occ=0.000000D+00  E= 2.092371D-01  Symmetry=a'
              MO Center=  1.5D+00, -1.3D+00, -3.2D-13, r^2= 1.8D+01
   Bfn.  Coefficient  Atom+Function         Bfn.  Coefficient  Atom+Function  
  ----- ------------  ---------------      ----- ------------  ---------------
    27     58.106339   2 C  s               128    -34.672189   7 C  s         
    58     27.438305   3 C  py               73    -24.774406   4 C  s         
   160     22.803947   9 C  s                81    -21.149913   4 C  py        
    34     19.164335   2 C  px               35    -18.840065   2 C  py        
    50    -15.210607   3 C  s                80     -5.498584   4 C  px        
 
 Vector   63  Occ=0.000000D+00  E= 2.317989D-01  Symmetry=a'
              MO Center=  2.8D-01,  2.4D-01, -9.2D-13, r^2= 2.2D+01
   Bfn.  Coefficient  Atom+Function         Bfn.  Coefficient  Atom+Function  
  ----- ------------  ---------------      ----- ------------  ---------------
   160     52.780958   9 C  s                73    -30.472472   4 C  s         
    81    -30.362600   4 C  py               27    -23.723771   2 C  s         
    35    -19.159980   2 C  py               50     12.921516   3 C  s         
   128     -9.768185   7 C  s                34      7.889797   2 C  px        
   168     -6.075286   9 C  py               80     -5.266629   4 C  px        
 
 Vector   64  Occ=0.000000D+00  E= 2.364331D-01  Symmetry=a'
              MO Center= -1.6D+00, -1.2D+00, -1.2D-12, r^2= 1.4D+01
   Bfn.  Coefficient  Atom+Function         Bfn.  Coefficient  Atom+Function  
  ----- ------------  ---------------      ----- ------------  ---------------
    73     34.745675   4 C  s                27     19.309086   2 C  s         
    50    -18.438105   3 C  s               128    -18.245077   7 C  s         
   160    -12.966541   9 C  s                35    -10.711065   2 C  py        
    34      8.227857   2 C  px               96     -6.502694   5 O  s         
    80      4.695321   4 C  px               11     -3.411391   1 O  px        
 
 Vector   65  Occ=0.000000D+00  E= 2.500894D-01  Symmetry=a'
              MO Center=  2.2D-01, -1.3D-01, -2.5D-13, r^2= 2.2D+01
   Bfn.  Coefficient  Atom+Function         Bfn.  Coefficient  Atom+Function  
  ----- ------------  ---------------      ----- ------------  ---------------
   128     45.083635   7 C  s               160    -34.142259   9 C  s         
    50    -28.810430   3 C  s                35     24.592442   2 C  py        
    58     23.052261   3 C  py               27     10.456049   2 C  s         
    81     10.266906   4 C  py               34    -10.210993   2 C  px        
   136      9.232581   7 C  py              135     -7.892159   7 C  px        
 
 Vector   66  Occ=0.000000D+00  E= 2.578915D-01  Symmetry=a'
              MO Center= -4.4D-01, -8.5D-01, -6.9D-14, r^2= 1.9D+01
   Bfn.  Coefficient  Atom+Function         Bfn.  Coefficient  Atom+Function  
  ----- ------------  ---------------      ----- ------------  ---------------
   128     26.341117   7 C  s                35     23.181399   2 C  py        
    27    -19.798054   2 C  s                58    -16.699012   3 C  py        
    34    -11.673385   2 C  px               81     10.914461   4 C  py        
    50     -9.650176   3 C  s               160      9.187644   9 C  s         
    73     -7.710612   4 C  s               135     -7.336662   7 C  px        
 
 Vector   67  Occ=0.000000D+00  E= 2.619954D-01  Symmetry=a"
              MO Center=  1.4D-01, -6.9D-02, -8.7D-13, r^2= 1.7D+01
   Bfn.  Coefficient  Atom+Function         Bfn.  Coefficient  Atom+Function  
  ----- ------------  ---------------      ----- ------------  ---------------
    36      2.947761   2 C  pz              137     -2.126786   7 C  pz        
    13     -1.624741   1 O  pz              169      1.514068   9 C  pz        
   191     -1.379074  11 H  s               200      1.379074  12 H  s         
    82     -1.207383   4 C  pz              242     -1.194063  14 F  pz        
   265     -1.194063  15 F  pz              233      1.039379  14 F  s         
 
 Vector   68  Occ=0.000000D+00  E= 2.744067D-01  Symmetry=a"
              MO Center= -4.1D-02, -2.0D+00,  9.8D-13, r^2= 1.3D+01
   Bfn.  Coefficient  Atom+Function         Bfn.  Coefficient  Atom+Function  
  ----- ------------  ---------------      ----- ------------  ---------------
    82      2.215930   4 C  pz              105     -1.417409   5 O  pz        
   191      1.141549  11 H  s               200     -1.141549  12 H  s         
    13     -1.012718   1 O  pz               59     -0.998684   3 C  pz        
   188     -0.794433  10 H  pz              169     -0.784534   9 C  pz        
   190     -0.761806  11 H  s               199      0.761806  12 H  s         
 
 Vector   69  Occ=0.000000D+00  E= 2.759387D-01  Symmetry=a'
              MO Center= -4.0D-01, -1.0D-01, -4.1D-14, r^2= 1.3D+01
   Bfn.  Coefficient  Atom+Function         Bfn.  Coefficient  Atom+Function  
  ----- ------------  ---------------      ----- ------------  ---------------
    50     44.802243   3 C  s                73    -36.553828   4 C  s         
    27    -33.681390   2 C  s               160     15.653804   9 C  s         
   128      8.420166   7 C  s                57     -7.432383   3 C  px        
    80     -5.745568   4 C  px               34     -5.679725   2 C  px        
    58     -4.418039   3 C  py               55      3.712016   3 C  py        
 
 Vector   70  Occ=0.000000D+00  E= 2.800916D-01  Symmetry=a'
              MO Center=  3.5D-01, -5.8D-01,  5.0D-13, r^2= 2.0D+01
   Bfn.  Coefficient  Atom+Function         Bfn.  Coefficient  Atom+Function  
  ----- ------------  ---------------      ----- ------------  ---------------
    27     33.197537   2 C  s               128    -33.347822   7 C  s         
    50    -22.643144   3 C  s                73     21.336696   4 C  s         
    35    -11.782724   2 C  py              160      8.380800   9 C  s         
    81     -8.138934   4 C  py              135      7.158526   7 C  px        
   136     -6.740953   7 C  py               57      6.225780   3 C  px        
 
 Vector   71  Occ=0.000000D+00  E= 2.855127D-01  Symmetry=a'
              MO Center=  6.2D-01, -1.3D+00,  4.0D-12, r^2= 1.3D+01
   Bfn.  Coefficient  Atom+Function         Bfn.  Coefficient  Atom+Function  
  ----- ------------  ---------------      ----- ------------  ---------------
    27     20.917383   2 C  s                73    -18.327974   4 C  s         
    58     10.582210   3 C  py               50    -10.335423   3 C  s         
    34      9.293250   2 C  px              160      7.610487   9 C  s         
   128     -7.318349   7 C  s                57     -6.059755   3 C  px        
    81     -4.346740   4 C  py               96      3.706029   5 O  s         
 
 Vector   72  Occ=0.000000D+00  E= 3.002371D-01  Symmetry=a'
              MO Center= -1.2D+00, -9.7D-01, -3.5D-14, r^2= 1.7D+01
   Bfn.  Coefficient  Atom+Function         Bfn.  Coefficient  Atom+Function  
  ----- ------------  ---------------      ----- ------------  ---------------
    73     36.931073   4 C  s               160    -24.536674   9 C  s         
    27    -17.881411   2 C  s               128     14.169701   7 C  s         
    34    -11.338770   2 C  px               81     11.201218   4 C  py        
    80     10.964607   4 C  px               58     -9.455441   3 C  py        
    50     -7.900971   3 C  s                57      6.404142   3 C  px        
 
 Vector   73  Occ=0.000000D+00  E= 3.033781D-01  Symmetry=a"
              MO Center=  2.6D-01, -4.0D-01,  2.1D-13, r^2= 1.6D+01
   Bfn.  Coefficient  Atom+Function         Bfn.  Coefficient  Atom+Function  
  ----- ------------  ---------------      ----- ------------  ---------------
    59     -3.790973   3 C  pz               36      3.677513   2 C  pz        
    82      2.672454   4 C  pz               13     -1.798904   1 O  pz        
   233     -0.944816  14 F  s               242      0.940754  14 F  pz        
   256      0.944816  15 F  s               265      0.940754  15 F  pz        
   169     -0.864247   9 C  pz              105     -0.740776   5 O  pz        
 
 Vector   74  Occ=0.000000D+00  E= 3.236527D-01  Symmetry=a"
              MO Center= -7.7D-01, -5.5D-01,  4.3D-13, r^2= 1.4D+01
   Bfn.  Coefficient  Atom+Function         Bfn.  Coefficient  Atom+Function  
  ----- ------------  ---------------      ----- ------------  ---------------
    36      3.263104   2 C  pz               82     -2.425382   4 C  pz        
    13     -2.181941   1 O  pz              105      1.983885   5 O  pz        
   137     -1.388648   7 C  pz              233      0.738832  14 F  s         
   256     -0.738832  15 F  s                91     -0.606335   4 C  d  1      
    66     -0.580081   3 C  d -1            240      0.559182  14 F  px        
 
 Vector   75  Occ=0.000000D+00  E= 3.239581D-01  Symmetry=a'
              MO Center= -5.3D-01, -1.3D+00, -1.5D-12, r^2= 1.4D+01
   Bfn.  Coefficient  Atom+Function         Bfn.  Coefficient  Atom+Function  
  ----- ------------  ---------------      ----- ------------  ---------------
    50     36.474357   3 C  s                27    -20.392053   2 C  s         
    35    -13.882014   2 C  py               73    -13.829026   4 C  s         
   128    -12.799150   7 C  s                 4      8.580428   1 O  s         
    57     -7.127846   3 C  px               58     -6.251142   3 C  py        
    34      6.099286   2 C  px               81      5.310789   4 C  py        
 
 Vector   76  Occ=0.000000D+00  E= 3.380741D-01  Symmetry=a'
              MO Center=  5.2D-01, -8.1D-02, -3.5D-14, r^2= 1.2D+01
   Bfn.  Coefficient  Atom+Function         Bfn.  Coefficient  Atom+Function  
  ----- ------------  ---------------      ----- ------------  ---------------
    27     21.654587   2 C  s                58     11.423873   3 C  py        
    73    -10.322944   4 C  s               160      8.506211   9 C  s         
    50     -8.166884   3 C  s                80     -7.632928   4 C  px        
    81     -7.113370   4 C  py              128     -5.904254   7 C  s         
    57      5.611137   3 C  px              150     -4.369766   8 H  s         
 
 Vector   77  Occ=0.000000D+00  E= 3.412862D-01  Symmetry=a"
              MO Center=  6.5D-01,  1.4D-02, -1.5D-12, r^2= 1.1D+01
   Bfn.  Coefficient  Atom+Function         Bfn.  Coefficient  Atom+Function  
  ----- ------------  ---------------      ----- ------------  ---------------
    59      3.450606   3 C  pz               36     -2.111322   2 C  pz        
    82     -1.918558   4 C  pz              241      1.020826  14 F  py        
   264     -1.020826  15 F  py              156     -0.894566   8 H  pz        
   169      0.776068   9 C  pz              105      0.713813   5 O  pz        
   242     -0.606457  14 F  pz              265     -0.606457  15 F  pz        
 
 Vector   78  Occ=0.000000D+00  E= 3.471198D-01  Symmetry=a'
              MO Center=  8.3D-02,  5.3D-02,  3.5D-15, r^2= 1.4D+01
   Bfn.  Coefficient  Atom+Function         Bfn.  Coefficient  Atom+Function  
  ----- ------------  ---------------      ----- ------------  ---------------
    50     78.082517   3 C  s                73    -71.617372   4 C  s         
    27    -39.582744   2 C  s               160     22.578594   9 C  s         
    80    -14.237876   4 C  px               57    -13.585840   3 C  px        
    35    -11.855644   2 C  py               96      8.155834   5 O  s         
   128      4.984769   7 C  s                58      4.652177   3 C  py        
 
 Vector   79  Occ=0.000000D+00  E= 3.555528D-01  Symmetry=a'
              MO Center=  1.9D-01,  4.2D-01,  1.2D-13, r^2= 1.4D+01
   Bfn.  Coefficient  Atom+Function         Bfn.  Coefficient  Atom+Function  
  ----- ------------  ---------------      ----- ------------  ---------------
    50     17.621825   3 C  s                35    -15.079329   2 C  py        
    27    -14.703569   2 C  s               128    -14.432322   7 C  s         
    34      9.668781   2 C  px               81     -9.384984   4 C  py        
   160      7.159702   9 C  s                 4      6.787371   1 O  s         
    57     -5.076426   3 C  px               80     -5.024146   4 C  px        
 
 Vector   80  Occ=0.000000D+00  E= 3.700874D-01  Symmetry=a"
              MO Center=  3.1D-01,  1.9D+00, -6.2D-14, r^2= 1.2D+01
   Bfn.  Coefficient  Atom+Function         Bfn.  Coefficient  Atom+Function  
  ----- ------------  ---------------      ----- ------------  ---------------
   169      2.918230   9 C  pz              242     -2.100623  14 F  pz        
   265     -2.100623  15 F  pz               59     -1.366894   3 C  pz        
    82      1.140013   4 C  pz              105     -0.961062   5 O  pz        
   137      0.954064   7 C  pz              219     -0.871930  13 F  pz        
   240      0.816081  14 F  px              263     -0.816081  15 F  px        
 
 Vector   81  Occ=0.000000D+00  E= 3.742779D-01  Symmetry=a'
              MO Center=  9.1D-01, -4.9D-01, -1.2D-13, r^2= 1.3D+01
   Bfn.  Coefficient  Atom+Function         Bfn.  Coefficient  Atom+Function  
  ----- ------------  ---------------      ----- ------------  ---------------
    50     34.867309   3 C  s                73    -30.342773   4 C  s         
   128    -19.544523   7 C  s                35    -19.303567   2 C  py        
    57    -13.453079   3 C  px               34      9.142535   2 C  px        
    58      8.611467   3 C  py              160      6.827056   9 C  s         
   150      6.264573   8 H  s                80     -4.535872   4 C  px        
 
 Vector   82  Occ=0.000000D+00  E= 3.825649D-01  Symmetry=a'
              MO Center=  4.2D-02, -8.0D-02,  5.1D-14, r^2= 1.7D+01
   Bfn.  Coefficient  Atom+Function         Bfn.  Coefficient  Atom+Function  
  ----- ------------  ---------------      ----- ------------  ---------------
   128     19.159079   7 C  s                35     14.667712   2 C  py        
    73    -11.654401   4 C  s                58      8.161641   3 C  py        
   160     -6.528268   9 C  s               135     -6.009104   7 C  px        
   150     -5.406632   8 H  s                34     -4.967799   2 C  px        
    80     -4.786532   4 C  px              182      4.712248  10 H  s         
 
 Vector   83  Occ=0.000000D+00  E= 3.918009D-01  Symmetry=a"
              MO Center= -3.9D-01,  1.4D+00, -2.0D-13, r^2= 1.5D+01
   Bfn.  Coefficient  Atom+Function         Bfn.  Coefficient  Atom+Function  
  ----- ------------  ---------------      ----- ------------  ---------------
    82      5.369154   4 C  pz              169     -4.467248   9 C  pz        
    36     -2.500388   2 C  pz              105     -2.369526   5 O  pz        
   219      2.103151  13 F  pz              190     -1.366973  11 H  s         
   199      1.366973  12 H  s               241      1.106673  14 F  py        
   264     -1.106673  15 F  py               13      0.929936   1 O  pz        
 
 Vector   84  Occ=0.000000D+00  E= 3.991341D-01  Symmetry=a"
              MO Center=  4.1D-01,  1.0D+00, -8.0D-14, r^2= 1.2D+01
   Bfn.  Coefficient  Atom+Function         Bfn.  Coefficient  Atom+Function  
  ----- ------------  ---------------      ----- ------------  ---------------
   233      2.600026  14 F  s               256     -2.600026  15 F  s         
    36     -1.808773   2 C  pz              219     -1.593616  13 F  pz        
   242     -1.596018  14 F  pz              265     -1.596018  15 F  pz        
   241      1.105202  14 F  py              264     -1.105202  15 F  py        
    59      1.042171   3 C  pz              240     -0.977085  14 F  px        
 
 Vector   85  Occ=0.000000D+00  E= 4.008774D-01  Symmetry=a'
              MO Center= -3.0D-01,  7.4D-01,  3.8D-12, r^2= 1.5D+01
   Bfn.  Coefficient  Atom+Function         Bfn.  Coefficient  Atom+Function  
  ----- ------------  ---------------      ----- ------------  ---------------
    27     29.856377   2 C  s                58     16.321867   3 C  py        
   128    -15.947022   7 C  s                50    -14.597917   3 C  s         
    34     11.832851   2 C  px               35     -9.213232   2 C  py        
    81     -8.650999   4 C  py              167     -5.745626   9 C  px        
    55      3.894319   3 C  py               32      3.738964   2 C  py        
 
 Vector   86  Occ=0.000000D+00  E= 4.054701D-01  Symmetry=a'
              MO Center= -6.0D-02, -2.0D+00,  4.6D-13, r^2= 1.5D+01
   Bfn.  Coefficient  Atom+Function         Bfn.  Coefficient  Atom+Function  
  ----- ------------  ---------------      ----- ------------  ---------------
    73     19.281214   4 C  s                27     17.798831   2 C  s         
    50    -15.355465   3 C  s               128     -8.704604   7 C  s         
     4     -6.907101   1 O  s                96     -4.947237   5 O  s         
   181      4.489708  10 H  s               136     -3.515036   7 C  py        
   182      3.327869  10 H  s               132     -3.254924   7 C  px        
 
 Vector   87  Occ=0.000000D+00  E= 4.144332D-01  Symmetry=a'
              MO Center=  6.7D-01, -1.1D+00,  1.7D-13, r^2= 1.6D+01
   Bfn.  Coefficient  Atom+Function         Bfn.  Coefficient  Atom+Function  
  ----- ------------  ---------------      ----- ------------  ---------------
    27     43.533146   2 C  s                50    -26.559407   3 C  s         
    58     15.080402   3 C  py              128    -15.056208   7 C  s         
    34     12.527778   2 C  px              160      9.971357   9 C  s         
    81     -9.262801   4 C  py               35     -6.998870   2 C  py        
    80     -4.668544   4 C  px              150     -4.361937   8 H  s         
 
 Vector   88  Occ=0.000000D+00  E= 4.151663D-01  Symmetry=a"
              MO Center=  1.3D+00, -2.5D+00,  7.5D-13, r^2= 1.3D+01
   Bfn.  Coefficient  Atom+Function         Bfn.  Coefficient  Atom+Function  
  ----- ------------  ---------------      ----- ------------  ---------------
   137      4.506329   7 C  pz              190      4.315001  11 H  s         
   199     -4.315001  12 H  s                82      3.707633   4 C  pz        
   169     -2.821107   9 C  pz               36     -2.648835   2 C  pz        
   191      2.532706  11 H  s               200     -2.532706  12 H  s         
   134      2.417247   7 C  pz              195      1.185721  11 H  px        
 
 Vector   89  Occ=0.000000D+00  E= 4.237397D-01  Symmetry=a'
              MO Center=  3.6D-01, -4.2D-01,  3.3D-13, r^2= 1.6D+01
   Bfn.  Coefficient  Atom+Function         Bfn.  Coefficient  Atom+Function  
[...]
          32    -0.02870    -0.09091    -0.08021    -0.33817    -0.09038    -0.30516
          33     0.00349     0.00534     0.03628     0.24004     0.03624     0.28165
          34     0.03385     0.13012     0.08786     0.17374     0.28089    -0.24538
          35    -0.02870    -0.09091    -0.08021    -0.33817    -0.09038    -0.30516
          36    -0.00349    -0.00534    -0.03628    -0.24004    -0.03624    -0.28165
          37     0.04947    -0.03970     0.02435    -0.00104    -0.00247    -0.00483
          38    -0.03200     0.04275    -0.03373     0.00177     0.00359     0.00558
          39     0.00000     0.00000    -0.00000    -0.00000     0.00000     0.00000
          40     0.03941    -0.00477    -0.01042    -0.00014     0.00291     0.00270
          41     0.01267     0.00681    -0.01463    -0.00041     0.00387     0.00428
          42     0.03341    -0.00074    -0.01289    -0.00004     0.00313     0.00340
          43     0.03941    -0.00477    -0.01042    -0.00014     0.00291     0.00270
          44     0.01267     0.00681    -0.01463    -0.00041     0.00387     0.00428
          45    -0.03341     0.00074     0.01289     0.00004    -0.00313    -0.00340

                   37          38          39          40          41          42
 
 P.Frequency     1463.18     1494.77     1660.92     1692.12     3074.13     3160.12
 
           1    -0.00000     0.04329    -0.01485     0.02002    -0.00009    -0.00000
           2     0.00000     0.03099     0.01377     0.03271     0.00048     0.00000
           3     0.00261    -0.00000    -0.00000     0.00000    -0.00000    -0.00011
           4     0.00000    -0.08200     0.05931    -0.02717     0.00162     0.00000
           5     0.00000    -0.03430    -0.04595    -0.18195    -0.00133    -0.00000
           6    -0.02540     0.00000    -0.00000    -0.00000     0.00000     0.00128
           7    -0.00000     0.04934    -0.04297     0.01555     0.00005     0.00000
           8    -0.00000    -0.09323     0.04866     0.15037    -0.00006    -0.00000
           9     0.00139    -0.00000    -0.00000     0.00000    -0.00000     0.00006
          10    -0.00000    -0.00428     0.21027    -0.06942     0.00028     0.00000
          11     0.00000     0.11917     0.00252    -0.04685    -0.00005     0.00000
          12    -0.00004     0.00000     0.00000    -0.00000     0.00000     0.00003
          13     0.00000    -0.01136    -0.11601     0.05072    -0.00010     0.00000
          14    -0.00000    -0.01616    -0.01584     0.01188    -0.00006    -0.00000
          15     0.00012     0.00000     0.00000     0.00000    -0.00000     0.00001
          16    -0.00000    -0.22540    -0.30497    -0.25193     0.00394    -0.00000
          17    -0.00000    -0.16882    -0.15231    -0.15902    -0.00664    -0.00000
          18     0.01639     0.00000    -0.00000     0.00000     0.00000    -0.00099
          19    -0.00000    -0.00778    -0.01347    -0.01091    -0.01980    -0.00000
          20     0.00000     0.00048     0.01410     0.03403     0.04597    -0.00000
          21    -0.04872     0.00000     0.00000     0.00000    -0.00000     0.08729
          22    -0.00000    -0.04021    -0.02841     0.10073    -0.00399     0.00000
          23    -0.00000     0.31938    -0.01778    -0.14496    -0.00135    -0.00000
          24     0.01134     0.00000    -0.00000     0.00000    -0.00000     0.00022
          25    -0.00000    -0.00631    -0.00847     0.00917    -0.00004    -0.00000
          26    -0.00000    -0.06434    -0.00146     0.01842    -0.00003    -0.00000
          27     0.00030    -0.00000     0.00000    -0.00000    -0.00000     0.00002
          28     0.00000     0.09610    -0.00464     0.03022     0.42993    -0.00000
          29    -0.00000    -0.29923    -0.01921    -0.11457     0.14825     0.00000
          30     0.69900    -0.00000     0.00000    -0.00000     0.00000     0.01684
          31    -0.48001     0.12748     0.01653     0.00579    -0.10698    -0.11798
          32     0.02751     0.23242     0.00470     0.07238    -0.33872    -0.38774
          33     0.04920    -0.18592     0.00211    -0.03094    -0.50155    -0.53511
          34     0.48001     0.12748     0.01653     0.00579    -0.10698     0.11798
          35    -0.02751     0.23242     0.00470     0.07238    -0.33872     0.38774
          36     0.04920     0.18592    -0.00211     0.03094     0.50155    -0.53511
          37    -0.00000    -0.00565    -0.00155     0.00155    -0.00001    -0.00000
          38     0.00000     0.00694     0.00450    -0.00375     0.00002    -0.00000
          39    -0.00002     0.00000    -0.00000    -0.00000    -0.00000     0.00000
          40    -0.00011     0.00323    -0.00068    -0.00151     0.00000    -0.00000
          41    -0.00002     0.00471    -0.00225    -0.00143     0.00001    -0.00000
          42    -0.00014     0.00392    -0.00128    -0.00120     0.00000    -0.00001
          43     0.00011     0.00323    -0.00068    -0.00151     0.00000     0.00000
          44     0.00002     0.00471    -0.00225    -0.00143     0.00001     0.00000
          45    -0.00014    -0.00392     0.00128     0.00120    -0.00000    -0.00001

                   43          44          45
 
 P.Frequency     3196.09     3205.99     3274.80
 
           1    -0.01635     0.02724     0.00121
           2     0.02535    -0.04400    -0.00045
           3     0.00000     0.00000    -0.00000
           4    -0.00418     0.00864     0.00041
           5     0.00037     0.00457     0.00464
           6    -0.00000    -0.00000     0.00000
           7    -0.00339     0.00112    -0.08167
           8     0.00282    -0.00704    -0.02057
           9    -0.00000    -0.00000     0.00000
          10     0.00627    -0.01074     0.00165
          11    -0.00210     0.00346    -0.00270
          12     0.00000     0.00000     0.00000
          13    -0.00344     0.00587     0.00063
          14    -0.00147     0.00238     0.00003
          15     0.00000     0.00000    -0.00000
          16     0.29500    -0.50918    -0.00661
          17    -0.38250     0.66137     0.01300
          18     0.00000     0.00000    -0.00000
          19     0.06518     0.03575    -0.00209
          20     0.04130     0.02461    -0.00132
          21    -0.00000    -0.00000    -0.00000
          22     0.02779     0.00114     0.92721
          23     0.00912    -0.00558     0.21612
          24    -0.00000    -0.00000     0.00000
          25     0.00004    -0.00003    -0.00072
          26     0.00007    -0.00007     0.00035
          27    -0.00000     0.00000     0.00000
          28    -0.69452    -0.40108     0.02340
          29    -0.22818    -0.12796     0.00745
          30    -0.00000    -0.00000    -0.00000
          31    -0.03439    -0.01999     0.00153
          32    -0.14097    -0.08644     0.00253
          33    -0.21792    -0.12984     0.00467
          34    -0.03439    -0.01999     0.00153
          35    -0.14097    -0.08644     0.00253
          36     0.21792     0.12984    -0.00467
          37    -0.00010     0.00017     0.00004
          38     0.00008    -0.00013     0.00009
          39    -0.00000     0.00000     0.00000
          40    -0.00011     0.00018     0.00011
          41    -0.00007     0.00011    -0.00009
          42    -0.00013     0.00020     0.00002
          43    -0.00011     0.00018     0.00011
          44    -0.00007     0.00011    -0.00009
          45     0.00013    -0.00020    -0.00002



 ----------------------------------------------------------------------------
 Normal Eigenvalue ||    Projected Derivative Dipole Moments (debye/angs)
  Mode   [cm**-1]  ||      [d/dqX]             [d/dqY]           [d/dqZ]
 ------ ---------- || ------------------ ------------------ -----------------
    1       -0.000 ||      -0.013              -0.010             0.154
    2       -0.000 ||       0.002               0.002             0.026
    3       -0.000 ||      -0.077              -0.061            -0.041
    4        0.000 ||      -0.014              -0.011             0.108
    5        0.000 ||       0.008               0.006            -0.029
    6        0.000 ||      -0.064              -0.051            -0.009
    7       10.689 ||      -0.000              -0.000            -0.210
    8       83.997 ||       0.000               0.000             0.082
    9      136.899 ||       0.000              -0.000            -0.138
   10      142.060 ||       0.048              -0.103             0.000
   11      182.379 ||       0.000               0.000             0.073
   12      266.711 ||      -0.184              -0.279            -0.000
   13      267.151 ||       0.000               0.000            -0.113
   14      318.011 ||      -0.100               0.029            -0.000
   15      395.555 ||      -0.003              -0.299             0.000
   16      428.523 ||      -0.170              -0.081             0.000
   17      500.254 ||      -0.000               0.000             0.241
   18      521.857 ||       0.449              -0.562            -0.000
   19      567.731 ||      -0.027               0.392             0.000
   20      578.237 ||       0.000              -0.000            -0.089
   21      713.734 ||      -0.082              -0.771             0.000
   22      761.353 ||      -0.000              -0.000            -0.164
   23      785.539 ||      -0.000               0.000            -0.908
   24      865.215 ||       0.159               1.106            -0.000
   25      935.086 ||       0.000               0.000             1.171
   26      947.601 ||      -0.125               0.473            -0.000
   27     1019.676 ||       0.434              -0.081             0.000
   28     1047.895 ||       0.000              -0.000            -0.043
   29     1120.457 ||       0.180               1.818             0.000
   30     1133.179 ||       0.000              -0.000             2.516
   31     1203.769 ||      -2.381              -0.223            -0.000
   32     1221.472 ||       0.130              -1.771            -0.000
   33     1341.517 ||      -1.045               1.244             0.000
   34     1382.225 ||       0.403              -1.014             0.000
   35     1422.704 ||       0.442               1.265            -0.000
   36     1459.395 ||      -1.228              -0.457            -0.000
   37     1463.177 ||       0.000               0.000             0.445
   38     1494.768 ||      -0.917               0.052             0.000
   39     1660.917 ||       1.542              -1.977             0.000
   40     1692.120 ||      -0.562              -2.826             0.000
   41     3074.128 ||      -0.110               0.249             0.000
   42     3160.116 ||       0.000              -0.000            -0.211
   43     3196.090 ||       0.836              -0.827            -0.000
   44     3205.993 ||      -0.742               1.583            -0.000
   45     3274.799 ||       0.072               0.158            -0.000
 ----------------------------------------------------------------------------



  
  
 ----------------------------------------------------------------------------
 Normal Eigenvalue ||           Projected Infra Red Intensities
  Mode   [cm**-1]  || [atomic units] [(debye/angs)**2] [(KM/mol)] [arbitrary]
 ------ ---------- || -------------- ----------------- ---------- -----------
    1       -0.000 ||    0.001038           0.024         1.012       0.208
    2       -0.000 ||    0.000030           0.001         0.029       0.006
    3       -0.000 ||    0.000488           0.011         0.476       0.098
    4        0.000 ||    0.000522           0.012         0.509       0.105
    5        0.000 ||    0.000040           0.001         0.039       0.008
    6        0.000 ||    0.000291           0.007         0.283       0.058
    7       10.689 ||    0.001920           0.044         1.872       0.385
    8       83.997 ||    0.000295           0.007         0.287       0.059
    9      136.899 ||    0.000830           0.019         0.809       0.167
   10      142.060 ||    0.000564           0.013         0.549       0.113
   11      182.379 ||    0.000230           0.005         0.224       0.046
   12      266.711 ||    0.004828           0.111         4.706       0.969
   13      267.151 ||    0.000557           0.013         0.543       0.112
   14      318.011 ||    0.000466           0.011         0.454       0.094
   15      395.555 ||    0.003863           0.089         3.766       0.775
   16      428.523 ||    0.001537           0.035         1.498       0.308
   17      500.254 ||    0.002516           0.058         2.453       0.505
   18      521.857 ||    0.022414           0.517        21.850       4.497
   19      567.731 ||    0.006702           0.155         6.533       1.345
   20      578.237 ||    0.000340           0.008         0.331       0.068
   21      713.734 ||    0.026052           0.601        25.396       5.227
   22      761.353 ||    0.001163           0.027         1.134       0.233
   23      785.539 ||    0.035704           0.824        34.806       7.163
   24      865.215 ||    0.054073           1.248        52.713      10.849
   25      935.086 ||    0.059443           1.371        57.948      11.926
   26      947.601 ||    0.010387           0.240        10.126       2.084
   27     1019.676 ||    0.008443           0.195         8.231       1.694
   28     1047.895 ||    0.000079           0.002         0.077       0.016
   29     1120.457 ||    0.144616           3.336       140.979      29.014
   30     1133.179 ||    0.274464           6.332       267.561      55.065
   31     1203.769 ||    0.247847           5.718       241.614      49.725
   32     1221.472 ||    0.136672           3.153       133.235      27.420
   33     1341.517 ||    0.114413           2.640       111.536      22.955
   34     1382.225 ||    0.051601           1.190        50.303      10.353
   35     1422.704 ||    0.077832           1.796        75.874      15.615
   36     1459.395 ||    0.074395           1.716        72.524      14.926
   37     1463.177 ||    0.008574           0.198         8.358       1.720
   38     1494.768 ||    0.036600           0.844        35.680       7.343
   39     1660.917 ||    0.272384           6.284       265.533      54.648
   40     1692.120 ||    0.359863           8.302       350.812      72.199
   41     3074.128 ||    0.003208           0.074         3.127       0.644
   42     3160.116 ||    0.001925           0.044         1.877       0.386
   43     3196.090 ||    0.059952           1.383        58.444      12.028
   44     3205.993 ||    0.132497           3.057       129.164      26.583
   45     3274.799 ||    0.001301           0.030         1.268       0.261
 ----------------------------------------------------------------------------



 vib:animation  F

 Task  times  cpu:   106631.8s     wall:   107151.0s
 
 
                                NWChem Input Module
                                -------------------
 
 
 Summary of allocated global arrays
-----------------------------------
  No active global arrays



                         GA Statistics for process    0
                         ------------------------------

       create   destroy   get      put      acc     scatter   gather  read&inc
calls: 1.01e+05 1.01e+05 4.16e+07 4.54e+06 1.73e+07    0        0     5.63e+05 
number of processes/call 3.18e+01 1.19e+02 4.74e+01 0.00e+00 0.00e+00
bytes total:             4.37e+10 9.83e+10 1.34e+10 0.00e+00 0.00e+00 4.50e+06
bytes remote:            1.76e+10 6.81e+10 8.80e+09 0.00e+00 0.00e+00 0.00e+00
Max memory consumed for GA by this process: 157850008 bytes
 
MA_summarize_allocated_blocks: starting scan ...
MA_summarize_allocated_blocks: scan completed: 0 heap blocks, 0 stack blocks
MA usage statistics:

	allocation statistics:
					      heap	     stack
					      ----	     -----
	current number of blocks	         0	         0
	maximum number of blocks	        25	        39
	current total bytes		         0	         0
	maximum total bytes		  77601648	  26269752
	maximum total K-bytes		     77602	     26270
	maximum total M-bytes		        78	        27
 
 
                                     CITATION
                                     --------
                Please cite the following reference when publishing
                           results obtained with NWChem:
 
          E. Apr, E. J. Bylaska, W. A. de Jong, N. Govind, K. Kowalski,
       T. P. Straatsma, M. Valiev, H. J. J. van Dam, Y. Alexeev, J. Anchell,
       V. Anisimov, F. W. Aquino, R. Atta-Fynn, J. Autschbach, N. P. Bauman,
     J. C. Becca, D. E. Bernholdt, K. Bhaskaran-Nair, S. Bogatko, P. Borowski,
        J. Boschen, J. Brabec, A. Bruner, E. Caut, Y. Chen, G. N. Chuev,
      C. J. Cramer, J. Daily, M. J. O. Deegan, T. H. Dunning Jr., M. Dupuis,
   K. G. Dyall, G. I. Fann, S. A. Fischer, A. Fonari, H. Frchtl, L. Gagliardi,
      J. Garza, N. Gawande, S. Ghosh, K. Glaesemann, A. W. Gtz, J. Hammond,
       V. Helms, E. D. Hermes, K. Hirao, S. Hirata, M. Jacquelin, L. Jensen,
   B. G. Johnson, H. Jnsson, R. A. Kendall, M. Klemm, R. Kobayashi, V. Konkov,
      S. Krishnamoorthy, M. Krishnan, Z. Lin, R. D. Lins, R. J. Littlefield,
      A. J. Logsdail, K. Lopata, W. Ma, A. V. Marenich, J. Martin del Campo,
   D. Mejia-Rodriguez, J. E. Moore, J. M. Mullin, T. Nakajima, D. R. Nascimento,
    J. A. Nichols, P. J. Nichols, J. Nieplocha, A. Otero-de-la-Roza, B. Palmer,
    A. Panyala, T. Pirojsirikul, B. Peng, R. Peverati, J. Pittner, L. Pollack,
   R. M. Richard, P. Sadayappan, G. C. Schatz, W. A. Shelton, D. W. Silverstein,
   D. M. A. Smith, T. A. Soares, D. Song, M. Swart, H. L. Taylor, G. S. Thomas,
            V. Tipparaju, D. G. Truhlar, K. Tsemekhman, T. Van Voorhis,
     . Vzquez-Mayagoitia, P. Verma, O. Villa, A. Vishnu, K. D. Vogiatzis,
        D. Wang, J. H. Weare, M. J. Williamson, T. L. Windus, K. Woliski,
        A. T. Wong, Q. Wu, C. Yang, Q. Yu, M. Zacharias, Z. Zhang, Y. Zhao,
                                and R. J. Harrison
                        "NWChem: Past, present, and future
                         J. Chem. Phys. 152, 184102 (2020)
                               doi:10.1063/5.0004997
 
                                      AUTHORS
                                      -------
     E. Apra, E. J. Bylaska, N. Govind, K. Kowalski, M. Valiev, W. A. de Jong,
      T. P. Straatsma, H. J. J. van Dam, D. Wang, T. L. Windus, N. P. Bauman,
       A. Panyala, J. Hammond, J. Autschbach, K. Bhaskaran-Nair, J. Brabec,
    K. Lopata, S. A. Fischer, S. Krishnamoorthy, M. Jacquelin, W. Ma, M. Klemm,
       O. Villa, Y. Chen, V. Anisimov, F. Aquino, S. Hirata, M. T. Hackler,
           Eric Hermes, L. Jensen, J. E. Moore, J. C. Becca, V. Konjkov,
            D. Mejia-Rodriguez, T. Risthaus, M. Malagoli, A. Marenich,
   A. Otero-de-la-Roza, J. Mullin, P. Nichols, R. Peverati, J. Pittner, Y. Zhao,
        P.-D. Fan, A. Fonari, M. J. Williamson, R. J. Harrison, J. R. Rehr,
      M. Dupuis, D. Silverstein, D. M. A. Smith, J. Nieplocha, V. Tipparaju,
      M. Krishnan, B. E. Van Kuiken, A. Vazquez-Mayagoitia, M. Swart, Q. Wu,
   T. Van Voorhis, A. A. Auer, M. Nooijen, L. D. Crosby, E. Brown, G. Cisneros,
     G. I. Fann, H. Fruchtl, J. Garza, K. Hirao, R. A. Kendall, J. A. Nichols,
       K. Tsemekhman, K. Wolinski, J. Anchell, D. E. Bernholdt, P. Borowski,
       T. Clark, D. Clerc, H. Dachsel, M. J. O. Deegan, K. Dyall, D. Elwood,
      E. Glendening, M. Gutowski, A. C. Hess, J. Jaffe, B. G. Johnson, J. Ju,
        R. Kobayashi, R. Kutteh, Z. Lin, R. Littlefield, X. Long, B. Meng,
      T. Nakajima, S. Niu, L. Pollack, M. Rosing, K. Glaesemann, G. Sandrone,
      M. Stave, H. Taylor, G. Thomas, J. H. van Lenthe, A. T. Wong, Z. Zhang.

 Total times  cpu:   120682.2s     wall:   121294.5s
