 argument  1 = 5O.nw
 


============================== echo of input deck ==============================
echo
start 5O
title "Me,H,MeF Open"
charge 0

geometry
 zmatrix
  O
  C  1  R1
  C  2  R2  1  A1
  C  3  R3  2  A2  1  D0
  O  4  R4  3  A3  2  D0
  H  1  R5  2  A4  3  D180
  C  2  R6  3  A5  4  D180
  H  3  R7  2  A6  1  D180
  C  4  R8  3  A7  2  D180
  H  7  R9  2  A8  1  D1
  H  7  R10 2  A9  1  D2
  H  7  R11 2  A10 1  D3
  F  9  R12 4  A11 5  D4
  F  9  R13 4  A12 5  D5
  F  9  R14 4  A13 5  D6
  variables
    R1  1.329
    R2  1.363
    A1  124.5
    R3  1.440
    A2  119.5
    R4  1.249
    A3  123.5
    R5  0.994
    A4  105.4
    R6  1.485
    A5  122.5
    R7  1.078
    A6  120.0
    R8  1.499
    A7  117.6
    R9  1.100
    A8  110.0
    D1  180.0
    R10 1.100
    A9  110.0
    D2  60.00
    R11 1.100
    A10 110.0
    D3  -60.0
    R12 1.350
    A11 110.0
    D4  0.000
    R13 1.350
    A12 110.0
    D5  120.0
    R14 1.350
    A13 110.0
    D6  -120.
  constants
    D0  0.000
    D180 180.0
 end
end

basis spherical
 * library aug-cc-pVDZ
end

set lindep:n_dep 0

set cphf:maxsub 95
set cphf:maxiter 999
set int:acc_std 1d-16
set fock:densityscreen f

scf
 maxiter 99
 vectors input atomic
 thresh 1d-9
 tol2e 1d-15
end

mp2
 freeze atomic
 tight
end

driver
 clear
 maxiter 99
 tight
end

set "mp2:aotol2e fock" 1d-15
set mp2:aotol2e 1d-15
set mp2:backtol 1d-15


task mp2 optimize
task mp2 frequencies


================================================================================


                                         
                                         
 
 
             Northwest Computational Chemistry Package (NWChem) 7.0.0
             --------------------------------------------------------
 
 
                    Environmental Molecular Sciences Laboratory
                       Pacific Northwest National Laboratory
                                Richland, WA 99352
 
                              Copyright (c) 1994-2020
                       Pacific Northwest National Laboratory
                            Battelle Memorial Institute
 
             NWChem is an open-source computational chemistry package
                        distributed under the terms of the
                      Educational Community License (ECL) 2.0
             A copy of the license is included with this distribution
                              in the LICENSE.TXT file
 
                                  ACKNOWLEDGMENT
                                  --------------

            This software and its documentation were developed at the
            EMSL at Pacific Northwest National Laboratory, a multiprogram
            national laboratory, operated for the U.S. Department of Energy
            by Battelle under Contract Number DE-AC05-76RL01830. Support
            for this work was provided by the Department of Energy Office
            of Biological and Environmental Research, Office of Basic
            Energy Sciences, and the Office of Advanced Scientific Computing.


           Job information
           ---------------

    hostname        = compute-0-17.local
    program         = /scratch/nwchem.277679
    date            = Fri Mar 26 19:26:21 2021

    compiled        = Thu_Jun_25_16:07:03_2020
    source          = /home/edo/nwchem-7.0.1
    nwchem branch   = 7.0.1
    nwchem revision = de46fdf
    ga revision     = 5.7.1
    use scalapack   = T
    input           = 5O.nw
    prefix          = 5O.
    data base       = ./5O.db
    status          = startup
    nproc           =       11
    time left       =     -1s



           Memory information
           ------------------

    heap     =   13107196 doubles =    100.0 Mbytes
    stack    =   13107201 doubles =    100.0 Mbytes
    global   =   26214400 doubles =    200.0 Mbytes (distinct from heap & stack)
    total    =   52428797 doubles =    400.0 Mbytes
    verify   = yes
    hardfail = no 


           Directory information
           ---------------------
 
  0 permanent = .
  0 scratch   = /scratch
 
 
 
 
                                NWChem Input Module
                                -------------------
 
 
                                   Me,H,MeF Open
                                   -------------

 Scaling coordinates for geometry "geometry" by  1.889725989
 (inverse scale =  0.529177249)

 CS  symmetry detected
 
 
                             Geometry "geometry" -> ""
                             -------------------------
 
 Output coordinates in angstroms (scale by  1.889725989 to convert to a.u.)
 
  No.       Tag          Charge          X              Y              Z
 ---- ---------------- ---------- -------------- -------------- --------------
    1 O                    8.0000    -1.11259507    -2.44244690     0.00000000
    2 C                    6.0000     0.16233347    -2.06721601     0.00000000
    3 C                    6.0000     0.58578636    -0.77166337     0.00000000
    4 C                    6.0000    -0.38520832     0.29171301     0.00000000
    5 O                    8.0000    -1.61917033     0.09848062     0.00000000
    6 H                    1.0000    -1.09524808    -3.43629552     0.00000000
    7 C                    6.0000     1.10490747    -3.21472604     0.00000000
    8 H                    1.0000     1.64061921    -0.54937601     0.00000000
    9 C                    6.0000     0.12748088     1.70031188     0.00000000
   10 H                    1.0000     2.14245265    -2.84934953     0.00000000
   11 H                    1.0000     0.94433409    -3.83349378    -0.89517745
   12 H                    1.0000     0.94433409    -3.83349378     0.89517745
   13 F                    9.0000    -0.90667850     2.56807589     0.00000000
   14 F                    9.0000     0.88144103     1.91725217     1.09862687
   15 F                    9.0000     0.88144103     1.91725217    -1.09862687
 
      Atomic Mass 
      ----------- 
 
      O                 15.994910
      C                 12.000000
      H                  1.007825
      F                 18.998400
 

 Effective nuclear repulsion energy (a.u.)     563.1220748267

            Nuclear Dipole moment (a.u.) 
            ----------------------------
        X                 Y               Z
 ---------------- ---------------- ----------------
     0.0000000000     0.0000000000     0.0000000000
 
      Symmetry information
      --------------------
 
 Group name             Cs        
 Group number              2
 Group order               2
 No. of unique centers    13
 
      Symmetry unique atoms
 
     1    2    3    4    5    6    7    8    9   10   11   13   14
 


                                Z-matrix (user)
                                -------- 

 Units are Angstrom for bonds and degrees for angles

  Constants are marked with an asterisk (*).

  Constrained variables are marked with a plus sign (+).

 
      Type          Name      I     J     K     L     M      Value
      ----------- --------  ----- ----- ----- ----- ----- ----------
    1 Stretch      R1          2     1                       1.32900
    2 Stretch      R2          3     2                       1.36300
    3 Bend         A1          3     2     1               124.50000
    4 Stretch      R3          4     3                       1.44000
    5 Bend         A2          4     3     2               119.50000
    6*Torsion      D0          4     3     2     1           0.00000
    7 Stretch      R4          5     4                       1.24900
    8 Bend         A3          5     4     3               123.50000
    9*Torsion      D0          5     4     3     2           0.00000
   10 Stretch      R5          6     1                       0.99400
   11 Bend         A4          6     1     2               105.40000
   12*Torsion      D180        6     1     2     3         180.00000
   13 Stretch      R6          7     2                       1.48500
   14 Bend         A5          7     2     3               122.50000
   15*Torsion      D180        7     2     3     4         180.00000
   16 Stretch      R7          8     3                       1.07800
   17 Bend         A6          8     3     2               120.00000
   18*Torsion      D180        8     3     2     1         180.00000
   19 Stretch      R8          9     4                       1.49900
   20 Bend         A7          9     4     3               117.60000
   21*Torsion      D180        9     4     3     2         180.00000
   22 Stretch      R9         10     7                       1.10000
   23 Bend         A8         10     7     2               110.00000
   24 Torsion      D1         10     7     2     1         180.00000
   25 Stretch      R10        11     7                       1.10000
   26 Bend         A9         11     7     2               110.00000
   27 Torsion      D2         11     7     2     1          60.00000
   28 Stretch      R11        12     7                       1.10000
   29 Bend         A10        12     7     2               110.00000
   30 Torsion      D3         12     7     2     1         -60.00000
   31 Stretch      R12        13     9                       1.35000
   32 Bend         A11        13     9     4               110.00000
   33 Torsion      D4         13     9     4     5           0.00000
   34 Stretch      R13        14     9                       1.35000
   35 Bend         A12        14     9     4               110.00000
   36 Torsion      D5         14     9     4     5         120.00000
   37 Stretch      R14        15     9                       1.35000
   38 Bend         A13        15     9     4               110.00000
   39 Torsion      D6         15     9     4     5        -120.00000
 
 
            XYZ format geometry
            -------------------
    15
 geometry
 O                    -1.11259507    -2.44244690     0.00000000
 C                     0.16233347    -2.06721601     0.00000000
 C                     0.58578636    -0.77166337     0.00000000
 C                    -0.38520832     0.29171301     0.00000000
 O                    -1.61917033     0.09848062     0.00000000
 H                    -1.09524808    -3.43629552     0.00000000
 C                     1.10490747    -3.21472604     0.00000000
 H                     1.64061921    -0.54937601     0.00000000
 C                     0.12748088     1.70031188     0.00000000
 H                     2.14245265    -2.84934953     0.00000000
 H                     0.94433409    -3.83349378    -0.89517745
 H                     0.94433409    -3.83349378     0.89517745
 F                    -0.90667850     2.56807589     0.00000000
 F                     0.88144103     1.91725217     1.09862687
 F                     0.88144103     1.91725217    -1.09862687
 
 ==============================================================================
                                internuclear distances
 ------------------------------------------------------------------------------
       center one      |      center two      | atomic units |  angstroms
 ------------------------------------------------------------------------------
    2 C                |   1 O                |     2.51145  |     1.32900
    3 C                |   2 C                |     2.57570  |     1.36300
    4 C                |   3 C                |     2.72121  |     1.44000
    5 O                |   4 C                |     2.36027  |     1.24900
    6 H                |   1 O                |     1.87839  |     0.99400
    7 C                |   2 C                |     2.80624  |     1.48500
    8 H                |   3 C                |     2.03712  |     1.07800
    9 C                |   4 C                |     2.83270  |     1.49900
   10 H                |   7 C                |     2.07870  |     1.10000
   11 H                |   7 C                |     2.07870  |     1.10000
   12 H                |   7 C                |     2.07870  |     1.10000
   13 F                |   9 C                |     2.55113  |     1.35000
   14 F                |   9 C                |     2.55113  |     1.35000
   15 F                |   9 C                |     2.55113  |     1.35000
 ------------------------------------------------------------------------------
                         number of included internuclear distances:         14
 ==============================================================================



 ==============================================================================
                                 internuclear angles
 ------------------------------------------------------------------------------
        center 1       |       center 2       |       center 3       |  degrees
 ------------------------------------------------------------------------------
    2 C                |   1 O                |   6 H                |   105.40
    1 O                |   2 C                |   3 C                |   124.50
    1 O                |   2 C                |   7 C                |   113.00
    3 C                |   2 C                |   7 C                |   122.50
    2 C                |   3 C                |   4 C                |   119.50
    2 C                |   3 C                |   8 H                |   120.00
    4 C                |   3 C                |   8 H                |   120.50
    3 C                |   4 C                |   5 O                |   123.50
    3 C                |   4 C                |   9 C                |   117.60
    5 O                |   4 C                |   9 C                |   118.90
    2 C                |   7 C                |  10 H                |   110.00
    2 C                |   7 C                |  11 H                |   110.00
    2 C                |   7 C                |  12 H                |   110.00
   10 H                |   7 C                |  11 H                |   108.94
   10 H                |   7 C                |  12 H                |   108.94
   11 H                |   7 C                |  12 H                |   108.94
    4 C                |   9 C                |  13 F                |   110.00
    4 C                |   9 C                |  14 F                |   110.00
    4 C                |   9 C                |  15 F                |   110.00
   13 F                |   9 C                |  14 F                |   108.94
   13 F                |   9 C                |  15 F                |   108.94
   14 F                |   9 C                |  15 F                |   108.94
 ------------------------------------------------------------------------------
                            number of included internuclear angles:         22
 ==============================================================================





 Summary of "ao basis" -> "" (spherical)
 ------------------------------------------------------------------------------
       Tag                 Description            Shells   Functions and Types
 ---------------- ------------------------------  ------  ---------------------
 *                        aug-cc-pVDZ                 on all atoms 


 
  Deleted DRIVER restart files 
 
 
 
                           NWChem Geometry Optimization
                           ----------------------------
 
 
 
 
                                   Me,H,MeF Open
 
 
 maximum gradient threshold         (gmax) =   0.000015
 rms gradient threshold             (grms) =   0.000010
 maximum cartesian step threshold   (xmax) =   0.000060
 rms cartesian step threshold       (xrms) =   0.000040
 fixed trust radius                (trust) =   0.300000
 maximum step size to saddle      (sadstp) =   0.100000
 energy precision                  (eprec) =   1.0D-07
 maximum number of steps          (nptopt) =   99
 initial hessian option           (inhess) =    0
 line search option               (linopt) =    1
 hessian update option            (modupd) =    1
 saddle point option              (modsad) =    0
 initial eigen-mode to follow     (moddir) =    0
 initial variable to follow       (vardir) =    0
 follow first negative mode     (firstneg) =    T
 apply conjugacy                    (opcg) =    F
 source of zmatrix                         =   user    


          -------------------
          Energy Minimization
          -------------------

 
 Names of Z-matrix variables 
    1 R1           2 R2           3 A1           4 R3           5 A2      
    6 D0           7 R4           8 A3           9 D0          10 R5      
   11 A4          12 D180        13 R6          14 A5          15 D180    
   16 R7          17 A6          18 D180        19 R8          20 A7      
   21 D180        22 R9          23 A8          24 D1          25 R10     
   26 A9          27 D2          28 R11         29 A10         30 D3      
   31 R12         32 A11         33 D4          34 R13         35 A12     
   36 D5          37 R14         38 A13         39 D6      
 
 Variables with the same non-blank name are constrained to be equal
 
     variables named       D0 =     6    9 
     variables named     D180 =    12   15   18   21 

 Number of frozen variables =    6
           Frozen variables =    6    9   12   15   18   21
 
 Using diagonal initial Hessian 
 Scaling for Hessian diagonals: bonds = 1.00  angles = 0.25  torsions = 0.10

          --------
          Step   0
          --------
 
 
                         Geometry "geometry" -> "geometry"
                         ---------------------------------
 
 Output coordinates in angstroms (scale by  1.889725989 to convert to a.u.)
 
  No.       Tag          Charge          X              Y              Z
 ---- ---------------- ---------- -------------- -------------- --------------
    1 O                    8.0000    -1.11259507    -2.44244690     0.00000000
    2 C                    6.0000     0.16233347    -2.06721601     0.00000000
    3 C                    6.0000     0.58578636    -0.77166337     0.00000000
    4 C                    6.0000    -0.38520832     0.29171301     0.00000000
    5 O                    8.0000    -1.61917033     0.09848062     0.00000000
    6 H                    1.0000    -1.09524808    -3.43629552     0.00000000
    7 C                    6.0000     1.10490747    -3.21472604     0.00000000
    8 H                    1.0000     1.64061921    -0.54937601     0.00000000
    9 C                    6.0000     0.12748088     1.70031188     0.00000000
   10 H                    1.0000     2.14245265    -2.84934953     0.00000000
   11 H                    1.0000     0.94433409    -3.83349378    -0.89517745
   12 H                    1.0000     0.94433409    -3.83349378     0.89517745
   13 F                    9.0000    -0.90667850     2.56807589     0.00000000
   14 F                    9.0000     0.88144103     1.91725217     1.09862687
   15 F                    9.0000     0.88144103     1.91725217    -1.09862687
 
      Atomic Mass 
      ----------- 
 
      O                 15.994910
      C                 12.000000
      H                  1.007825
      F                 18.998400
 

 Effective nuclear repulsion energy (a.u.)     563.1220748267

            Nuclear Dipole moment (a.u.) 
            ----------------------------
        X                 Y               Z
 ---------------- ---------------- ----------------
     0.0000000000     0.0000000000     0.0000000000
 
      Symmetry information
      --------------------
 
 Group name             Cs        
 Group number              2
 Group order               2
 No. of unique centers    13
 
      Symmetry unique atoms
 
     1    2    3    4    5    6    7    8    9   10   11   13   14
 
                      Basis "ao basis" -> "ao basis" (spherical)
                      -----
  O (Oxygen)
  ----------
            Exponent  Coefficients 
       -------------- ---------------------------------------------------------
  1 S  1.17200000E+04  0.000710
  1 S  1.75900000E+03  0.005470
  1 S  4.00800000E+02  0.027837
  1 S  1.13700000E+02  0.104800
  1 S  3.70300000E+01  0.283062
  1 S  1.32700000E+01  0.448719
  1 S  5.02500000E+00  0.270952
  1 S  1.01300000E+00  0.015458
 
  2 S  1.17200000E+04 -0.000160
  2 S  1.75900000E+03 -0.001263
  2 S  4.00800000E+02 -0.006267
  2 S  1.13700000E+02 -0.025716
  2 S  3.70300000E+01 -0.070924
  2 S  1.32700000E+01 -0.165411
  2 S  5.02500000E+00 -0.116955
  2 S  1.01300000E+00  0.557368
 
  3 S  3.02300000E-01  1.000000
 
  4 S  7.89600000E-02  1.000000
 
  5 P  1.77000000E+01  0.043018
  5 P  3.85400000E+00  0.228913
  5 P  1.04600000E+00  0.508728
 
  6 P  2.75300000E-01  1.000000
 
  7 P  6.85600000E-02  1.000000
 
  8 D  1.18500000E+00  1.000000
 
  9 D  3.32000000E-01  1.000000
 
  C (Carbon)
  ----------
            Exponent  Coefficients 
       -------------- ---------------------------------------------------------
  1 S  6.66500000E+03  0.000692
  1 S  1.00000000E+03  0.005329
  1 S  2.28000000E+02  0.027077
  1 S  6.47100000E+01  0.101718
  1 S  2.10600000E+01  0.274740
  1 S  7.49500000E+00  0.448564
  1 S  2.79700000E+00  0.285074
  1 S  5.21500000E-01  0.015204
 
  2 S  6.66500000E+03 -0.000146
  2 S  1.00000000E+03 -0.001154
  2 S  2.28000000E+02 -0.005725
  2 S  6.47100000E+01 -0.023312
  2 S  2.10600000E+01 -0.063955
  2 S  7.49500000E+00 -0.149981
  2 S  2.79700000E+00 -0.127262
  2 S  5.21500000E-01  0.544529
 
  3 S  1.59600000E-01  1.000000
 
  4 S  4.69000000E-02  1.000000
 
  5 P  9.43900000E+00  0.038109
  5 P  2.00200000E+00  0.209480
  5 P  5.45600000E-01  0.508557
 
  6 P  1.51700000E-01  1.000000
 
  7 P  4.04100000E-02  1.000000
 
  8 D  5.50000000E-01  1.000000
 
  9 D  1.51000000E-01  1.000000
 
  H (Hydrogen)
  ------------
            Exponent  Coefficients 
       -------------- ---------------------------------------------------------
  1 S  1.30100000E+01  0.019685
  1 S  1.96200000E+00  0.137977
  1 S  4.44600000E-01  0.478148
 
  2 S  1.22000000E-01  1.000000
 
  3 S  2.97400000E-02  1.000000
 
  4 P  7.27000000E-01  1.000000
 
  5 P  1.41000000E-01  1.000000
 
  F (Fluorine)
  ------------
            Exponent  Coefficients 
       -------------- ---------------------------------------------------------
  1 S  1.47100000E+04  0.000721
  1 S  2.20700000E+03  0.005553
  1 S  5.02800000E+02  0.028267
  1 S  1.42600000E+02  0.106444
  1 S  4.64700000E+01  0.286814
  1 S  1.67000000E+01  0.448641
  1 S  6.35600000E+00  0.264761
  1 S  1.31600000E+00  0.015333
 
  2 S  1.47100000E+04 -0.000165
  2 S  2.20700000E+03 -0.001308
  2 S  5.02800000E+02 -0.006495
  2 S  1.42600000E+02 -0.026691
  2 S  4.64700000E+01 -0.073690
  2 S  1.67000000E+01 -0.170776
  2 S  6.35600000E+00 -0.112327
  2 S  1.31600000E+00  0.562814
 
  3 S  3.89700000E-01  1.000000
 
  4 S  9.86300000E-02  1.000000
 
  5 P  2.26700000E+01  0.044878
  5 P  4.97700000E+00  0.235718
  5 P  1.34700000E+00  0.508521
 
  6 P  3.47100000E-01  1.000000
 
  7 P  8.50200000E-02  1.000000
 
  8 D  1.64000000E+00  1.000000
 
  9 D  4.64000000E-01  1.000000
 


 Summary of "ao basis" -> "ao basis" (spherical)
 ------------------------------------------------------------------------------
       Tag                 Description            Shells   Functions and Types
 ---------------- ------------------------------  ------  ---------------------
 O                        aug-cc-pVDZ                9       23   4s3p2d
 C                        aug-cc-pVDZ                9       23   4s3p2d
 H                        aug-cc-pVDZ                5        9   3s2p
 F                        aug-cc-pVDZ                9       23   4s3p2d


                                 NWChem SCF Module
                                 -----------------
 
 
                                   Me,H,MeF Open
 
 

  ao basis        = "ao basis"
  functions       =   275
  atoms           =    15
  closed shells   =    39
  open shells     =     0
  charge          =   0.00
  wavefunction    = RHF 
  input vectors   = atomic
  output vectors  = ./5O.movecs
  use symmetry    = T
  symmetry adapt  = T


 Summary of "ao basis" -> "ao basis" (spherical)
 ------------------------------------------------------------------------------
       Tag                 Description            Shells   Functions and Types
 ---------------- ------------------------------  ------  ---------------------
 O                        aug-cc-pVDZ                9       23   4s3p2d
 C                        aug-cc-pVDZ                9       23   4s3p2d
 H                        aug-cc-pVDZ                5        9   3s2p
 F                        aug-cc-pVDZ                9       23   4s3p2d


      Symmetry analysis of basis
      --------------------------
 
        a'        181
        a"         94
 

int_init: setting std/high accuracies to  1.0D-16  1.0D-32

 Forming initial guess at       0.5s


 Forcing the number of linearly dependent vectors to be  0
 
      Superposition of Atomic Density Guess
      -------------------------------------
 
 Sum of atomic energies:        -638.53116575
 
      Non-variational initial energy
      ------------------------------

 Total energy =    -643.165479
 1-e energy   =   -1999.406554
 2-e energy   =     793.119000
 HOMO         =      -0.300832
 LUMO         =      -0.063878
 
 
      Symmetry analysis of molecular orbitals - initial
      -------------------------------------------------
 
  Numbering of irreducible representations: 
 
     1 a'          2 a"      
 
  Orbital symmetries:
 
     1 a'          2 a"          3 a'          4 a'          5 a'      
     6 a'          7 a'          8 a'          9 a'         10 a'      
    11 a'         12 a'         13 a'         14 a"         15 a'      
    16 a'         17 a'         18 a'         19 a'         20 a'      
    21 a"         22 a'         23 a'         24 a'         25 a"      
    26 a'         27 a'         28 a"         29 a"         30 a'      
    31 a"         32 a'         33 a"         34 a'         35 a"      
    36 a'         37 a'         38 a'         39 a"         40 a"      
    41 a'         42 a'         43 a'         44 a"         45 a'      
    46 a'         47 a'         48 a"         49 a"      
 

 Starting SCF solution at       6.8s



 ----------------------------------------------
         Quadratically convergent ROHF

 Convergence threshold     :          1.000E-09
 Maximum no. of iterations :           99
 Final Fock-matrix accuracy:          1.000E-15
 ----------------------------------------------

 Warning: symmetry breaking in RHF:   1.223360302171640E-011

              iter       energy          gnorm     gmax       time
             ----- ------------------- --------- --------- --------
                 1     -640.0584791161  2.22D+00  3.19D-01     13.6
 Warning: symmetry breaking in RHF:   7.039469295846968E-010
 Warning: symmetry breaking in RHF:   4.807182130764070E-010
                 2     -640.3102319880  6.37D-01  9.59D-02     28.1
 Warning: symmetry breaking in RHF:   3.866190862690127E-010
                 3     -640.3491587596  2.58D-02  6.22D-03     52.8
 Warning: symmetry breaking in RHF:   3.872231687958754E-010
                 4     -640.3493041789  3.22D-04  6.34D-05     89.8
 Warning: symmetry breaking in RHF:   3.871956830361508E-010
                 5     -640.3493041907  3.91D-08  1.04D-08    153.4
 Warning: symmetry breaking in RHF:   3.869078359658644E-010
                 6     -640.3493041907  2.37D-10  2.71D-11    200.9


       Final RHF  results 
       ------------------ 

         Total SCF energy =   -640.349304190723
      One-electron energy =  -2003.118833938586
      Two-electron energy =    799.647454921145
 Nuclear repulsion energy =    563.122074826718

        Time for solution =    194.7s


 
       Symmetry analysis of molecular orbitals - final
       -----------------------------------------------
 
  Numbering of irreducible representations: 
 
     1 a'          2 a"      
 
  Orbital symmetries:
 
     1 a"          2 a'          3 a'          4 a'          5 a'      
     6 a'          7 a'          8 a'          9 a'         10 a'      
    11 a'         12 a"         13 a'         14 a'         15 a'      
    16 a'         17 a'         18 a'         19 a'         20 a'      
    21 a"         22 a'         23 a'         24 a'         25 a"      
    26 a'         27 a'         28 a"         29 a'         30 a"      
    31 a"         32 a'         33 a'         34 a'         35 a"      
    36 a'         37 a"         38 a'         39 a"         40 a'      
    41 a'         42 a"         43 a'         44 a'         45 a"      
    46 a'         47 a'         48 a"         49 a'      
 
             Final eigenvalues
             -----------------

              1      
    1  -26.3609
    2  -26.3609
    3  -26.3457
    4  -20.6424
    5  -20.5659
    6  -11.5213
    7  -11.3663
    8  -11.3591
    9  -11.2794
   10  -11.2471
   11   -1.7323
   12   -1.6466
   13   -1.6354
   14   -1.4608
   15   -1.3801
   16   -1.1086
   17   -1.0462
   18   -0.9963
   19   -0.8923
   20   -0.8318
   21   -0.8266
   22   -0.8128
   23   -0.7605
   24   -0.7195
   25   -0.7139
   26   -0.7103
   27   -0.6741
   28   -0.6705
   29   -0.6585
   30   -0.6561
   31   -0.6505
   32   -0.6360
   33   -0.5902
   34   -0.5847
   35   -0.5770
   36   -0.5559
   37   -0.5286
   38   -0.4400
   39   -0.3669
   40    0.0192
   41    0.0381
   42    0.0427
   43    0.0510
   44    0.0702
   45    0.0734
   46    0.0833
   47    0.0923
   48    0.1096
   49    0.1151
 
                       ROHF Final Molecular Orbital Analysis
                       -------------------------------------
 
 Vector   14  Occ=2.000000D+00  E=-1.460785D+00  Symmetry=a'
              MO Center= -8.5D-01, -2.5D+00, -1.2D-18, r^2= 6.7D-01
   Bfn.  Coefficient  Atom+Function         Bfn.  Coefficient  Atom+Function  
  ----- ------------  ---------------      ----- ------------  ---------------
     3      0.483397   1 O  s                 2      0.406861   1 O  s         
    27     -0.268670   2 C  s               116      0.173078   6 H  s         
     4      0.170796   1 O  s                25      0.158626   2 C  s         
 
 Vector   15  Occ=2.000000D+00  E=-1.380103D+00  Symmetry=a'
              MO Center= -1.2D+00,  1.3D-01,  4.6D-19, r^2= 7.3D-01
   Bfn.  Coefficient  Atom+Function         Bfn.  Coefficient  Atom+Function  
  ----- ------------  ---------------      ----- ------------  ---------------
    95      0.458328   5 O  s                94      0.389343   5 O  s         
    72      0.237198   4 C  s                71      0.222561   4 C  s         
    73     -0.207078   4 C  s               128      0.181553   7 C  s         
    74     -0.160029   4 C  px        
 
 Vector   16  Occ=2.000000D+00  E=-1.108611D+00  Symmetry=a'
              MO Center=  3.8D-01, -1.5D+00,  2.6D-18, r^2= 2.6D+00
   Bfn.  Coefficient  Atom+Function         Bfn.  Coefficient  Atom+Function  
  ----- ------------  ---------------      ----- ------------  ---------------
    48      0.248725   3 C  s                50     -0.248759   3 C  s         
    49      0.242321   3 C  s                25      0.228911   2 C  s         
    73      0.198931   4 C  s               126      0.178828   7 C  s         
 
 Vector   17  Occ=2.000000D+00  E=-1.046211D+00  Symmetry=a'
              MO Center=  3.3D-01, -3.1D-01,  3.1D-14, r^2= 5.7D+00
   Bfn.  Coefficient  Atom+Function         Bfn.  Coefficient  Atom+Function  
  ----- ------------  ---------------      ----- ------------  ---------------
   160      0.287965   9 C  s                73     -0.239175   4 C  s         
   158     -0.235819   9 C  s                50      0.207293   3 C  s         
   126      0.208222   7 C  s                95      0.166311   5 O  s         
    71     -0.165087   4 C  s         
 
 Vector   18  Occ=2.000000D+00  E=-9.963059D-01  Symmetry=a'
              MO Center=  4.3D-01, -7.1D-01, -2.2D-12, r^2= 6.2D+00
   Bfn.  Coefficient  Atom+Function         Bfn.  Coefficient  Atom+Function  
  ----- ------------  ---------------      ----- ------------  ---------------
   160      0.343880   9 C  s                32      0.239457   2 C  py        
   158     -0.225942   9 C  s               126     -0.219056   7 C  s         
    48      0.187491   3 C  s                29      0.179133   2 C  py        
    55      0.165210   3 C  py               75     -0.155129   4 C  py        
 
 Vector   19  Occ=2.000000D+00  E=-8.922502D-01  Symmetry=a'
              MO Center=  1.2D-01,  6.6D-01,  2.8D-17, r^2= 5.3D+00
   Bfn.  Coefficient  Atom+Function         Bfn.  Coefficient  Atom+Function  
  ----- ------------  ---------------      ----- ------------  ---------------
   160      0.345819   9 C  s               162     -0.238302   9 C  py        
   211     -0.218380  13 F  px              236      0.181190  14 F  pz        
   259     -0.181190  15 F  pz               72      0.165867   4 C  s         
    71      0.152174   4 C  s         
 
 Vector   20  Occ=2.000000D+00  E=-8.318231D-01  Symmetry=a'
              MO Center=  1.1D-02,  7.5D-01,  1.5D-13, r^2= 5.6D+00
   Bfn.  Coefficient  Atom+Function         Bfn.  Coefficient  Atom+Function  
  ----- ------------  ---------------      ----- ------------  ---------------
    27      0.348086   2 C  s                50     -0.316093   3 C  s         
    78     -0.283883   4 C  py              161      0.258211   9 C  px        
   212      0.249123  13 F  py               26     -0.246410   2 C  s         
   236     -0.246161  14 F  pz              259      0.246161  15 F  pz        
    55     -0.179107   3 C  py              159      0.174407   9 C  s         
 
 Vector   21  Occ=2.000000D+00  E=-8.266263D-01  Symmetry=a"
              MO Center=  5.1D-01,  2.0D+00, -1.0D-13, r^2= 1.9D+00
   Bfn.  Coefficient  Atom+Function         Bfn.  Coefficient  Atom+Function  
  ----- ------------  ---------------      ----- ------------  ---------------
   163      0.316580   9 C  pz              234     -0.298564  14 F  px        
   257      0.298564  15 F  px              213      0.243788  13 F  pz        
   237     -0.188207  14 F  px              260      0.188207  15 F  px        
   236     -0.179915  14 F  pz              259     -0.179915  15 F  pz        
   216      0.164967  13 F  pz        
 
 Vector   22  Occ=2.000000D+00  E=-8.128100D-01  Symmetry=a'
              MO Center= -1.7D-01,  3.0D-01,  2.1D-13, r^2= 6.7D+00
   Bfn.  Coefficient  Atom+Function         Bfn.  Coefficient  Atom+Function  
  ----- ------------  ---------------      ----- ------------  ---------------
   211      0.256099  13 F  px               72     -0.210302   4 C  s         
    50     -0.204946   3 C  s                 5     -0.199457   1 O  px        
    55      0.196166   3 C  py                6     -0.177937   1 O  py        
   162      0.174194   9 C  py              235      0.171395  14 F  py        
   258      0.171395  15 F  py              116      0.169389   6 H  s         
 
 Vector   23  Occ=2.000000D+00  E=-7.605378D-01  Symmetry=a'
              MO Center= -1.8D-02, -9.0D-01,  9.7D-13, r^2= 4.9D+00
   Bfn.  Coefficient  Atom+Function         Bfn.  Coefficient  Atom+Function  
  ----- ------------  ---------------      ----- ------------  ---------------
    55      0.465895   3 C  py               32      0.442343   2 C  py        
    72     -0.382578   4 C  s                78      0.301946   4 C  py        
    26      0.299441   2 C  s                50     -0.273743   3 C  s         
    73      0.262769   4 C  s                77     -0.245028   4 C  px        
   133      0.214291   7 C  py               28      0.206918   2 C  px        
 
 Vector   24  Occ=2.000000D+00  E=-7.194915D-01  Symmetry=a'
              MO Center= -1.3D-01, -1.7D+00, -3.0D-13, r^2= 5.3D+00
   Bfn.  Coefficient  Atom+Function         Bfn.  Coefficient  Atom+Function  
  ----- ------------  ---------------      ----- ------------  ---------------
     6      0.272165   1 O  py                5     -0.216329   1 O  px        
     3      0.197269   1 O  s               129      0.193582   7 C  px        
    29      0.189028   2 C  py              116     -0.166142   6 H  s         
   180      0.162954  10 H  s                 9      0.157964   1 O  py        
    73      0.152696   4 C  s         
 
 Vector   25  Occ=2.000000D+00  E=-7.139101D-01  Symmetry=a"
              MO Center=  5.3D-01,  2.0D+00, -6.1D-16, r^2= 2.0D+00
   Bfn.  Coefficient  Atom+Function         Bfn.  Coefficient  Atom+Function  
  ----- ------------  ---------------      ----- ------------  ---------------
   235      0.412837  14 F  py              258     -0.412837  15 F  py        
   238      0.288320  14 F  py              261     -0.288320  15 F  py        
   213      0.276005  13 F  pz              216      0.191745  13 F  pz        
 
 Vector   26  Occ=2.000000D+00  E=-7.103403D-01  Symmetry=a'
              MO Center=  2.4D-01,  1.7D+00,  2.9D-13, r^2= 3.9D+00
   Bfn.  Coefficient  Atom+Function         Bfn.  Coefficient  Atom+Function  
  ----- ------------  ---------------      ----- ------------  ---------------
   212      0.346543  13 F  py              234     -0.319371  14 F  px        
   257     -0.319371  15 F  px              215      0.233671  13 F  py        
   237     -0.221239  14 F  px              260     -0.221239  15 F  px        
    50      0.156322   3 C  s                73     -0.152518   4 C  s         
 
 Vector   27  Occ=2.000000D+00  E=-6.740918D-01  Symmetry=a'
              MO Center= -1.9D-01,  4.8D-01, -1.2D-14, r^2= 5.1D+00
   Bfn.  Coefficient  Atom+Function         Bfn.  Coefficient  Atom+Function  
  ----- ------------  ---------------      ----- ------------  ---------------
    26      0.308060   2 C  s               211     -0.291976  13 F  px        
   149     -0.284755   8 H  s                78      0.244085   4 C  py        
    27     -0.241045   2 C  s                55      0.239509   3 C  py        
    97      0.222178   5 O  px              160      0.206748   9 C  s         
    32      0.201279   2 C  py               50      0.199335   3 C  s         
 
 Vector   28  Occ=2.000000D+00  E=-6.704847D-01  Symmetry=a"
              MO Center=  6.0D-01,  1.9D+00, -4.6D-13, r^2= 2.2D+00
   Bfn.  Coefficient  Atom+Function         Bfn.  Coefficient  Atom+Function  
  ----- ------------  ---------------      ----- ------------  ---------------
   236      0.393808  14 F  pz              259      0.393808  15 F  pz        
   239      0.262535  14 F  pz              262      0.262535  15 F  pz        
   213      0.234061  13 F  pz              216      0.164836  13 F  pz        
   235     -0.156959  14 F  py              258      0.156959  15 F  py        
 
 Vector   29  Occ=2.000000D+00  E=-6.584628D-01  Symmetry=a'
              MO Center= -1.2D-01,  9.7D-01, -1.8D-13, r^2= 4.8D+00
   Bfn.  Coefficient  Atom+Function         Bfn.  Coefficient  Atom+Function  
  ----- ------------  ---------------      ----- ------------  ---------------
    50      0.473507   3 C  s               211      0.324755  13 F  px        
    27     -0.310471   2 C  s                73     -0.262455   4 C  s         
    49     -0.228906   3 C  s               149     -0.225719   8 H  s         
   214      0.220394  13 F  px              235     -0.220862  14 F  py        
   258     -0.220862  15 F  py               97      0.212434   5 O  px        
 
 Vector   30  Occ=2.000000D+00  E=-6.560625D-01  Symmetry=a"
              MO Center=  1.3D-01, -2.6D+00, -4.4D-13, r^2= 3.0D+00
   Bfn.  Coefficient  Atom+Function         Bfn.  Coefficient  Atom+Function  
  ----- ------------  ---------------      ----- ------------  ---------------
     7      0.348415   1 O  pz              131      0.282460   7 C  pz        
    10      0.255854   1 O  pz               30      0.214047   2 C  pz        
   189     -0.199229  11 H  s               198      0.199229  12 H  s         
 
 Vector   31  Occ=2.000000D+00  E=-6.505481D-01  Symmetry=a"
              MO Center= -4.9D-02,  2.2D+00,  2.1D-13, r^2= 2.3D+00
   Bfn.  Coefficient  Atom+Function         Bfn.  Coefficient  Atom+Function  
  ----- ------------  ---------------      ----- ------------  ---------------
   213      0.497341  13 F  pz              216      0.346194  13 F  pz        
   234      0.292897  14 F  px              257     -0.292897  15 F  px        
   237      0.202157  14 F  px              260     -0.202157  15 F  px        
 
 Vector   32  Occ=2.000000D+00  E=-6.360095D-01  Symmetry=a'
              MO Center= -2.3D-02,  2.0D-01, -1.0D-12, r^2= 5.8D+00
   Bfn.  Coefficient  Atom+Function         Bfn.  Coefficient  Atom+Function  
  ----- ------------  ---------------      ----- ------------  ---------------
   212     -0.309630  13 F  py               49      0.297493   3 C  s         
    72      0.242236   4 C  s               159     -0.239084   9 C  s         
    75     -0.231167   4 C  py               51     -0.222596   3 C  px        
   215     -0.223177  13 F  py              149     -0.205074   8 H  s         
   165      0.188818   9 C  py              148     -0.182737   8 H  s         
 
 Vector   33  Occ=2.000000D+00  E=-5.901819D-01  Symmetry=a'
              MO Center= -1.3D-01, -2.2D-01,  2.9D-12, r^2= 4.2D+00
   Bfn.  Coefficient  Atom+Function         Bfn.  Coefficient  Atom+Function  
  ----- ------------  ---------------      ----- ------------  ---------------
    50      0.380722   3 C  s               149     -0.343512   8 H  s         
    97     -0.334758   5 O  px               73     -0.317350   4 C  s         
    74      0.308448   4 C  px              148     -0.246284   8 H  s         
    51     -0.230120   3 C  px               27     -0.198981   2 C  s         
   159      0.188369   9 C  s                77      0.167408   4 C  px        
 
 Vector   34  Occ=2.000000D+00  E=-5.846835D-01  Symmetry=a'
              MO Center=  6.6D-01, -2.1D+00, -2.8D-13, r^2= 5.3D+00
   Bfn.  Coefficient  Atom+Function         Bfn.  Coefficient  Atom+Function  
  ----- ------------  ---------------      ----- ------------  ---------------
    55      0.481577   3 C  py               32      0.366810   2 C  py        
    27      0.302913   2 C  s               130      0.300121   7 C  py        
   133      0.274996   7 C  py              180      0.260536  10 H  s         
   128     -0.254841   7 C  s               127      0.252236   7 C  s         
   181      0.241412  10 H  s                29     -0.213896   2 C  py        
 
 Vector   35  Occ=2.000000D+00  E=-5.770271D-01  Symmetry=a"
              MO Center=  6.1D-02, -2.9D+00,  2.1D-13, r^2= 2.9D+00
   Bfn.  Coefficient  Atom+Function         Bfn.  Coefficient  Atom+Function  
  ----- ------------  ---------------      ----- ------------  ---------------
     7      0.402140   1 O  pz              131     -0.314155   7 C  pz        
    10      0.310457   1 O  pz              189      0.241464  11 H  s         
   198     -0.241464  12 H  s         
 
 Vector   36  Occ=2.000000D+00  E=-5.559212D-01  Symmetry=a'
              MO Center=  5.4D-03, -2.3D+00, -1.4D-12, r^2= 3.2D+00
   Bfn.  Coefficient  Atom+Function         Bfn.  Coefficient  Atom+Function  
  ----- ------------  ---------------      ----- ------------  ---------------
     5      0.300328   1 O  px              129      0.299937   7 C  px        
     6     -0.229219   1 O  py               29      0.220279   2 C  py        
   180      0.216917  10 H  s                 8      0.212579   1 O  px        
    28     -0.202499   2 C  px              133     -0.191627   7 C  py        
    49      0.172699   3 C  s               116      0.165274   6 H  s         
 
 Vector   37  Occ=2.000000D+00  E=-5.286145D-01  Symmetry=a"
              MO Center= -9.9D-01, -1.0D-01,  2.2D-13, r^2= 2.0D+00
   Bfn.  Coefficient  Atom+Function         Bfn.  Coefficient  Atom+Function  
  ----- ------------  ---------------      ----- ------------  ---------------
    99      0.420485   5 O  pz               76      0.323524   4 C  pz        
   102      0.320916   5 O  pz                7     -0.203685   1 O  pz        
    79      0.174565   4 C  pz               10     -0.156221   1 O  pz        
 
 Vector   38  Occ=2.000000D+00  E=-4.399750D-01  Symmetry=a'
              MO Center= -1.0D+00,  7.3D-02, -6.1D-13, r^2= 2.3D+00
   Bfn.  Coefficient  Atom+Function         Bfn.  Coefficient  Atom+Function  
  ----- ------------  ---------------      ----- ------------  ---------------
    98      0.541299   5 O  py              101      0.417534   5 O  py        
   159     -0.261577   9 C  s                50     -0.250469   3 C  s         
    27      0.216103   2 C  s               162      0.200117   9 C  py        
    55      0.181216   3 C  py               81     -0.177055   4 C  py        
   165      0.165375   9 C  py               75     -0.157646   4 C  py        
 
 Vector   39  Occ=2.000000D+00  E=-3.668578D-01  Symmetry=a"
              MO Center=  2.2D-02, -1.1D+00,  3.3D-13, r^2= 2.6D+00
   Bfn.  Coefficient  Atom+Function         Bfn.  Coefficient  Atom+Function  
  ----- ------------  ---------------      ----- ------------  ---------------
    53      0.404883   3 C  pz               56      0.306691   3 C  pz        
    30      0.258522   2 C  pz               99     -0.251805   5 O  pz        
     7     -0.213214   1 O  pz              102     -0.195112   5 O  pz        
    33      0.190960   2 C  pz               10     -0.169908   1 O  pz        
 
 Vector   40  Occ=0.000000D+00  E= 1.916017D-02  Symmetry=a'
              MO Center=  7.5D-01, -4.7D+00, -1.1D-14, r^2= 1.6D+01
   Bfn.  Coefficient  Atom+Function         Bfn.  Coefficient  Atom+Function  
  ----- ------------  ---------------      ----- ------------  ---------------
    50      6.888521   3 C  s                35     -5.886681   2 C  py        
   160      4.873989   9 C  s                27     -4.309251   2 C  s         
    58     -2.768292   3 C  py               81     -2.671927   4 C  py        
   128     -2.061856   7 C  s               182     -1.854220  10 H  s         
   150      1.473572   8 H  s               135      1.406817   7 C  px        
 
 Vector   41  Occ=0.000000D+00  E= 3.810922D-02  Symmetry=a'
              MO Center=  1.9D+00, -2.9D+00, -4.4D-16, r^2= 2.2D+01
   Bfn.  Coefficient  Atom+Function         Bfn.  Coefficient  Atom+Function  
  ----- ------------  ---------------      ----- ------------  ---------------
    50      8.072965   3 C  s                73     -5.400068   4 C  s         
    27     -4.031281   2 C  s               182      3.415882  10 H  s         
    57     -2.717440   3 C  px               81      2.477471   4 C  py        
   118     -2.334172   6 H  s               150      2.186304   8 H  s         
   160     -1.625404   9 C  s                34     -1.376741   2 C  px        
 
 Vector   42  Occ=0.000000D+00  E= 4.270749D-02  Symmetry=a"
              MO Center=  7.5D-01, -4.4D+00,  2.4D-14, r^2= 1.7D+01
   Bfn.  Coefficient  Atom+Function         Bfn.  Coefficient  Atom+Function  
  ----- ------------  ---------------      ----- ------------  ---------------
   191      4.279488  11 H  s               200     -4.279488  12 H  s         
   137      1.903675   7 C  pz              190      0.684023  11 H  s         
   199     -0.684023  12 H  s                59     -0.615095   3 C  pz        
   134      0.450948   7 C  pz               82      0.356398   4 C  pz        
    36      0.171296   2 C  pz              169     -0.158557   9 C  pz        
 
 Vector   43  Occ=0.000000D+00  E= 5.098911D-02  Symmetry=a'
              MO Center=  1.7D+00, -2.4D+00,  5.3D-15, r^2= 2.6D+01
   Bfn.  Coefficient  Atom+Function         Bfn.  Coefficient  Atom+Function  
  ----- ------------  ---------------      ----- ------------  ---------------
    50    -11.669113   3 C  s                27     10.766053   2 C  s         
   150     -6.969636   8 H  s                57      5.522547   3 C  px        
    35      5.256083   2 C  py               73      4.852093   4 C  s         
    58      2.568750   3 C  py              182      2.524889  10 H  s         
   118     -1.991820   6 H  s                34     -1.739306   2 C  px        
 
 Vector   44  Occ=0.000000D+00  E= 7.018566D-02  Symmetry=a'
              MO Center=  1.4D+00, -2.3D+00, -2.4D-13, r^2= 2.8D+01
   Bfn.  Coefficient  Atom+Function         Bfn.  Coefficient  Atom+Function  
  ----- ------------  ---------------      ----- ------------  ---------------
    27     12.236981   2 C  s               160     10.137133   9 C  s         
    50     -8.372708   3 C  s               128     -7.051933   7 C  s         
   182      6.824080  10 H  s                81     -6.024466   4 C  py        
    34      4.999558   2 C  px              150     -4.204457   8 H  s         
   191     -3.980930  11 H  s               200     -3.980930  12 H  s         
 
 Vector   45  Occ=0.000000D+00  E= 7.344313D-02  Symmetry=a"
              MO Center= -1.7D-01, -9.1D-01, -2.0D-13, r^2= 6.5D+00
   Bfn.  Coefficient  Atom+Function         Bfn.  Coefficient  Atom+Function  
  ----- ------------  ---------------      ----- ------------  ---------------
   191      1.326098  11 H  s               200     -1.326098  12 H  s         
   137      0.865337   7 C  pz               36     -0.718959   2 C  pz        
    33     -0.365294   2 C  pz               79      0.342144   4 C  pz        
    30     -0.325569   2 C  pz               76      0.312470   4 C  pz        
   105     -0.276722   5 O  pz               13      0.269659   1 O  pz        
 
 Vector   46  Occ=0.000000D+00  E= 8.325694D-02  Symmetry=a'
              MO Center=  6.5D-01,  1.3D+00, -5.5D-15, r^2= 2.7D+01
   Bfn.  Coefficient  Atom+Function         Bfn.  Coefficient  Atom+Function  
  ----- ------------  ---------------      ----- ------------  ---------------
   160     25.374387   9 C  s                27    -20.906818   2 C  s         
    73    -19.066989   4 C  s                50     18.563791   3 C  s         
    35    -11.252387   2 C  py               81    -10.300396   4 C  py        
   168     -5.617678   9 C  py              128     -5.521253   7 C  s         
    58     -5.347581   3 C  py               57     -4.429605   3 C  px        
 
 Vector   47  Occ=0.000000D+00  E= 9.225296D-02  Symmetry=a'
              MO Center=  3.2D-01, -6.5D-01,  1.6D-15, r^2= 2.5D+01
   Bfn.  Coefficient  Atom+Function         Bfn.  Coefficient  Atom+Function  
  ----- ------------  ---------------      ----- ------------  ---------------
   128     23.508797   7 C  s                73    -16.639434   4 C  s         
    35     13.173034   2 C  py               27     -9.079870   2 C  s         
    58      8.700642   3 C  py               81      6.376729   4 C  py        
   160     -6.325222   9 C  s               136      6.280457   7 C  py        
    34     -6.171246   2 C  px              182      5.311729  10 H  s         
 
 Vector   48  Occ=0.000000D+00  E= 1.095964D-01  Symmetry=a"
              MO Center=  3.9D-01,  1.5D+00,  2.0D-13, r^2= 1.7D+01
   Bfn.  Coefficient  Atom+Function         Bfn.  Coefficient  Atom+Function  
  ----- ------------  ---------------      ----- ------------  ---------------
   169      2.911544   9 C  pz               36      1.321270   2 C  pz        
   233     -1.218203  14 F  s               256      1.218203  15 F  s         
    82     -1.127998   4 C  pz              191      0.821929  11 H  s         
   200     -0.821929  12 H  s               166      0.612976   9 C  pz        
   219     -0.468764  13 F  pz              190      0.438194  11 H  s         
 
 Vector   49  Occ=0.000000D+00  E= 1.151088D-01  Symmetry=a'
              MO Center= -5.8D-02, -6.3D-01, -5.2D-15, r^2= 2.7D+01
   Bfn.  Coefficient  Atom+Function         Bfn.  Coefficient  Atom+Function  
  ----- ------------  ---------------      ----- ------------  ---------------
    73     27.402036   4 C  s               160    -16.326109   9 C  s         
    50    -12.510455   3 C  s               128     10.081481   7 C  s         
    80      6.881822   4 C  px               27     -6.043778   2 C  s         
    34     -5.187571   2 C  px              150     -4.856940   8 H  s         
    57      4.672880   3 C  px              168      4.247668   9 C  py        
 
 Vector   50  Occ=0.000000D+00  E= 1.168015D-01  Symmetry=a"
              MO Center=  1.1D+00, -2.0D+00, -3.1D-14, r^2= 1.5D+01
   Bfn.  Coefficient  Atom+Function         Bfn.  Coefficient  Atom+Function  
  ----- ------------  ---------------      ----- ------------  ---------------
    36      4.683647   2 C  pz               59     -3.582874   3 C  pz        
   137     -3.293071   7 C  pz              191     -1.692492  11 H  s         
   200      1.692492  12 H  s                82      1.337055   4 C  pz        
   190     -0.899224  11 H  s               199      0.899224  12 H  s         
    13     -0.763236   1 O  pz              134     -0.392515   7 C  pz        
 
 Vector   51  Occ=0.000000D+00  E= 1.252081D-01  Symmetry=a'
              MO Center= -8.6D-01, -2.9D+00, -1.6D-14, r^2= 2.2D+01
   Bfn.  Coefficient  Atom+Function         Bfn.  Coefficient  Atom+Function  
  ----- ------------  ---------------      ----- ------------  ---------------
    50     27.545974   3 C  s                35    -16.290722   2 C  py        
    27    -10.845782   2 C  s               128    -10.173593   7 C  s         
   160      9.761458   9 C  s                73     -5.550205   4 C  s         
    58     -5.061224   3 C  py               81     -4.551767   4 C  py        
   150      3.851925   8 H  s                80     -3.554720   4 C  px        
 
 Vector   52  Occ=0.000000D+00  E= 1.340526D-01  Symmetry=a'
              MO Center=  3.8D-01,  1.0D-01,  2.8D-16, r^2= 2.5D+01
   Bfn.  Coefficient  Atom+Function         Bfn.  Coefficient  Atom+Function  
  ----- ------------  ---------------      ----- ------------  ---------------
    50     26.388328   3 C  s                27    -14.010035   2 C  s         
    35     -8.306817   2 C  py               73     -7.739514   4 C  s         
    58     -6.008998   3 C  py               34     -4.989257   2 C  px        
   167      4.433517   9 C  px               80     -3.798901   4 C  px        
    57     -3.202442   3 C  px              135      3.111293   7 C  px        
 
 Vector   53  Occ=0.000000D+00  E= 1.435325D-01  Symmetry=a'
              MO Center=  2.0D+00, -2.1D+00,  1.6D-14, r^2= 2.2D+01
   Bfn.  Coefficient  Atom+Function         Bfn.  Coefficient  Atom+Function  
  ----- ------------  ---------------      ----- ------------  ---------------
    27     26.398316   2 C  s                50    -25.242005   3 C  s         
    73     18.207338   4 C  s               128    -14.350728   7 C  s         
    81    -12.969226   4 C  py              182     -8.921812  10 H  s         
   135      7.938938   7 C  px               35     -7.829010   2 C  py        
   160      7.292789   9 C  s                57      6.211386   3 C  px        
 
 Vector   54  Occ=0.000000D+00  E= 1.451331D-01  Symmetry=a"
              MO Center=  3.3D-01, -8.0D-01, -2.2D-14, r^2= 2.0D+01
   Bfn.  Coefficient  Atom+Function         Bfn.  Coefficient  Atom+Function  
  ----- ------------  ---------------      ----- ------------  ---------------
    82      3.427117   4 C  pz              191      3.401134  11 H  s         
   200     -3.401134  12 H  s               169     -2.965983   9 C  pz        
   137      2.405375   7 C  pz              190      1.681270  11 H  s         
   199     -1.681270  12 H  s                59     -1.002599   3 C  pz        
   134      0.783754   7 C  pz              105     -0.604410   5 O  pz        
 
 Vector   55  Occ=0.000000D+00  E= 1.522433D-01  Symmetry=a'
              MO Center=  2.0D-02, -1.2D+00,  6.6D-14, r^2= 2.0D+01
   Bfn.  Coefficient  Atom+Function         Bfn.  Coefficient  Atom+Function  
  ----- ------------  ---------------      ----- ------------  ---------------
    50     19.686833   3 C  s                35    -10.273213   2 C  py        
   128     -9.828270   7 C  s                80     -6.604329   4 C  px        
    73     -6.520896   4 C  s                27     -4.303146   2 C  s         
   182     -3.090177  10 H  s                32      2.880564   2 C  py        
    58      2.867364   3 C  py              135      2.646061   7 C  px        
 
 Vector   56  Occ=0.000000D+00  E= 1.615667D-01  Symmetry=a'
              MO Center=  1.8D+00, -1.4D+00,  1.1D-12, r^2= 2.0D+01
   Bfn.  Coefficient  Atom+Function         Bfn.  Coefficient  Atom+Function  
  ----- ------------  ---------------      ----- ------------  ---------------
    50     33.496384   3 C  s                35    -23.013095   2 C  py        
    73    -18.392211   4 C  s               128    -18.438861   7 C  s         
    57    -14.548638   3 C  px              150     13.681593   8 H  s         
    27    -10.562576   2 C  s               135      7.734973   7 C  px        
   182     -7.673109  10 H  s                34      7.387041   2 C  px        
 
 Vector   57  Occ=0.000000D+00  E= 1.709700D-01  Symmetry=a"
              MO Center=  3.6D-01, -1.2D+00,  5.8D-14, r^2= 2.0D+01
   Bfn.  Coefficient  Atom+Function         Bfn.  Coefficient  Atom+Function  
  ----- ------------  ---------------      ----- ------------  ---------------
    82      5.028630   4 C  pz              137      4.552149   7 C  pz        
    36     -2.888490   2 C  pz              191      2.801774  11 H  s         
   200     -2.801774  12 H  s                59     -2.760571   3 C  pz        
   169     -1.197328   9 C  pz              105     -0.853900   5 O  pz        
   190      0.802060  11 H  s               199     -0.802060  12 H  s         
 
 Vector   58  Occ=0.000000D+00  E= 1.767240D-01  Symmetry=a'
              MO Center= -2.3D-01, -1.5D+00,  1.5D-14, r^2= 2.3D+01
   Bfn.  Coefficient  Atom+Function         Bfn.  Coefficient  Atom+Function  
  ----- ------------  ---------------      ----- ------------  ---------------
    27     14.133387   2 C  s               160    -11.593403   9 C  s         
    81      8.291720   4 C  py               34     -8.183198   2 C  px        
     4     -6.061042   1 O  s               135      4.559738   7 C  px        
    80      4.322212   4 C  px               35     -4.021803   2 C  py        
    58      3.896593   3 C  py              128     -3.757300   7 C  s         
 
 Vector   59  Occ=0.000000D+00  E= 1.803329D-01  Symmetry=a'
              MO Center=  2.5D-01, -5.0D-01, -3.5D-14, r^2= 2.3D+01
   Bfn.  Coefficient  Atom+Function         Bfn.  Coefficient  Atom+Function  
  ----- ------------  ---------------      ----- ------------  ---------------
    50     16.787210   3 C  s                73    -10.200081   4 C  s         
    81      7.580392   4 C  py               58      6.116148   3 C  py        
    57     -4.170765   3 C  px              160     -4.178365   9 C  s         
    35     -3.759462   2 C  py                4      3.482084   1 O  s         
    80     -3.187147   4 C  px              150     -3.137876   8 H  s         
 
 Vector   60  Occ=0.000000D+00  E= 1.824443D-01  Symmetry=a"
              MO Center=  2.9D-01, -1.7D+00,  6.5D-13, r^2= 2.0D+01
   Bfn.  Coefficient  Atom+Function         Bfn.  Coefficient  Atom+Function  
  ----- ------------  ---------------      ----- ------------  ---------------
   191      3.882243  11 H  s               200     -3.882243  12 H  s         
    36      3.835094   2 C  pz               82     -3.286173   4 C  pz        
   169      3.055602   9 C  pz               59     -2.509063   3 C  pz        
   190      2.194719  11 H  s               199     -2.194719  12 H  s         
   137      2.152093   7 C  pz              134      1.050797   7 C  pz        
 
 Vector   61  Occ=0.000000D+00  E= 2.128926D-01  Symmetry=a"
              MO Center=  9.2D-02, -8.9D-01,  1.7D-13, r^2= 6.3D+00
   Bfn.  Coefficient  Atom+Function         Bfn.  Coefficient  Atom+Function  
  ----- ------------  ---------------      ----- ------------  ---------------
   190      0.764396  11 H  s               199     -0.764396  12 H  s         
    82      0.728434   4 C  pz              137      0.650301   7 C  pz        
    13     -0.616510   1 O  pz               36      0.599627   2 C  pz        
   169     -0.569274   9 C  pz              191      0.492301  11 H  s         
   200     -0.492301  12 H  s                59     -0.482057   3 C  pz        
 
 Vector   62  Occ=0.000000D+00  E= 2.130011D-01  Symmetry=a'
              MO Center=  1.4D+00, -1.5D+00,  3.9D-14, r^2= 1.7D+01
   Bfn.  Coefficient  Atom+Function         Bfn.  Coefficient  Atom+Function  
  ----- ------------  ---------------      ----- ------------  ---------------
    27     54.005067   2 C  s               128    -31.924608   7 C  s         
    58     22.957108   3 C  py              160     22.171815   9 C  s         
    81    -20.259941   4 C  py               73    -17.499921   4 C  s         
    50    -17.351380   3 C  s                34     17.244535   2 C  px        
    35    -16.135458   2 C  py                4     -5.369561   1 O  s         
 
 Vector   63  Occ=0.000000D+00  E= 2.220253D-01  Symmetry=a'
              MO Center= -3.4D-01, -2.6D+00, -7.1D-12, r^2= 1.8D+01
   Bfn.  Coefficient  Atom+Function         Bfn.  Coefficient  Atom+Function  
  ----- ------------  ---------------      ----- ------------  ---------------
    27     41.599403   2 C  s               128    -38.064762   7 C  s         
    34     22.685685   2 C  px               81    -15.588700   4 C  py        
    35    -15.331840   2 C  py               58     14.948664   3 C  py        
    73    -12.407465   4 C  s               160     11.117041   9 C  s         
    57     -7.816694   3 C  px              135      7.441235   7 C  px        
 
 Vector   64  Occ=0.000000D+00  E= 2.323134D-01  Symmetry=a'
              MO Center=  1.8D-01, -2.4D-01,  5.1D-12, r^2= 2.1D+01
   Bfn.  Coefficient  Atom+Function         Bfn.  Coefficient  Atom+Function  
  ----- ------------  ---------------      ----- ------------  ---------------
   160     45.943434   9 C  s                73    -37.803826   4 C  s         
    81    -30.827396   4 C  py               35    -17.211413   2 C  py        
    58     14.946067   3 C  py               34     11.974880   2 C  px        
    27    -10.318598   2 C  s                50      8.643868   3 C  s         
   128     -8.346465   7 C  s                57     -6.977443   3 C  px        
 
 Vector   65  Occ=0.000000D+00  E= 2.471096D-01  Symmetry=a'
              MO Center= -2.5D-01, -5.3D-01, -2.6D-14, r^2= 2.0D+01
   Bfn.  Coefficient  Atom+Function         Bfn.  Coefficient  Atom+Function  
  ----- ------------  ---------------      ----- ------------  ---------------
   128     42.562290   7 C  s               160    -28.672791   9 C  s         
    35     28.519193   2 C  py               81     17.328524   4 C  py        
    58     11.226633   3 C  py               73    -11.150668   4 C  s         
    34    -10.762057   2 C  px              135     -9.084526   7 C  px        
    50     -6.962468   3 C  s               136      6.537879   7 C  py        
 
 Vector   66  Occ=0.000000D+00  E= 2.560818D-01  Symmetry=a'
              MO Center=  5.0D-02,  1.8D-01, -2.7D-14, r^2= 2.1D+01
   Bfn.  Coefficient  Atom+Function         Bfn.  Coefficient  Atom+Function  
  ----- ------------  ---------------      ----- ------------  ---------------
   160     34.287299   9 C  s                27    -27.268807   2 C  s         
    58    -27.342537   3 C  py               50     26.185043   3 C  s         
   128    -18.347622   7 C  s                73    -12.368291   4 C  s         
    35     -8.034630   2 C  py              168     -7.519740   9 C  py        
   136     -5.795881   7 C  py              150      3.704698   8 H  s         
 
 Vector   67  Occ=0.000000D+00  E= 2.606825D-01  Symmetry=a"
              MO Center=  6.2D-01, -1.4D+00, -1.3D-12, r^2= 1.5D+01
   Bfn.  Coefficient  Atom+Function         Bfn.  Coefficient  Atom+Function  
  ----- ------------  ---------------      ----- ------------  ---------------
    36      2.705069   2 C  pz               82     -2.108987   4 C  pz        
   137     -1.837068   7 C  pz              169      1.832390   9 C  pz        
   191     -1.403629  11 H  s               200      1.403629  12 H  s         
   242     -1.070534  14 F  pz              265     -1.070534  15 F  pz        
   233      1.053934  14 F  s               256     -1.053934  15 F  s         
 
 Vector   68  Occ=0.000000D+00  E= 2.658964D-01  Symmetry=a'
              MO Center= -7.6D-01,  1.3D-01, -1.2D-14, r^2= 1.7D+01
   Bfn.  Coefficient  Atom+Function         Bfn.  Coefficient  Atom+Function  
  ----- ------------  ---------------      ----- ------------  ---------------
    73     63.048168   4 C  s                50    -34.824548   3 C  s         
    27     28.828046   2 C  s               160    -25.256243   9 C  s         
   128    -19.643217   7 C  s                35    -11.629255   2 C  py        
    96     -9.343591   5 O  s                57      9.275128   3 C  px        
    80      8.339392   4 C  px                4     -5.074555   1 O  s         
 
 Vector   69  Occ=0.000000D+00  E= 2.783192D-01  Symmetry=a"
              MO Center= -2.4D-01, -1.3D+00, -4.9D-13, r^2= 1.4D+01
   Bfn.  Coefficient  Atom+Function         Bfn.  Coefficient  Atom+Function  
  ----- ------------  ---------------      ----- ------------  ---------------
    36      1.978231   2 C  pz               13     -1.781057   1 O  pz        
   137     -1.137070   7 C  pz              169      0.712866   9 C  pz        
   242     -0.644214  14 F  pz              265     -0.644214  15 F  pz        
   240     -0.616209  14 F  px              263      0.616209  15 F  px        
   188     -0.592836  10 H  pz               82     -0.555906   4 C  pz        
 
 Vector   70  Occ=0.000000D+00  E= 2.838175D-01  Symmetry=a'
              MO Center= -2.4D-02, -4.1D-01, -1.4D-14, r^2= 1.7D+01
   Bfn.  Coefficient  Atom+Function         Bfn.  Coefficient  Atom+Function  
  ----- ------------  ---------------      ----- ------------  ---------------
   128     21.377379   7 C  s                50    -16.868333   3 C  s         
    35     13.187100   2 C  py              160     -9.940776   9 C  s         
    73      8.230349   4 C  s                81      5.330210   4 C  py        
   135     -5.128600   7 C  px               27     -4.539784   2 C  s         
   136      4.186901   7 C  py              150     -3.650871   8 H  s         
 
 Vector   71  Occ=0.000000D+00  E= 2.910877D-01  Symmetry=a'
              MO Center=  2.8D-01, -1.5D+00, -3.9D-14, r^2= 1.5D+01
   Bfn.  Coefficient  Atom+Function         Bfn.  Coefficient  Atom+Function  
  ----- ------------  ---------------      ----- ------------  ---------------
    50     59.306816   3 C  s                27    -53.337234   2 C  s         
    35    -12.814818   2 C  py              160    -12.514823   9 C  s         
    58    -12.175796   3 C  py               34     -9.490095   2 C  px        
    81      8.935109   4 C  py              149     -6.266985   8 H  s         
   128      5.690125   7 C  s                57     -5.273252   3 C  px        
 
 Vector   72  Occ=0.000000D+00  E= 2.997504D-01  Symmetry=a'
              MO Center= -6.7D-01,  2.9D-01,  9.6D-15, r^2= 1.5D+01
   Bfn.  Coefficient  Atom+Function         Bfn.  Coefficient  Atom+Function  
  ----- ------------  ---------------      ----- ------------  ---------------
    50     21.675098   3 C  s               160     14.344723   9 C  s         
    27    -13.710676   2 C  s                73    -12.500820   4 C  s         
   128     -9.702523   7 C  s                35     -6.919073   2 C  py        
    80     -6.608466   4 C  px               58     -6.506798   3 C  py        
    81     -4.477009   4 C  py                4      3.841680   1 O  s         
 
 Vector   73  Occ=0.000000D+00  E= 3.067555D-01  Symmetry=a"
              MO Center=  5.3D-02, -6.3D-01,  1.2D-12, r^2= 1.6D+01
   Bfn.  Coefficient  Atom+Function         Bfn.  Coefficient  Atom+Function  
  ----- ------------  ---------------      ----- ------------  ---------------
    36      4.272648   2 C  pz               59     -3.259110   3 C  pz        
    13     -2.035280   1 O  pz               82      1.479542   4 C  pz        
   137     -0.975670   7 C  pz              242      0.961209  14 F  pz        
   265      0.961209  15 F  pz              233     -0.872399  14 F  s         
   256      0.872399  15 F  s               166      0.769663   9 C  pz        
 
 Vector   74  Occ=0.000000D+00  E= 3.294219D-01  Symmetry=a"
              MO Center= -8.3D-01,  3.7D-01, -1.0D-13, r^2= 1.3D+01
   Bfn.  Coefficient  Atom+Function         Bfn.  Coefficient  Atom+Function  
  ----- ------------  ---------------      ----- ------------  ---------------
    82      2.831855   4 C  pz              105     -2.250365   5 O  pz        
    36     -1.965368   2 C  pz               13      1.437150   1 O  pz        
   137      1.018516   7 C  pz              233     -1.006004  14 F  s         
   256      1.006004  15 F  s                91      0.684765   4 C  d  1      
   219     -0.618471  13 F  pz              242      0.602194  14 F  pz        
 
 Vector   75  Occ=0.000000D+00  E= 3.310833D-01  Symmetry=a'
              MO Center=  4.3D-01, -1.3D+00, -3.0D-15, r^2= 1.3D+01
   Bfn.  Coefficient  Atom+Function         Bfn.  Coefficient  Atom+Function  
  ----- ------------  ---------------      ----- ------------  ---------------
    50     58.551695   3 C  s                73    -47.371569   4 C  s         
    35    -18.415454   2 C  py               27    -17.344091   2 C  s         
   160     16.964765   9 C  s               128    -11.187594   7 C  s         
    57    -10.402666   3 C  px               80     -9.809464   4 C  px        
    96      5.963808   5 O  s                55     -5.545467   3 C  py        
 
 Vector   76  Occ=0.000000D+00  E= 3.436576D-01  Symmetry=a'
              MO Center=  1.0D+00, -3.3D-01,  1.5D-14, r^2= 1.1D+01
   Bfn.  Coefficient  Atom+Function         Bfn.  Coefficient  Atom+Function  
  ----- ------------  ---------------      ----- ------------  ---------------
    50     30.409083   3 C  s                27    -23.407668   2 C  s         
    73    -11.692105   4 C  s                57    -11.174681   3 C  px        
    35     -8.218138   2 C  py               58     -7.529333   3 C  py        
   150      6.738073   8 H  s                81      4.655710   4 C  py        
    32     -3.202878   2 C  py               55     -2.882264   3 C  py        
 
 Vector   77  Occ=0.000000D+00  E= 3.470452D-01  Symmetry=a"
              MO Center=  5.6D-01, -4.1D-01,  2.7D-13, r^2= 1.1D+01
   Bfn.  Coefficient  Atom+Function         Bfn.  Coefficient  Atom+Function  
  ----- ------------  ---------------      ----- ------------  ---------------
    59      3.823495   3 C  pz               36     -2.657034   2 C  pz        
    82     -2.083030   4 C  pz               13      1.079311   1 O  pz        
   241      0.938945  14 F  py              264     -0.938945  15 F  py        
   156     -0.818554   8 H  pz              169      0.725304   9 C  pz        
   242     -0.676972  14 F  pz              265     -0.676972  15 F  pz        
 
 Vector   78  Occ=0.000000D+00  E= 3.471284D-01  Symmetry=a'
              MO Center= -2.6D-01, -1.1D+00,  1.9D-13, r^2= 1.6D+01
   Bfn.  Coefficient  Atom+Function         Bfn.  Coefficient  Atom+Function  
  ----- ------------  ---------------      ----- ------------  ---------------
    73     32.392914   4 C  s                50    -25.072493   3 C  s         
   128     13.912512   7 C  s                27    -12.013570   2 C  s         
    35     11.017839   2 C  py               58    -10.309606   3 C  py        
   160     -9.867912   9 C  s                34     -8.373138   2 C  px        
    80      7.979945   4 C  px               57      7.146094   3 C  px        
 
 Vector   79  Occ=0.000000D+00  E= 3.651928D-01  Symmetry=a'
              MO Center= -2.5D-02, -4.1D-02,  3.8D-15, r^2= 1.5D+01
   Bfn.  Coefficient  Atom+Function         Bfn.  Coefficient  Atom+Function  
  ----- ------------  ---------------      ----- ------------  ---------------
    27     14.755953   2 C  s                50    -12.115560   3 C  s         
    73     12.136233   4 C  s               160     -9.931208   9 C  s         
    80      7.520016   4 C  px               81      6.547298   4 C  py        
     4     -4.411954   1 O  s                78     -3.410222   4 C  py        
    34     -3.393017   2 C  px              103     -3.177000   5 O  px        
 
 Vector   80  Occ=0.000000D+00  E= 3.688813D-01  Symmetry=a'
              MO Center=  3.0D-01, -2.2D-01, -3.7D-14, r^2= 1.3D+01
   Bfn.  Coefficient  Atom+Function         Bfn.  Coefficient  Atom+Function  
  ----- ------------  ---------------      ----- ------------  ---------------
   128     26.234060   7 C  s                27    -17.390429   2 C  s         
    35     16.481347   2 C  py               34    -12.618458   2 C  px        
    81     11.366470   4 C  py               57      6.487010   3 C  px        
   160     -6.512555   9 C  s               150     -5.230525   8 H  s         
   136      4.359269   7 C  py               58     -4.141621   3 C  py        
 
 Vector   81  Occ=0.000000D+00  E= 3.776778D-01  Symmetry=a"
              MO Center=  1.7D-01,  1.8D+00,  1.2D-12, r^2= 1.2D+01
   Bfn.  Coefficient  Atom+Function         Bfn.  Coefficient  Atom+Function  
  ----- ------------  ---------------      ----- ------------  ---------------
   169      2.930784   9 C  pz              242     -2.127876  14 F  pz        
   265     -2.127876  15 F  pz               59     -1.375724   3 C  pz        
    82      1.200354   4 C  pz              137      1.180442   7 C  pz        
   219     -1.182331  13 F  pz              190      0.893615  11 H  s         
   199     -0.893615  12 H  s               105     -0.851274   5 O  pz        
 
 Vector   82  Occ=0.000000D+00  E= 3.820975D-01  Symmetry=a'
              MO Center=  4.5D-02, -1.5D+00, -2.3D-13, r^2= 1.5D+01
   Bfn.  Coefficient  Atom+Function         Bfn.  Coefficient  Atom+Function  
  ----- ------------  ---------------      ----- ------------  ---------------
    50    -23.362909   3 C  s                27     22.398469   2 C  s         
    58     15.291181   3 C  py               73     -9.344729   4 C  s         
    35      8.533337   2 C  py               34      5.893984   2 C  px        
    81     -5.850761   4 C  py                4      5.798578   1 O  s         
   117     -5.204285   6 H  s                32      4.260082   2 C  py        
 
 Vector   83  Occ=0.000000D+00  E= 3.907151D-01  Symmetry=a'
              MO Center=  4.9D-01,  7.6D-02, -1.5D-14, r^2= 1.7D+01
   Bfn.  Coefficient  Atom+Function         Bfn.  Coefficient  Atom+Function  
  ----- ------------  ---------------      ----- ------------  ---------------
    27     30.628279   2 C  s                50    -22.983625   3 C  s         
    73     17.279797   4 C  s               128    -15.739503   7 C  s         
    35     -9.893193   2 C  py               34      7.565300   2 C  px        
    81     -6.987969   4 C  py                4     -6.102701   1 O  s         
   167     -5.454758   9 C  px               58      4.670274   3 C  py        
 
 Vector   84  Occ=0.000000D+00  E= 3.921176D-01  Symmetry=a"
              MO Center=  3.1D-01, -4.8D-01,  2.5D-12, r^2= 1.7D+01
   Bfn.  Coefficient  Atom+Function         Bfn.  Coefficient  Atom+Function  
  ----- ------------  ---------------      ----- ------------  ---------------
   190      1.956854  11 H  s               199     -1.956854  12 H  s         
   137      1.568010   7 C  pz               36     -1.253867   2 C  pz        
   219     -1.151768  13 F  pz              241      1.091134  14 F  py        
   264     -1.091134  15 F  py              134      1.045679   7 C  pz        
   195      0.922521  11 H  px              204     -0.922521  12 H  px        
 
 Vector   85  Occ=0.000000D+00  E= 4.008484D-01  Symmetry=a"
              MO Center=  1.6D-01,  8.1D-01, -3.8D-13, r^2= 1.5D+01
   Bfn.  Coefficient  Atom+Function         Bfn.  Coefficient  Atom+Function  
  ----- ------------  ---------------      ----- ------------  ---------------
    82      5.059835   4 C  pz              169     -3.668626   9 C  pz        
   105     -2.249525   5 O  pz              190     -2.194205  11 H  s         
   199      2.194205  12 H  s                36     -2.174961   2 C  pz        
   241      1.394227  14 F  py              264     -1.394227  15 F  py        
   134     -1.352049   7 C  pz              233      1.242741  14 F  s         
 
 Vector   86  Occ=0.000000D+00  E= 4.113566D-01  Symmetry=a"
              MO Center=  5.6D-01, -1.0D-01,  2.8D-13, r^2= 1.7D+01
   Bfn.  Coefficient  Atom+Function         Bfn.  Coefficient  Atom+Function  
  ----- ------------  ---------------      ----- ------------  ---------------
    82      4.146390   4 C  pz              169     -3.740676   9 C  pz        
   137      3.525604   7 C  pz              190      3.420598  11 H  s         
   199     -3.420598  12 H  s               191      2.114291  11 H  s         
   200     -2.114291  12 H  s               219      2.038765  13 F  pz        
   134      1.969906   7 C  pz               36     -1.845028   2 C  pz        
 
 Vector   87  Occ=0.000000D+00  E= 4.127296D-01  Symmetry=a'
              MO Center=  3.5D-01, -1.5D+00, -1.7D-14, r^2= 1.5D+01
   Bfn.  Coefficient  Atom+Function         Bfn.  Coefficient  Atom+Function  
  ----- ------------  ---------------      ----- ------------  ---------------
    27     37.313650   2 C  s                73    -25.805335   4 C  s         
    58     20.743102   3 C  py              128    -16.987967   7 C  s         
    34     11.880447   2 C  px               35    -10.725321   2 C  py        
    80     -7.590287   4 C  px               81     -5.169171   4 C  py        
   160      4.932763   9 C  s                57     -4.378728   3 C  px        
 
 Vector   88  Occ=0.000000D+00  E= 4.174657D-01  Symmetry=a'
              MO Center= -2.0D-02,  5.0D-01,  7.3D-14, r^2= 1.6D+01
   Bfn.  Coefficient  Atom+Function         Bfn.  Coefficient  Atom+Function  
  ----- ------------  ---------------      ----- ------------  ---------------
    50     32.633823   3 C  s                27    -21.966350   2 C  s         
    73    -15.593541   4 C  s                35     -8.112944   2 C  py        
    57     -6.794293   3 C  px              150      5.869706   8 H  s         
   128     -4.569975   7 C  s               160     -4.440293   9 C  s         
    72     -4.295239   4 C  s               167     -3.987082   9 C  px        
 
 Vector   89  Occ=0.000000D+00  E= 4.236089D-01  Symmetry=a'
              MO Center= -1.1D+00, -3.8D-02, -6.6D-14, r^2= 1.4D+01
   Bfn.  Coefficient  Atom+Function         Bfn.  Coefficient  Atom+Function  
  ----- ------------  ---------------      ----- ------------  ---------------
    27     39.797672   2 C  s                50    -26.385794   3 C  s         
    58     14.928592   3 C  py               81     -9.037714   4 C  py        
[...]
          32    -0.06058    -0.04862    -0.03928    -0.16867    -0.28399     0.09136
          33     0.00909     0.01281     0.01412     0.10631     0.21568    -0.09701
          34     0.08896     0.05427     0.04266     0.12128     0.28586     0.24085
          35    -0.06058    -0.04862    -0.03928    -0.16867    -0.28399     0.09136
          36    -0.00909    -0.01281    -0.01412    -0.10631    -0.21568     0.09701
          37    -0.03840     0.03743    -0.02748     0.01552    -0.00584     0.00725
          38     0.03677    -0.02768     0.04064    -0.02651     0.00986    -0.01021
          39     0.00000     0.00000     0.00000     0.00000    -0.00000     0.00000
          40    -0.02209     0.03438     0.00717    -0.01058     0.00438    -0.00334
          41    -0.00195     0.00910     0.01230    -0.01166     0.00481    -0.00459
          42    -0.01692     0.02842     0.00938    -0.01113     0.00457    -0.00397
          43    -0.02209     0.03438     0.00717    -0.01058     0.00438    -0.00334
          44    -0.00195     0.00910     0.01230    -0.01166     0.00481    -0.00459
          45     0.01692    -0.02842    -0.00938     0.01113    -0.00457     0.00397

                   37          38          39          40          41          42
 
 P.Frequency     1469.31     1480.43     1699.42     1736.44     3055.39     3135.35
 
           1    -0.00000    -0.01871    -0.00757    -0.00481    -0.00006    -0.00000
           2    -0.00000    -0.00715     0.01188    -0.02144     0.00008    -0.00000
           3    -0.00353     0.00000     0.00000    -0.00000     0.00000    -0.00026
           4    -0.00000     0.05705     0.00009     0.03748     0.00211     0.00000
           5    -0.00000     0.01703    -0.10774     0.16804    -0.00028     0.00000
           6     0.02330    -0.00000     0.00000     0.00000    -0.00000     0.00108
           7    -0.00000    -0.02453    -0.02294    -0.01937     0.00003    -0.00000
           8    -0.00000     0.04879     0.10727    -0.14053    -0.00045    -0.00000
           9    -0.00090    -0.00000    -0.00000    -0.00000    -0.00000     0.00003
          10    -0.00000    -0.00253     0.19492     0.12453     0.00015     0.00000
          11    -0.00000    -0.04423    -0.02439     0.03300    -0.00004     0.00000
          12    -0.00002    -0.00000    -0.00000     0.00000     0.00000     0.00000
          13    -0.00000     0.00629    -0.11824    -0.08238    -0.00004    -0.00000
          14    -0.00000     0.00539    -0.00557    -0.00985     0.00001    -0.00000
          15    -0.00018     0.00000    -0.00000    -0.00000     0.00000     0.00001
          16    -0.00000     0.00525     0.11859    -0.17703    -0.00418    -0.00000
          17    -0.00000    -0.00739    -0.00291    -0.00665    -0.00378    -0.00000
          18     0.01787     0.00000     0.00000    -0.00000     0.00000     0.00337
          19    -0.00000     0.02987    -0.00858     0.00507    -0.01850     0.00000
          20    -0.00000     0.02142     0.01590    -0.02394     0.04804    -0.00000
          21     0.04807    -0.00000    -0.00000     0.00000    -0.00000     0.08751
          22    -0.00000     0.04227     0.01997    -0.10500    -0.00423    -0.00000
          23    -0.00000    -0.22550    -0.03756     0.13702    -0.00161     0.00000
          24    -0.01218    -0.00000     0.00000     0.00000    -0.00000     0.00054
          25    -0.00000     0.00285    -0.00307    -0.00869    -0.00005    -0.00000
          26    -0.00000     0.02250     0.00473    -0.00995    -0.00007    -0.00000
          27    -0.00051    -0.00000    -0.00000     0.00000    -0.00000     0.00003
          28    -0.00000    -0.14026     0.01460    -0.03003     0.34711     0.00000
          29    -0.00000     0.39542    -0.04852     0.07458     0.15608     0.00000
          30    -0.68861    -0.00000     0.00000    -0.00000    -0.00000     0.01981
          31     0.48884    -0.22432    -0.00220     0.01695    -0.07194    -0.07692
          32     0.01812    -0.40123     0.03215    -0.05540    -0.35780    -0.39418
          33    -0.04899     0.32380    -0.01383     0.02478    -0.52408    -0.53760
          34    -0.48884    -0.22432    -0.00220     0.01695    -0.07194     0.07692
          35    -0.01812    -0.40123     0.03215    -0.05540    -0.35780     0.39418
          36    -0.04899    -0.32380     0.01383    -0.02478     0.52408    -0.53760
          37     0.00000     0.00207    -0.00089    -0.00130    -0.00001     0.00000
          38    -0.00000    -0.00281     0.00330     0.00390     0.00004    -0.00000
          39     0.00004    -0.00000     0.00000    -0.00000    -0.00000    -0.00000
          40     0.00012    -0.00125    -0.00120     0.00082     0.00001    -0.00000
          41     0.00002    -0.00157    -0.00231     0.00032     0.00002     0.00000
          42     0.00017    -0.00138    -0.00139     0.00050     0.00001    -0.00001
          43    -0.00012    -0.00125    -0.00120     0.00082     0.00001     0.00000
          44    -0.00002    -0.00157    -0.00231     0.00032     0.00002    -0.00000
          45     0.00017     0.00138     0.00139    -0.00050    -0.00001    -0.00001

                   43          44          45
 
 P.Frequency     3191.67     3257.51     3788.77
 
           1    -0.00057     0.00074     0.00455
           2    -0.00035     0.00031     0.06041
           3     0.00000     0.00000     0.00000
           4     0.00085    -0.00022    -0.00110
           5     0.00265     0.00488     0.00234
           6    -0.00000    -0.00000    -0.00000
           7    -0.00406    -0.08018    -0.00021
           8    -0.00145    -0.02215    -0.00163
           9    -0.00000     0.00000    -0.00000
          10     0.00004     0.00127    -0.00081
          11    -0.00016    -0.00243     0.00037
          12     0.00000    -0.00000    -0.00000
          13    -0.00003     0.00038     0.00035
          14    -0.00000     0.00003     0.00010
          15     0.00000    -0.00000     0.00000
          16    -0.00370    -0.00010    -0.04750
          17     0.00124     0.00101    -0.96518
          18     0.00000    -0.00000     0.00000
          19     0.07144    -0.00341    -0.00026
          20     0.05008    -0.00233    -0.00064
          21    -0.00000     0.00000    -0.00000
          22     0.04369     0.92489    -0.00007
          23     0.01043     0.22750     0.00004
          24    -0.00000     0.00000    -0.00000
          25     0.00000    -0.00077    -0.00002
          26     0.00001     0.00044     0.00017
          27    -0.00000     0.00000    -0.00000
          28    -0.81037     0.04019    -0.00407
          29    -0.33976     0.01676     0.00133
          30    -0.00000     0.00000    -0.00000
          31    -0.01635     0.00163     0.00132
          32    -0.13754     0.00472    -0.00078
          33    -0.21065     0.00778     0.00262
          34    -0.01635     0.00163     0.00132
          35    -0.13754     0.00472    -0.00078
          36     0.21065    -0.00778    -0.00262
          37    -0.00000     0.00006     0.00002
          38     0.00001     0.00009    -0.00004
          39    -0.00000     0.00000    -0.00000
          40    -0.00000     0.00013    -0.00001
          41    -0.00001    -0.00013    -0.00003
          42    -0.00000     0.00002    -0.00001
          43    -0.00000     0.00013    -0.00001
          44    -0.00001    -0.00013    -0.00003
          45     0.00000    -0.00002     0.00001



 ----------------------------------------------------------------------------
 Normal Eigenvalue ||    Projected Derivative Dipole Moments (debye/angs)
  Mode   [cm**-1]  ||      [d/dqX]             [d/dqY]           [d/dqZ]
 ------ ---------- || ------------------ ------------------ -----------------
    1       -0.000 ||      -0.021              -0.010             0.249
    2       -0.000 ||      -0.031              -0.014             0.126
    3        0.000 ||       0.092               0.043            -0.022
    4        0.000 ||      -0.007              -0.003             0.003
    5        0.000 ||      -0.121              -0.057            -0.056
    6        0.000 ||      -0.125              -0.059            -0.034
    7       32.569 ||       0.000               0.000             0.214
    8       52.844 ||      -0.000              -0.000            -0.152
    9      125.891 ||      -0.126              -0.097            -0.000
   10      134.114 ||       0.000               0.000             0.072
   11      193.490 ||      -0.000               0.000             0.031
   12      225.705 ||       0.089              -0.222            -0.000
   13      257.036 ||       0.000               0.000             0.397
   14      315.725 ||      -0.013               0.110            -0.000
   15      359.002 ||      -0.116               0.284            -0.000
   16      426.841 ||      -0.136              -0.155             0.000
   17      435.223 ||      -0.000               0.000             1.316
   18      487.314 ||      -0.327              -0.715            -0.000
   19      496.497 ||      -0.000              -0.000            -0.380
   20      562.654 ||      -0.093               0.395            -0.000
   21      567.691 ||      -0.000              -0.000            -0.445
   22      709.079 ||      -0.051               0.786             0.000
   23      759.316 ||      -0.000               0.000            -0.093
   24      805.149 ||      -0.000              -0.000             0.905
   25      850.205 ||       0.257               1.245             0.000
   26      913.030 ||       0.390               0.811             0.000
   27     1012.140 ||       0.216              -0.485             0.000
   28     1048.275 ||      -0.000               0.000             0.059
   29     1100.650 ||      -0.282               1.712             0.000
   30     1120.757 ||       0.000               0.000            -2.484
   31     1197.872 ||       1.813              -0.703             0.000
   32     1199.900 ||      -1.771              -0.062            -0.000
   33     1291.533 ||      -0.960              -2.214             0.000
   34     1350.856 ||      -1.016              -0.478            -0.000
   35     1401.303 ||       0.526               0.124             0.000
   36     1425.208 ||       0.689               0.745            -0.000
   37     1469.310 ||      -0.000              -0.000            -0.422
   38     1480.426 ||       0.060              -0.228            -0.000
   39     1699.415 ||       1.698              -2.356             0.000
   40     1736.440 ||       0.487               1.767             0.000
   41     3055.386 ||      -0.047               0.527            -0.000
   42     3135.350 ||      -0.000              -0.000            -0.345
   43     3191.671 ||       0.295               0.155            -0.000
   44     3257.510 ||      -0.040               0.179            -0.000
   45     3788.769 ||      -0.484              -1.495            -0.000
 ----------------------------------------------------------------------------



  
  
 ----------------------------------------------------------------------------
 Normal Eigenvalue ||           Projected Infra Red Intensities
  Mode   [cm**-1]  || [atomic units] [(debye/angs)**2] [(KM/mol)] [arbitrary]
 ------ ---------- || -------------- ----------------- ---------- -----------
    1       -0.000 ||    0.002716           0.063         2.647       0.598
    2       -0.000 ||    0.000734           0.017         0.716       0.162
    3        0.000 ||    0.000472           0.011         0.460       0.104
    4        0.000 ||    0.000003           0.000         0.003       0.001
    5        0.000 ||    0.000913           0.021         0.890       0.201
    6        0.000 ||    0.000878           0.020         0.856       0.193
    7       32.569 ||    0.001976           0.046         1.927       0.435
    8       52.844 ||    0.001004           0.023         0.979       0.221
    9      125.891 ||    0.001096           0.025         1.069       0.241
   10      134.114 ||    0.000225           0.005         0.219       0.049
   11      193.490 ||    0.000043           0.001         0.042       0.009
   12      225.705 ||    0.002469           0.057         2.407       0.544
   13      257.036 ||    0.006840           0.158         6.668       1.506
   14      315.725 ||    0.000528           0.012         0.514       0.116
   15      359.002 ||    0.004072           0.094         3.969       0.896
   16      426.841 ||    0.001848           0.043         1.801       0.407
   17      435.223 ||    0.075053           1.732        73.165      16.524
   18      487.314 ||    0.026793           0.618        26.120       5.899
   19      496.497 ||    0.006274           0.145         6.116       1.381
   20      562.654 ||    0.007147           0.165         6.967       1.573
   21      567.691 ||    0.008568           0.198         8.353       1.886
   22      709.079 ||    0.026877           0.620        26.201       5.917
   23      759.316 ||    0.000373           0.009         0.363       0.082
   24      805.149 ||    0.035523           0.820        34.629       7.821
   25      850.205 ||    0.070026           1.616        68.265      15.418
   26      913.030 ||    0.035089           0.810        34.207       7.726
   27     1012.140 ||    0.012215           0.282        11.908       2.689
   28     1048.275 ||    0.000149           0.003         0.145       0.033
   29     1100.650 ||    0.130433           3.009       127.152      28.717
   30     1120.757 ||    0.267533           6.172       260.804      58.902
   31     1197.872 ||    0.163899           3.781       159.777      36.085
   32     1199.900 ||    0.136089           3.140       132.666      29.962
   33     1291.533 ||    0.252340           5.822       245.993      55.557
   34     1350.856 ||    0.054638           1.261        53.264      12.030
   35     1401.303 ||    0.012681           0.293        12.362       2.792
   36     1425.208 ||    0.044600           1.029        43.478       9.819
   37     1469.310 ||    0.007734           0.178         7.540       1.703
   38     1480.426 ||    0.002407           0.056         2.347       0.530
   39     1699.415 ||    0.365520           8.433       356.327      80.476
   40     1736.440 ||    0.145552           3.358       141.891      32.046
   41     3055.386 ||    0.012128           0.280        11.823       2.670
   42     3135.350 ||    0.005147           0.119         5.018       1.133
   43     3191.671 ||    0.004825           0.111         4.703       1.062
   44     3257.510 ||    0.001463           0.034         1.426       0.322
   45     3788.769 ||    0.106994           2.468       104.303      23.557
 ----------------------------------------------------------------------------



 vib:animation  F

 Task  times  cpu:   103995.2s     wall:   104269.2s
 
 
                                NWChem Input Module
                                -------------------
 
 
 Summary of allocated global arrays
-----------------------------------
  No active global arrays



                         GA Statistics for process    0
                         ------------------------------

       create   destroy   get      put      acc     scatter   gather  read&inc
calls: 9.78e+04 9.78e+04 4.22e+07 4.60e+06 1.76e+07    0        0     5.70e+05 
number of processes/call 3.16e+01 1.18e+02 4.71e+01 0.00e+00 0.00e+00
bytes total:             4.38e+10 9.95e+10 1.35e+10 0.00e+00 0.00e+00 4.56e+06
bytes remote:            1.76e+10 6.91e+10 8.81e+09 0.00e+00 0.00e+00 0.00e+00
Max memory consumed for GA by this process: 157850008 bytes
 
MA_summarize_allocated_blocks: starting scan ...
MA_summarize_allocated_blocks: scan completed: 0 heap blocks, 0 stack blocks
MA usage statistics:

	allocation statistics:
					      heap	     stack
					      ----	     -----
	current number of blocks	         0	         0
	maximum number of blocks	        25	        39
	current total bytes		         0	         0
	maximum total bytes		  77601664	  26269736
	maximum total K-bytes		     77602	     26270
	maximum total M-bytes		        78	        27
 
 
                                     CITATION
                                     --------
                Please cite the following reference when publishing
                           results obtained with NWChem:
 
          E. Apr, E. J. Bylaska, W. A. de Jong, N. Govind, K. Kowalski,
       T. P. Straatsma, M. Valiev, H. J. J. van Dam, Y. Alexeev, J. Anchell,
       V. Anisimov, F. W. Aquino, R. Atta-Fynn, J. Autschbach, N. P. Bauman,
     J. C. Becca, D. E. Bernholdt, K. Bhaskaran-Nair, S. Bogatko, P. Borowski,
        J. Boschen, J. Brabec, A. Bruner, E. Caut, Y. Chen, G. N. Chuev,
      C. J. Cramer, J. Daily, M. J. O. Deegan, T. H. Dunning Jr., M. Dupuis,
   K. G. Dyall, G. I. Fann, S. A. Fischer, A. Fonari, H. Frchtl, L. Gagliardi,
      J. Garza, N. Gawande, S. Ghosh, K. Glaesemann, A. W. Gtz, J. Hammond,
       V. Helms, E. D. Hermes, K. Hirao, S. Hirata, M. Jacquelin, L. Jensen,
   B. G. Johnson, H. Jnsson, R. A. Kendall, M. Klemm, R. Kobayashi, V. Konkov,
      S. Krishnamoorthy, M. Krishnan, Z. Lin, R. D. Lins, R. J. Littlefield,
      A. J. Logsdail, K. Lopata, W. Ma, A. V. Marenich, J. Martin del Campo,
   D. Mejia-Rodriguez, J. E. Moore, J. M. Mullin, T. Nakajima, D. R. Nascimento,
    J. A. Nichols, P. J. Nichols, J. Nieplocha, A. Otero-de-la-Roza, B. Palmer,
    A. Panyala, T. Pirojsirikul, B. Peng, R. Peverati, J. Pittner, L. Pollack,
   R. M. Richard, P. Sadayappan, G. C. Schatz, W. A. Shelton, D. W. Silverstein,
   D. M. A. Smith, T. A. Soares, D. Song, M. Swart, H. L. Taylor, G. S. Thomas,
            V. Tipparaju, D. G. Truhlar, K. Tsemekhman, T. Van Voorhis,
     . Vzquez-Mayagoitia, P. Verma, O. Villa, A. Vishnu, K. D. Vogiatzis,
        D. Wang, J. H. Weare, M. J. Williamson, T. L. Windus, K. Woliski,
        A. T. Wong, Q. Wu, C. Yang, Q. Yu, M. Zacharias, Z. Zhang, Y. Zhao,
                                and R. J. Harrison
                        "NWChem: Past, present, and future
                         J. Chem. Phys. 152, 184102 (2020)
                               doi:10.1063/5.0004997
 
                                      AUTHORS
                                      -------
     E. Apra, E. J. Bylaska, N. Govind, K. Kowalski, M. Valiev, W. A. de Jong,
      T. P. Straatsma, H. J. J. van Dam, D. Wang, T. L. Windus, N. P. Bauman,
       A. Panyala, J. Hammond, J. Autschbach, K. Bhaskaran-Nair, J. Brabec,
    K. Lopata, S. A. Fischer, S. Krishnamoorthy, M. Jacquelin, W. Ma, M. Klemm,
       O. Villa, Y. Chen, V. Anisimov, F. Aquino, S. Hirata, M. T. Hackler,
           Eric Hermes, L. Jensen, J. E. Moore, J. C. Becca, V. Konjkov,
            D. Mejia-Rodriguez, T. Risthaus, M. Malagoli, A. Marenich,
   A. Otero-de-la-Roza, J. Mullin, P. Nichols, R. Peverati, J. Pittner, Y. Zhao,
        P.-D. Fan, A. Fonari, M. J. Williamson, R. J. Harrison, J. R. Rehr,
      M. Dupuis, D. Silverstein, D. M. A. Smith, J. Nieplocha, V. Tipparaju,
      M. Krishnan, B. E. Van Kuiken, A. Vazquez-Mayagoitia, M. Swart, Q. Wu,
   T. Van Voorhis, A. A. Auer, M. Nooijen, L. D. Crosby, E. Brown, G. Cisneros,
     G. I. Fann, H. Fruchtl, J. Garza, K. Hirao, R. A. Kendall, J. A. Nichols,
       K. Tsemekhman, K. Wolinski, J. Anchell, D. E. Bernholdt, P. Borowski,
       T. Clark, D. Clerc, H. Dachsel, M. J. O. Deegan, K. Dyall, D. Elwood,
      E. Glendening, M. Gutowski, A. C. Hess, J. Jaffe, B. G. Johnson, J. Ju,
        R. Kobayashi, R. Kutteh, Z. Lin, R. Littlefield, X. Long, B. Meng,
      T. Nakajima, S. Niu, L. Pollack, M. Rosing, K. Glaesemann, G. Sandrone,
      M. Stave, H. Taylor, G. Thomas, J. H. van Lenthe, A. T. Wong, Z. Zhang.

 Total times  cpu:   118761.4s     wall:   119130.5s
