 argument  1 = 2R2.nw
 


============================== echo of input deck ==============================
echo
start 2R2
title "Me,H,Me Ref 2"
charge 0

geometry
 zmatrix
  O
  C  1  R1
  C  2  R2  1  A1
  H  1  R5  2  A4  3  D180
  C  2  R6  3  A5  4  D180
  H  3  R7  2  A6  1  D180
  H  3  R8  2  A7  1  D0
  H  5  R9  2  A8  1  D1
  H  5  R10 2  A9  1  D2
  H  5  R11 2  A10 1  D3
  variables
    R1  1.329
    R2  1.363
    A1  124.5
    R3  1.440
    A2  119.5
    R4  1.249
    A3  123.5
    R5  0.994
    A4  105.4
    R6  1.485
    A5  122.5
    R7  1.078
    A6  120.0
    R8  1.099
    A7  117.6
    R9  1.100
    A8  110.0
    D1  180.0
    R10 1.100
    A9  110.0
    D2  60.00
    R11 1.100
    A10 110.0
    D3  -60.0
    R12 1.100
    A11 110.0
    D4  0.000
    R13 1.100
    A12 110.0
    D5  120.0
    R14 1.100
    A13 110.0
    D6  -120.
  constants
    D0  0.000
    D180 180.0
 end
end

basis spherical
 * library aug-cc-pVDZ
end

set lindep:n_dep 0

set cphf:maxsub 95
set cphf:maxiter 999
set int:acc_std 1d-16
set fock:densityscreen f

scf
 maxiter 99
 vectors input atomic
 thresh 1d-9
 tol2e 1d-15
end

mp2
 freeze atomic
 tight
end

driver
 clear
 maxiter 99
 tight
end

set "mp2:aotol2e fock" 1d-15
set mp2:aotol2e 1d-15
set mp2:backtol 1d-15


task mp2 optimize
task mp2 frequencies


================================================================================


                                         
                                         
 
 
             Northwest Computational Chemistry Package (NWChem) 7.0.0
             --------------------------------------------------------
 
 
                    Environmental Molecular Sciences Laboratory
                       Pacific Northwest National Laboratory
                                Richland, WA 99352
 
                              Copyright (c) 1994-2020
                       Pacific Northwest National Laboratory
                            Battelle Memorial Institute
 
             NWChem is an open-source computational chemistry package
                        distributed under the terms of the
                      Educational Community License (ECL) 2.0
             A copy of the license is included with this distribution
                              in the LICENSE.TXT file
 
                                  ACKNOWLEDGMENT
                                  --------------

            This software and its documentation were developed at the
            EMSL at Pacific Northwest National Laboratory, a multiprogram
            national laboratory, operated for the U.S. Department of Energy
            by Battelle under Contract Number DE-AC05-76RL01830. Support
            for this work was provided by the Department of Energy Office
            of Biological and Environmental Research, Office of Basic
            Energy Sciences, and the Office of Advanced Scientific Computing.


           Job information
           ---------------

    hostname        = compute-0-27.local
    program         = /scratch/nwchem.277679
    date            = Wed Mar 24 13:58:34 2021

    compiled        = Thu_Jun_25_16:07:03_2020
    source          = /home/edo/nwchem-7.0.1
    nwchem branch   = 7.0.1
    nwchem revision = de46fdf
    ga revision     = 5.7.1
    use scalapack   = T
    input           = 2R2.nw
    prefix          = 2R2.
    data base       = ./2R2.db
    status          = startup
    nproc           =       11
    time left       =     -1s



           Memory information
           ------------------

    heap     =   13107200 doubles =    100.0 Mbytes
    stack    =   13107197 doubles =    100.0 Mbytes
    global   =   26214400 doubles =    200.0 Mbytes (distinct from heap & stack)
    total    =   52428797 doubles =    400.0 Mbytes
    verify   = yes
    hardfail = no 


           Directory information
           ---------------------
 
  0 permanent = .
  0 scratch   = /scratch
 
 
 
 
                                NWChem Input Module
                                -------------------
 
 
                                   Me,H,Me Ref 2
                                   -------------

 Scaling coordinates for geometry "geometry" by  1.889725989
 (inverse scale =  0.529177249)

 CS  symmetry detected
 
 
                             Geometry "geometry" -> ""
                             -------------------------
 
 Output coordinates in angstroms (scale by  1.889725989 to convert to a.u.)
 
  No.       Tag          Charge          X              Y              Z
 ---- ---------------- ---------- -------------- -------------- --------------
    1 O                    8.0000    -1.31282400    -0.27642533     0.00000000
    2 C                    6.0000    -0.04750725     0.13004058     0.00000000
    3 C                    6.0000     0.34396203     1.43561356     0.00000000
    4 H                    1.0000    -1.27104509    -1.26954694     0.00000000
    5 C                    6.0000     0.92299722    -0.99394611     0.00000000
    6 H                    1.0000     1.39301026     1.68377038     0.00000000
    7 H                    1.0000    -0.44270368     2.20304958     0.00000000
    8 H                    1.0000     1.95124468    -0.60316848     0.00000000
    9 H                    1.0000     0.77768691    -1.61647502    -0.89517745
   10 H                    1.0000     0.77768691    -1.61647502     0.89517745
 
      Atomic Mass 
      ----------- 
 
      O                 15.994910
      C                 12.000000
      H                  1.007825
 

 Effective nuclear repulsion energy (a.u.)     121.0684914125

            Nuclear Dipole moment (a.u.) 
            ----------------------------
        X                 Y               Z
 ---------------- ---------------- ----------------
     0.0000000000     0.0000000000     0.0000000000
 
      Symmetry information
      --------------------
 
 Group name             Cs        
 Group number              2
 Group order               2
 No. of unique centers     9
 
      Symmetry unique atoms
 
     1    2    3    4    5    6    7    8    9
 


                                Z-matrix (user)
                                -------- 

 Units are Angstrom for bonds and degrees for angles

  Constants are marked with an asterisk (*).

  Constrained variables are marked with a plus sign (+).

 
      Type          Name      I     J     K     L     M      Value
      ----------- --------  ----- ----- ----- ----- ----- ----------
    1 Stretch      R1          2     1                       1.32900
    2 Stretch      R2          3     2                       1.36300
    3 Bend         A1          3     2     1               124.50000
    4 Stretch      R5          4     1                       0.99400
    5 Bend         A4          4     1     2               105.40000
    6*Torsion      D180        4     1     2     3         180.00000
    7 Stretch      R6          5     2                       1.48500
    8 Bend         A5          5     2     3               122.50000
    9*Torsion      D180        5     2     3     4         180.00000
   10 Stretch      R7          6     3                       1.07800
   11 Bend         A6          6     3     2               120.00000
   12*Torsion      D180        6     3     2     1         180.00000
   13 Stretch      R8          7     3                       1.09900
   14 Bend         A7          7     3     2               117.60000
   15*Torsion      D0          7     3     2     1           0.00000
   16 Stretch      R9          8     5                       1.10000
   17 Bend         A8          8     5     2               110.00000
   18 Torsion      D1          8     5     2     1         180.00000
   19 Stretch      R10         9     5                       1.10000
   20 Bend         A9          9     5     2               110.00000
   21 Torsion      D2          9     5     2     1          60.00000
   22 Stretch      R11        10     5                       1.10000
   23 Bend         A10        10     5     2               110.00000
   24 Torsion      D3         10     5     2     1         -60.00000
 
 
            XYZ format geometry
            -------------------
    10
 geometry
 O                    -1.31282400    -0.27642533     0.00000000
 C                    -0.04750725     0.13004058     0.00000000
 C                     0.34396203     1.43561356     0.00000000
 H                    -1.27104509    -1.26954694     0.00000000
 C                     0.92299722    -0.99394611     0.00000000
 H                     1.39301026     1.68377038     0.00000000
 H                    -0.44270368     2.20304958     0.00000000
 H                     1.95124468    -0.60316848     0.00000000
 H                     0.77768691    -1.61647502    -0.89517745
 H                     0.77768691    -1.61647502     0.89517745
 
 ==============================================================================
                                internuclear distances
 ------------------------------------------------------------------------------
       center one      |      center two      | atomic units |  angstroms
 ------------------------------------------------------------------------------
    2 C                |   1 O                |     2.51145  |     1.32900
    3 C                |   2 C                |     2.57570  |     1.36300
    4 H                |   1 O                |     1.87839  |     0.99400
    5 C                |   2 C                |     2.80624  |     1.48500
    6 H                |   3 C                |     2.03712  |     1.07800
    7 H                |   3 C                |     2.07681  |     1.09900
    8 H                |   5 C                |     2.07870  |     1.10000
    9 H                |   5 C                |     2.07870  |     1.10000
   10 H                |   5 C                |     2.07870  |     1.10000
 ------------------------------------------------------------------------------
                         number of included internuclear distances:          9
 ==============================================================================



 ==============================================================================
                                 internuclear angles
 ------------------------------------------------------------------------------
        center 1       |       center 2       |       center 3       |  degrees
 ------------------------------------------------------------------------------
    2 C                |   1 O                |   4 H                |   105.40
    1 O                |   2 C                |   3 C                |   124.50
    1 O                |   2 C                |   5 C                |   113.00
    3 C                |   2 C                |   5 C                |   122.50
    2 C                |   3 C                |   6 H                |   120.00
    2 C                |   3 C                |   7 H                |   117.60
    6 H                |   3 C                |   7 H                |   122.40
    2 C                |   5 C                |   8 H                |   110.00
    2 C                |   5 C                |   9 H                |   110.00
    2 C                |   5 C                |  10 H                |   110.00
    8 H                |   5 C                |   9 H                |   108.94
    8 H                |   5 C                |  10 H                |   108.94
    9 H                |   5 C                |  10 H                |   108.94
 ------------------------------------------------------------------------------
                            number of included internuclear angles:         13
 ==============================================================================





 Summary of "ao basis" -> "" (spherical)
 ------------------------------------------------------------------------------
       Tag                 Description            Shells   Functions and Types
 ---------------- ------------------------------  ------  ---------------------
 *                        aug-cc-pVDZ                 on all atoms 


 
  Deleted DRIVER restart files 
 
 
 
                           NWChem Geometry Optimization
                           ----------------------------
 
 
 
 
                                   Me,H,Me Ref 2
 
 
 maximum gradient threshold         (gmax) =   0.000015
 rms gradient threshold             (grms) =   0.000010
 maximum cartesian step threshold   (xmax) =   0.000060
 rms cartesian step threshold       (xrms) =   0.000040
 fixed trust radius                (trust) =   0.300000
 maximum step size to saddle      (sadstp) =   0.100000
 energy precision                  (eprec) =   1.0D-07
 maximum number of steps          (nptopt) =   99
 initial hessian option           (inhess) =    0
 line search option               (linopt) =    1
 hessian update option            (modupd) =    1
 saddle point option              (modsad) =    0
 initial eigen-mode to follow     (moddir) =    0
 initial variable to follow       (vardir) =    0
 follow first negative mode     (firstneg) =    T
 apply conjugacy                    (opcg) =    F
 source of zmatrix                         =   user    


          -------------------
          Energy Minimization
          -------------------

 
 Names of Z-matrix variables 
    1 R1           2 R2           3 A1           4 R5           5 A4      
    6 D180         7 R6           8 A5           9 D180        10 R7      
   11 A6          12 D180        13 R8          14 A7          15 D0      
   16 R9          17 A8          18 D1          19 R10         20 A9      
   21 D2          22 R11         23 A10         24 D3      
 
 Variables with the same non-blank name are constrained to be equal
 
     variables named     D180 =     6    9   12 

 Number of frozen variables =    4
           Frozen variables =    6    9   12   15
 
 Using diagonal initial Hessian 
 Scaling for Hessian diagonals: bonds = 1.00  angles = 0.25  torsions = 0.10

          --------
          Step   0
          --------
 
 
                         Geometry "geometry" -> "geometry"
                         ---------------------------------
 
 Output coordinates in angstroms (scale by  1.889725989 to convert to a.u.)
 
  No.       Tag          Charge          X              Y              Z
 ---- ---------------- ---------- -------------- -------------- --------------
    1 O                    8.0000    -1.31282400    -0.27642533     0.00000000
    2 C                    6.0000    -0.04750725     0.13004058     0.00000000
    3 C                    6.0000     0.34396203     1.43561356     0.00000000
    4 H                    1.0000    -1.27104509    -1.26954694     0.00000000
    5 C                    6.0000     0.92299722    -0.99394611     0.00000000
    6 H                    1.0000     1.39301026     1.68377038     0.00000000
    7 H                    1.0000    -0.44270368     2.20304958     0.00000000
    8 H                    1.0000     1.95124468    -0.60316848     0.00000000
    9 H                    1.0000     0.77768691    -1.61647502    -0.89517745
   10 H                    1.0000     0.77768691    -1.61647502     0.89517745
 
      Atomic Mass 
      ----------- 
 
      O                 15.994910
      C                 12.000000
      H                  1.007825
 

 Effective nuclear repulsion energy (a.u.)     121.0684914125

            Nuclear Dipole moment (a.u.) 
            ----------------------------
        X                 Y               Z
 ---------------- ---------------- ----------------
     0.0000000000     0.0000000000     0.0000000000
 
      Symmetry information
      --------------------
 
 Group name             Cs        
 Group number              2
 Group order               2
 No. of unique centers     9
 
      Symmetry unique atoms
 
     1    2    3    4    5    6    7    8    9
 
                      Basis "ao basis" -> "ao basis" (spherical)
                      -----
  O (Oxygen)
  ----------
            Exponent  Coefficients 
       -------------- ---------------------------------------------------------
  1 S  1.17200000E+04  0.000710
  1 S  1.75900000E+03  0.005470
  1 S  4.00800000E+02  0.027837
  1 S  1.13700000E+02  0.104800
  1 S  3.70300000E+01  0.283062
  1 S  1.32700000E+01  0.448719
  1 S  5.02500000E+00  0.270952
  1 S  1.01300000E+00  0.015458
 
  2 S  1.17200000E+04 -0.000160
  2 S  1.75900000E+03 -0.001263
  2 S  4.00800000E+02 -0.006267
  2 S  1.13700000E+02 -0.025716
  2 S  3.70300000E+01 -0.070924
  2 S  1.32700000E+01 -0.165411
  2 S  5.02500000E+00 -0.116955
  2 S  1.01300000E+00  0.557368
 
  3 S  3.02300000E-01  1.000000
 
  4 S  7.89600000E-02  1.000000
 
  5 P  1.77000000E+01  0.043018
  5 P  3.85400000E+00  0.228913
  5 P  1.04600000E+00  0.508728
 
  6 P  2.75300000E-01  1.000000
 
  7 P  6.85600000E-02  1.000000
 
  8 D  1.18500000E+00  1.000000
 
  9 D  3.32000000E-01  1.000000
 
  C (Carbon)
  ----------
            Exponent  Coefficients 
       -------------- ---------------------------------------------------------
  1 S  6.66500000E+03  0.000692
  1 S  1.00000000E+03  0.005329
  1 S  2.28000000E+02  0.027077
  1 S  6.47100000E+01  0.101718
  1 S  2.10600000E+01  0.274740
  1 S  7.49500000E+00  0.448564
  1 S  2.79700000E+00  0.285074
  1 S  5.21500000E-01  0.015204
 
  2 S  6.66500000E+03 -0.000146
  2 S  1.00000000E+03 -0.001154
  2 S  2.28000000E+02 -0.005725
  2 S  6.47100000E+01 -0.023312
  2 S  2.10600000E+01 -0.063955
  2 S  7.49500000E+00 -0.149981
  2 S  2.79700000E+00 -0.127262
  2 S  5.21500000E-01  0.544529
 
  3 S  1.59600000E-01  1.000000
 
  4 S  4.69000000E-02  1.000000
 
  5 P  9.43900000E+00  0.038109
  5 P  2.00200000E+00  0.209480
  5 P  5.45600000E-01  0.508557
 
  6 P  1.51700000E-01  1.000000
 
  7 P  4.04100000E-02  1.000000
 
  8 D  5.50000000E-01  1.000000
 
  9 D  1.51000000E-01  1.000000
 
  H (Hydrogen)
  ------------
            Exponent  Coefficients 
       -------------- ---------------------------------------------------------
  1 S  1.30100000E+01  0.019685
  1 S  1.96200000E+00  0.137977
  1 S  4.44600000E-01  0.478148
 
  2 S  1.22000000E-01  1.000000
 
  3 S  2.97400000E-02  1.000000
 
  4 P  7.27000000E-01  1.000000
 
  5 P  1.41000000E-01  1.000000
 


 Summary of "ao basis" -> "ao basis" (spherical)
 ------------------------------------------------------------------------------
       Tag                 Description            Shells   Functions and Types
 ---------------- ------------------------------  ------  ---------------------
 O                        aug-cc-pVDZ                9       23   4s3p2d
 C                        aug-cc-pVDZ                9       23   4s3p2d
 H                        aug-cc-pVDZ                5        9   3s2p


                                 NWChem SCF Module
                                 -----------------
 
 
                                   Me,H,Me Ref 2
 
 

  ao basis        = "ao basis"
  functions       =   146
  atoms           =    10
  closed shells   =    16
  open shells     =     0
  charge          =   0.00
  wavefunction    = RHF 
  input vectors   = atomic
  output vectors  = ./2R2.movecs
  use symmetry    = T
  symmetry adapt  = T


 Summary of "ao basis" -> "ao basis" (spherical)
 ------------------------------------------------------------------------------
       Tag                 Description            Shells   Functions and Types
 ---------------- ------------------------------  ------  ---------------------
 O                        aug-cc-pVDZ                9       23   4s3p2d
 C                        aug-cc-pVDZ                9       23   4s3p2d
 H                        aug-cc-pVDZ                5        9   3s2p


      Symmetry analysis of basis
      --------------------------
 
        a'        101
        a"         45
 

int_init: setting std/high accuracies to  1.0D-16  1.0D-32

 Forming initial guess at       0.2s


 Forcing the number of linearly dependent vectors to be  0
 
      Superposition of Atomic Density Guess
      -------------------------------------
 
 Sum of atomic energies:        -190.76388830
 
      Non-variational initial energy
      ------------------------------

 Total energy =    -193.179458
 1-e energy   =    -496.607633
 2-e energy   =     182.359683
 HOMO         =      -0.269851
 LUMO         =       0.016018
 
 
      Symmetry analysis of molecular orbitals - initial
      -------------------------------------------------
 
  Numbering of irreducible representations: 
 
     1 a'          2 a"      
 
  Orbital symmetries:
 
     1 a'          2 a'          3 a'          4 a'          5 a'      
     6 a'          7 a'          8 a'          9 a'         10 a'      
    11 a"         12 a'         13 a"         14 a'         15 a'      
    16 a"         17 a'         18 a"         19 a'         20 a'      
    21 a'         22 a"         23 a'         24 a'         25 a'      
    26 a"      
 

 Starting SCF solution at       1.0s



 ----------------------------------------------
         Quadratically convergent ROHF

 Convergence threshold     :          1.000E-09
 Maximum no. of iterations :           99
 Final Fock-matrix accuracy:          1.000E-15
 ----------------------------------------------

 Warning: symmetry breaking in RHF:   2.825986969132990E-012

              iter       energy          gnorm     gmax       time
             ----- ------------------- --------- --------- --------
                 1     -191.8876744990  9.53D-01  1.07D-01      1.6
 Warning: symmetry breaking in RHF:   2.165310292179257E-011
                 2     -191.9451039921  4.03D-01  5.28D-02      2.3
 Warning: symmetry breaking in RHF:   1.565994989932706E-011
                 3     -191.9551010601  2.30D-02  4.90D-03      4.4
 Warning: symmetry breaking in RHF:   1.565516639934206E-011
                 4     -191.9551662747  3.58D-04  8.15D-05      7.8
 Warning: symmetry breaking in RHF:   1.565900794447961E-011
                 5     -191.9551662964  6.90D-08  1.05D-08     13.4
 Warning: symmetry breaking in RHF:   1.562529966525616E-011
                 6     -191.9551662964  7.58D-11  2.46D-11     18.2


       Final RHF  results 
       ------------------ 

         Total SCF energy =   -191.955166296444
      One-electron energy =   -500.002975668979
      Two-electron energy =    186.979317960032
 Nuclear repulsion energy =    121.068491412503

        Time for solution =     17.4s


 
       Symmetry analysis of molecular orbitals - final
       -----------------------------------------------
 
  Numbering of irreducible representations: 
 
     1 a'          2 a"      
 
  Orbital symmetries:
 
     1 a'          2 a'          3 a'          4 a'          5 a'      
     6 a'          7 a'          8 a'          9 a'         10 a'      
    11 a"         12 a'         13 a"         14 a'         15 a'      
    16 a"         17 a'         18 a'         19 a'         20 a"      
    21 a'         22 a'         23 a'         24 a"         25 a'      
    26 a"      
 
             Final eigenvalues
             -----------------

              1      
    1  -20.6064
    2  -11.3068
    3  -11.2461
    4  -11.2106
    5   -1.4246
    6   -1.0517
    7   -0.9494
    8   -0.7833
    9   -0.6929
   10   -0.6410
   11   -0.6220
   12   -0.5761
   13   -0.5457
   14   -0.5379
   15   -0.5017
   16   -0.3260
   17    0.0306
   18    0.0471
   19    0.0520
   20    0.0545
   21    0.0680
   22    0.0799
   23    0.1065
   24    0.1218
   25    0.1392
   26    0.1423
 
                       ROHF Final Molecular Orbital Analysis
                       -------------------------------------
 
 Vector    5  Occ=2.000000D+00  E=-1.424647D+00  Symmetry=a'
              MO Center= -1.1D+00, -3.2D-01, -2.2D-19, r^2= 5.9D-01
   Bfn.  Coefficient  Atom+Function         Bfn.  Coefficient  Atom+Function  
  ----- ------------  ---------------      ----- ------------  ---------------
     3      0.485219   1 O  s                 2      0.411618   1 O  s         
    27     -0.200052   2 C  s                70      0.175713   4 H  s         
     4      0.158272   1 O  s                25      0.151463   2 C  s         
 
 Vector    6  Occ=2.000000D+00  E=-1.051715D+00  Symmetry=a'
              MO Center=  3.7D-01, -7.6D-02, -3.1D-15, r^2= 1.9D+00
   Bfn.  Coefficient  Atom+Function         Bfn.  Coefficient  Atom+Function  
  ----- ------------  ---------------      ----- ------------  ---------------
    80      0.250857   5 C  s                25      0.245562   2 C  s         
    48      0.192998   3 C  s                26      0.180222   2 C  s         
     3     -0.158435   1 O  s         
 
 Vector    7  Occ=2.000000D+00  E=-9.494201D-01  Symmetry=a'
              MO Center=  4.2D-01,  4.2D-02,  1.5D-14, r^2= 2.5D+00
   Bfn.  Coefficient  Atom+Function         Bfn.  Coefficient  Atom+Function  
  ----- ------------  ---------------      ----- ------------  ---------------
    80     -0.259888   5 C  s                48      0.252759   3 C  s         
    29      0.217195   2 C  py        
 
 Vector    8  Occ=2.000000D+00  E=-7.832618D-01  Symmetry=a'
              MO Center= -5.2D-01,  1.4D-01, -1.5D-18, r^2= 2.6D+00
   Bfn.  Coefficient  Atom+Function         Bfn.  Coefficient  Atom+Function  
  ----- ------------  ---------------      ----- ------------  ---------------
    50      0.408772   3 C  s                26      0.318701   2 C  s         
     5      0.284776   1 O  px                6      0.274364   1 O  py        
    49     -0.265698   3 C  s                27     -0.262080   2 C  s         
    70     -0.252109   4 H  s                35     -0.203824   2 C  py        
    25      0.186603   2 C  s                28     -0.176386   2 C  px        
 
 Vector    9  Occ=2.000000D+00  E=-6.928945D-01  Symmetry=a'
              MO Center= -2.1D-01, -4.5D-01,  5.3D-14, r^2= 2.5D+00
   Bfn.  Coefficient  Atom+Function         Bfn.  Coefficient  Atom+Function  
  ----- ------------  ---------------      ----- ------------  ---------------
     6      0.331080   1 O  py               70     -0.221686   4 H  s         
     3      0.205254   1 O  s                83      0.193275   5 C  px        
     9      0.189491   1 O  py               84     -0.163510   5 C  py        
   120      0.151800   8 H  s         
 
 Vector   10  Occ=2.000000D+00  E=-6.409993D-01  Symmetry=a'
              MO Center=  3.3D-02,  4.3D-01,  4.9D-14, r^2= 3.1D+00
   Bfn.  Coefficient  Atom+Function         Bfn.  Coefficient  Atom+Function  
  ----- ------------  ---------------      ----- ------------  ---------------
    50      0.347235   3 C  s                52     -0.277965   3 C  py        
     5     -0.272026   1 O  px              111     -0.231923   7 H  s         
    28      0.211841   2 C  px               84      0.192875   5 C  py        
    27     -0.190496   2 C  s                35     -0.168013   2 C  py        
     8     -0.165676   1 O  px              112     -0.162893   7 H  s         
 
 Vector   11  Occ=2.000000D+00  E=-6.219624D-01  Symmetry=a"
              MO Center= -9.8D-02, -6.4D-01,  3.4D-14, r^2= 2.2D+00
   Bfn.  Coefficient  Atom+Function         Bfn.  Coefficient  Atom+Function  
  ----- ------------  ---------------      ----- ------------  ---------------
     7      0.368075   1 O  pz               85      0.286250   5 C  pz        
    10      0.268492   1 O  pz               30      0.210071   2 C  pz        
   129     -0.204001   9 H  s               138      0.204001  10 H  s         
 
 Vector   12  Occ=2.000000D+00  E=-5.761439D-01  Symmetry=a'
              MO Center=  5.6D-01,  8.2D-01,  3.2D-14, r^2= 2.6D+00
   Bfn.  Coefficient  Atom+Function         Bfn.  Coefficient  Atom+Function  
  ----- ------------  ---------------      ----- ------------  ---------------
    51      0.343509   3 C  px              102      0.330584   6 H  s         
   103      0.301362   6 H  s                29     -0.218567   2 C  py        
    49     -0.168597   3 C  s               112     -0.166501   7 H  s         
    52      0.152936   3 C  py        
 
 Vector   13  Occ=2.000000D+00  E=-5.456863D-01  Symmetry=a"
              MO Center= -1.7D-01, -7.9D-01, -1.7D-15, r^2= 2.4D+00
   Bfn.  Coefficient  Atom+Function         Bfn.  Coefficient  Atom+Function  
  ----- ------------  ---------------      ----- ------------  ---------------
     7      0.436895   1 O  pz               10      0.337652   1 O  pz        
    85     -0.309551   5 C  pz              129      0.239567   9 H  s         
   138     -0.239567  10 H  s         
 
 Vector   14  Occ=2.000000D+00  E=-5.378784D-01  Symmetry=a'
              MO Center=  5.9D-01, -2.0D-01, -6.8D-14, r^2= 3.3D+00
   Bfn.  Coefficient  Atom+Function         Bfn.  Coefficient  Atom+Function  
  ----- ------------  ---------------      ----- ------------  ---------------
   120      0.316442   8 H  s                83      0.290393   5 C  px        
   121      0.253750   8 H  s                 5      0.205440   1 O  px        
    51     -0.195689   3 C  px              111      0.179661   7 H  s         
    84      0.176333   5 C  py              103     -0.170188   6 H  s         
     6     -0.163129   1 O  py              102     -0.151718   6 H  s         
 
 Vector   15  Occ=2.000000D+00  E=-5.017219D-01  Symmetry=a'
              MO Center= -1.9D-02,  2.2D-01,  4.7D-16, r^2= 2.9D+00
   Bfn.  Coefficient  Atom+Function         Bfn.  Coefficient  Atom+Function  
  ----- ------------  ---------------      ----- ------------  ---------------
    29      0.275943   2 C  py              112     -0.265328   7 H  s         
    84     -0.249084   5 C  py                5      0.241299   1 O  px        
    52     -0.239334   3 C  py               87     -0.235028   5 C  py        
   111     -0.235046   7 H  s                83      0.192338   5 C  px        
    50      0.185305   3 C  s                27     -0.183073   2 C  s         
 
 Vector   16  Occ=2.000000D+00  E=-3.259770D-01  Symmetry=a"
              MO Center=  9.2D-02,  7.7D-01,  3.0D-14, r^2= 2.1D+00
   Bfn.  Coefficient  Atom+Function         Bfn.  Coefficient  Atom+Function  
  ----- ------------  ---------------      ----- ------------  ---------------
    53      0.410244   3 C  pz               30      0.307440   2 C  pz        
    56      0.290483   3 C  pz                7     -0.240742   1 O  pz        
    33      0.233096   2 C  pz               10     -0.195718   1 O  pz        
 
 Vector   17  Occ=0.000000D+00  E= 3.062548D-02  Symmetry=a'
              MO Center=  5.0D-02, -2.5D+00,  2.8D-14, r^2= 1.6D+01
   Bfn.  Coefficient  Atom+Function         Bfn.  Coefficient  Atom+Function  
  ----- ------------  ---------------      ----- ------------  ---------------
    50      7.992205   3 C  s                35     -4.432256   2 C  py        
    27     -3.846217   2 C  s                58     -1.737731   3 C  py        
    72     -1.718911   4 H  s               131     -1.219239   9 H  s         
   140     -1.219239  10 H  s               122     -1.004379   8 H  s         
    34     -0.971007   2 C  px                4     -0.839693   1 O  s         
 
 Vector   18  Occ=0.000000D+00  E= 4.712828D-02  Symmetry=a'
              MO Center=  1.8D+00,  5.1D-01, -3.1D-14, r^2= 2.2D+01
   Bfn.  Coefficient  Atom+Function         Bfn.  Coefficient  Atom+Function  
  ----- ------------  ---------------      ----- ------------  ---------------
    82      7.019381   5 C  s                35      4.737969   2 C  py        
   104     -3.277889   6 H  s                50     -2.934066   3 C  s         
    27     -2.472407   2 C  s                72      2.067351   4 H  s         
    57      1.788564   3 C  px                4      1.564069   1 O  s         
   122     -1.553717   8 H  s                90      1.431303   5 C  py        
 
 Vector   19  Occ=0.000000D+00  E= 5.201803D-02  Symmetry=a'
              MO Center=  1.7D-01,  1.4D+00, -1.3D-15, r^2= 2.6D+01
   Bfn.  Coefficient  Atom+Function         Bfn.  Coefficient  Atom+Function  
  ----- ------------  ---------------      ----- ------------  ---------------
    50     -7.025961   3 C  s                35      6.830320   2 C  py        
    82      5.722540   5 C  s               122      3.917176   8 H  s         
   113     -3.297714   7 H  s                58      3.271582   3 C  py        
   104     -3.231566   6 H  s                27      3.085196   2 C  s         
    89     -2.791688   5 C  px               34     -1.536158   2 C  px        
 
 Vector   20  Occ=0.000000D+00  E= 5.450298D-02  Symmetry=a"
              MO Center=  5.2D-01, -2.3D+00, -4.5D-14, r^2= 1.8D+01
   Bfn.  Coefficient  Atom+Function         Bfn.  Coefficient  Atom+Function  
  ----- ------------  ---------------      ----- ------------  ---------------
   131      4.385804   9 H  s               140     -4.385804  10 H  s         
    91      1.985249   5 C  pz              130      0.636969   9 H  s         
   139     -0.636969  10 H  s                88      0.438330   5 C  pz        
    59     -0.240085   3 C  pz        
 
 Vector   21  Occ=0.000000D+00  E= 6.802215D-02  Symmetry=a'
              MO Center= -8.1D-02,  1.1D+00, -3.7D-15, r^2= 2.7D+01
   Bfn.  Coefficient  Atom+Function         Bfn.  Coefficient  Atom+Function  
  ----- ------------  ---------------      ----- ------------  ---------------
   113     -5.446857   7 H  s               104      5.223001   6 H  s         
    57     -3.561918   3 C  px               72      2.825632   4 H  s         
    82      2.550697   5 C  s                34      2.139644   2 C  px        
    50     -1.605508   3 C  s               131     -1.560663   9 H  s         
   140     -1.560663  10 H  s               103      1.373510   6 H  s         
 
 Vector   22  Occ=0.000000D+00  E= 7.991583D-02  Symmetry=a'
              MO Center=  1.7D+00, -2.3D-01,  2.0D-14, r^2= 2.5D+01
   Bfn.  Coefficient  Atom+Function         Bfn.  Coefficient  Atom+Function  
  ----- ------------  ---------------      ----- ------------  ---------------
   122      8.689363   8 H  s               104     -6.556640   6 H  s         
    50     -6.038597   3 C  s                35      4.900819   2 C  py        
    27      3.928071   2 C  s               131     -3.424714   9 H  s         
   140     -3.424714  10 H  s                57      3.106689   3 C  px        
    89     -3.075642   5 C  px               82      3.034443   5 C  s         
 
 Vector   23  Occ=0.000000D+00  E= 1.065455D-01  Symmetry=a'
              MO Center=  4.7D-01, -2.9D-01, -3.4D-15, r^2= 1.9D+01
   Bfn.  Coefficient  Atom+Function         Bfn.  Coefficient  Atom+Function  
  ----- ------------  ---------------      ----- ------------  ---------------
    27     22.391001   2 C  s                50    -10.933140   3 C  s         
    82    -10.225156   5 C  s                34      5.669624   2 C  px        
    90     -5.004084   5 C  py               58      3.266844   3 C  py        
    72      2.797100   4 H  s               131     -2.158290   9 H  s         
   140     -2.158290  10 H  s                89      1.772669   5 C  px        
 
 Vector   24  Occ=0.000000D+00  E= 1.218245D-01  Symmetry=a"
              MO Center=  7.7D-01,  1.4D+00,  1.2D-14, r^2= 1.3D+01
   Bfn.  Coefficient  Atom+Function         Bfn.  Coefficient  Atom+Function  
  ----- ------------  ---------------      ----- ------------  ---------------
    36      3.146786   2 C  pz               59     -2.428509   3 C  pz        
    91     -2.326700   5 C  pz              131     -1.888730   9 H  s         
   140      1.888730  10 H  s               130     -0.671584   9 H  s         
   139      0.671584  10 H  s                13     -0.571646   1 O  pz        
    88     -0.345002   5 C  pz               33      0.241871   2 C  pz        
 
 Vector   25  Occ=0.000000D+00  E= 1.392060D-01  Symmetry=a'
              MO Center= -5.7D-01, -1.8D+00, -6.0D-15, r^2= 1.7D+01
   Bfn.  Coefficient  Atom+Function         Bfn.  Coefficient  Atom+Function  
  ----- ------------  ---------------      ----- ------------  ---------------
    50     31.007487   3 C  s                35    -20.008311   2 C  py        
    27    -13.694524   2 C  s                82    -13.271143   5 C  s         
    58     -8.113956   3 C  py              104      4.174513   6 H  s         
    90     -3.758090   5 C  py              113      3.705873   7 H  s         
    57     -3.570959   3 C  px               72     -3.111661   4 H  s         
 
 Vector   26  Occ=0.000000D+00  E= 1.422990D-01  Symmetry=a"
              MO Center=  3.0D-01, -1.1D-01,  8.3D-15, r^2= 1.5D+01
   Bfn.  Coefficient  Atom+Function         Bfn.  Coefficient  Atom+Function  
  ----- ------------  ---------------      ----- ------------  ---------------
    91     -3.813074   5 C  pz               36      3.623335   2 C  pz        
   131     -1.584962   9 H  s               140      1.584962  10 H  s         
   130     -0.969029   9 H  s               139      0.969029  10 H  s         
    13     -0.591082   1 O  pz               59     -0.549162   3 C  pz        
    88     -0.501750   5 C  pz              128      0.197210   8 H  pz        
 
 Vector   27  Occ=0.000000D+00  E= 1.480893D-01  Symmetry=a'
              MO Center=  7.2D-02, -5.6D-02,  2.8D-16, r^2= 2.0D+01
   Bfn.  Coefficient  Atom+Function         Bfn.  Coefficient  Atom+Function  
  ----- ------------  ---------------      ----- ------------  ---------------
   122      5.592394   8 H  s                34      5.553021   2 C  px        
     4      4.212495   1 O  s                89     -4.030418   5 C  px        
   104     -3.084040   6 H  s                32      2.608004   2 C  py        
    82     -2.559983   5 C  s                58      2.434811   3 C  py        
    27     -2.277860   2 C  s                49     -2.250694   3 C  s         
 
 Vector   28  Occ=0.000000D+00  E= 1.580208D-01  Symmetry=a'
              MO Center=  5.3D-01, -1.4D-01,  6.6D-15, r^2= 1.9D+01
   Bfn.  Coefficient  Atom+Function         Bfn.  Coefficient  Atom+Function  
  ----- ------------  ---------------      ----- ------------  ---------------
    35     15.913916   2 C  py               82     14.643826   5 C  s         
    50    -13.771713   3 C  s                27     -8.958636   2 C  s         
    89     -7.604056   5 C  px              122      5.641969   8 H  s         
     4      4.537771   1 O  s                57      1.772706   3 C  px        
   121      1.744685   8 H  s               112      1.699912   7 H  s         
 
 Vector   29  Occ=0.000000D+00  E= 1.669463D-01  Symmetry=a'
              MO Center=  4.6D-01,  1.8D+00,  7.6D-15, r^2= 2.0D+01
   Bfn.  Coefficient  Atom+Function         Bfn.  Coefficient  Atom+Function  
  ----- ------------  ---------------      ----- ------------  ---------------
    50     24.730197   3 C  s                82    -21.449854   5 C  s         
    35    -19.160782   2 C  py               27    -12.358556   2 C  s         
    58     -9.465723   3 C  py              104      8.195112   6 H  s         
   122     -7.874004   8 H  s                89      7.807606   5 C  px        
    57     -6.100377   3 C  px               34      4.999926   2 C  px        
 
 Vector   30  Occ=0.000000D+00  E= 1.755336D-01  Symmetry=a"
              MO Center=  7.8D-01, -4.7D-01, -2.1D-14, r^2= 1.4D+01
   Bfn.  Coefficient  Atom+Function         Bfn.  Coefficient  Atom+Function  
  ----- ------------  ---------------      ----- ------------  ---------------
   131      4.515262   9 H  s               140     -4.515262  10 H  s         
    91      3.082876   5 C  pz              130      2.887492   9 H  s         
   139     -2.887492  10 H  s                36      2.454442   2 C  pz        
    59     -1.535578   3 C  pz               88      1.372735   5 C  pz        
    13     -0.629694   1 O  pz              137      0.543853   9 H  pz        
 
 Vector   31  Occ=0.000000D+00  E= 1.798758D-01  Symmetry=a'
              MO Center=  1.6D+00, -8.3D-02,  3.0D-14, r^2= 1.5D+01
   Bfn.  Coefficient  Atom+Function         Bfn.  Coefficient  Atom+Function  
  ----- ------------  ---------------      ----- ------------  ---------------
    82     13.665617   5 C  s                27     -8.147416   2 C  s         
    35      7.284566   2 C  py                4      5.174502   1 O  s         
   121     -2.823673   8 H  s               104     -2.731876   6 H  s         
    72      2.694176   4 H  s               103     -2.481837   6 H  s         
    57      1.740075   3 C  px               50     -1.667223   3 C  s         
 
 Vector   32  Occ=0.000000D+00  E= 1.936718D-01  Symmetry=a'
              MO Center=  4.7D-01,  1.6D+00,  1.5D-14, r^2= 1.6D+01
   Bfn.  Coefficient  Atom+Function         Bfn.  Coefficient  Atom+Function  
  ----- ------------  ---------------      ----- ------------  ---------------
    57      8.390859   3 C  px              104     -7.465975   6 H  s         
    27     -6.850836   2 C  s               113      6.625822   7 H  s         
    34     -5.821811   2 C  px              112      3.222596   7 H  s         
   103     -3.158339   6 H  s                50      2.897237   3 C  s         
    72     -2.113202   4 H  s                58     -1.975336   3 C  py        
 
 Vector   33  Occ=0.000000D+00  E= 1.998930D-01  Symmetry=a"
              MO Center=  2.4D-01,  3.1D-01, -1.5D-14, r^2= 7.7D+00
   Bfn.  Coefficient  Atom+Function         Bfn.  Coefficient  Atom+Function  
  ----- ------------  ---------------      ----- ------------  ---------------
   131      1.712487   9 H  s               140     -1.712487  10 H  s         
    59     -1.167506   3 C  pz               91      1.012539   5 C  pz        
    36      0.665791   2 C  pz               33     -0.388467   2 C  pz        
   130      0.365138   9 H  s               139     -0.365138  10 H  s         
    13      0.344387   1 O  pz               30     -0.333992   2 C  pz        
 
 Vector   34  Occ=0.000000D+00  E= 2.198727D-01  Symmetry=a'
              MO Center=  1.3D-02,  4.0D-01,  1.0D-15, r^2= 1.4D+01
   Bfn.  Coefficient  Atom+Function         Bfn.  Coefficient  Atom+Function  
  ----- ------------  ---------------      ----- ------------  ---------------
    27     26.586404   2 C  s                82    -21.336983   5 C  s         
    90     -6.010630   5 C  py               34      5.802627   2 C  px        
    50     -3.879207   3 C  s               113      3.188576   7 H  s         
   103     -2.547250   6 H  s                89      2.320417   5 C  px        
   104     -1.652563   6 H  s               131     -1.569745   9 H  s         
 
 Vector   35  Occ=0.000000D+00  E= 2.337856D-01  Symmetry=a'
              MO Center=  7.7D-02, -7.4D-01,  1.5D-15, r^2= 1.4D+01
   Bfn.  Coefficient  Atom+Function         Bfn.  Coefficient  Atom+Function  
  ----- ------------  ---------------      ----- ------------  ---------------
    50     14.401762   3 C  s                27     -9.802315   2 C  s         
    82     -8.976638   5 C  s               122     -7.238026   8 H  s         
    35     -6.697287   2 C  py              104      5.854608   6 H  s         
    57     -5.609453   3 C  px               89      5.231339   5 C  px        
     4      4.878192   1 O  s                58     -3.681659   3 C  py        
 
 Vector   36  Occ=0.000000D+00  E= 2.635075D-01  Symmetry=a'
              MO Center= -1.3D+00, -4.5D-01, -1.2D-14, r^2= 1.1D+01
   Bfn.  Coefficient  Atom+Function         Bfn.  Coefficient  Atom+Function  
  ----- ------------  ---------------      ----- ------------  ---------------
    50     27.457286   3 C  s                27    -16.567022   2 C  s         
    35    -13.562669   2 C  py               82    -10.237031   5 C  s         
    58     -5.724319   3 C  py              112     -4.674106   7 H  s         
    89      4.581700   5 C  px               34     -4.319509   2 C  px        
    11      3.782674   1 O  px               55      3.061361   3 C  py        
 
 Vector   37  Occ=0.000000D+00  E= 2.815996D-01  Symmetry=a'
              MO Center=  1.5D-01,  5.5D-01, -6.6D-15, r^2= 1.4D+01
   Bfn.  Coefficient  Atom+Function         Bfn.  Coefficient  Atom+Function  
  ----- ------------  ---------------      ----- ------------  ---------------
    50    -45.475756   3 C  s                27     42.625777   2 C  s         
    35     17.147376   2 C  py               58     10.851937   3 C  py        
    34      4.862022   2 C  px               82      4.065097   5 C  s         
   103      3.602524   6 H  s                72      3.460198   4 H  s         
    57      3.002473   3 C  px              112      2.664720   7 H  s         
 
 Vector   38  Occ=0.000000D+00  E= 2.837949D-01  Symmetry=a"
              MO Center=  9.4D-02, -7.2D-01,  1.7D-15, r^2= 8.5D+00
   Bfn.  Coefficient  Atom+Function         Bfn.  Coefficient  Atom+Function  
  ----- ------------  ---------------      ----- ------------  ---------------
    36      3.379186   2 C  pz               91     -1.968046   5 C  pz        
    59     -1.715666   3 C  pz              131     -1.464096   9 H  s         
   140      1.464096  10 H  s                13     -1.398672   1 O  pz        
   100      0.787881   5 C  d  1            128      0.757004   8 H  pz        
   135     -0.624736   9 H  px              144      0.624736  10 H  px        
 
 Vector   39  Occ=0.000000D+00  E= 2.949583D-01  Symmetry=a"
              MO Center= -8.9D-01, -4.7D-01,  9.2D-16, r^2= 9.6D+00
   Bfn.  Coefficient  Atom+Function         Bfn.  Coefficient  Atom+Function  
  ----- ------------  ---------------      ----- ------------  ---------------
    36      3.690231   2 C  pz               13     -2.820834   1 O  pz        
    91     -1.321364   5 C  pz               59     -1.127157   3 C  pz        
   128     -0.673736   8 H  pz               45      0.651670   2 C  d  1      
   100     -0.489153   5 C  d  1            130     -0.488644   9 H  s         
   139      0.488644  10 H  s                56      0.423687   3 C  pz        
 
 Vector   40  Occ=0.000000D+00  E= 3.032860D-01  Symmetry=a'
              MO Center=  2.5D-01,  7.5D-01, -1.7D-14, r^2= 1.2D+01
   Bfn.  Coefficient  Atom+Function         Bfn.  Coefficient  Atom+Function  
  ----- ------------  ---------------      ----- ------------  ---------------
    82     31.986428   5 C  s                50    -24.998712   3 C  s         
    35     20.918229   2 C  py               27     -8.274196   2 C  s         
    89     -6.035038   5 C  px               34     -5.729391   2 C  px        
    58      5.731223   3 C  py               90      5.637638   5 C  py        
     4      5.114118   1 O  s                57      3.844563   3 C  px        
 
 Vector   41  Occ=0.000000D+00  E= 3.280186D-01  Symmetry=a'
              MO Center=  3.5D-01, -4.3D-01, -2.2D-14, r^2= 1.0D+01
   Bfn.  Coefficient  Atom+Function         Bfn.  Coefficient  Atom+Function  
  ----- ------------  ---------------      ----- ------------  ---------------
    50     13.421125   3 C  s                82    -12.949620   5 C  s         
    35    -10.900216   2 C  py                4     -4.428787   1 O  s         
    32      3.720100   2 C  py              103     -3.478770   6 H  s         
    27      3.233564   2 C  s                55      2.850391   3 C  py        
    81      2.595146   5 C  s               121      2.468483   8 H  s         
 
 Vector   42  Occ=0.000000D+00  E= 3.459016D-01  Symmetry=a"
              MO Center=  3.6D-01,  2.3D-03, -8.2D-15, r^2= 8.2D+00
   Bfn.  Coefficient  Atom+Function         Bfn.  Coefficient  Atom+Function  
  ----- ------------  ---------------      ----- ------------  ---------------
   130      1.683140   9 H  s               139     -1.683140  10 H  s         
   110      1.006098   6 H  pz              135      0.845613   9 H  px        
   144     -0.845613  10 H  px              100     -0.804155   5 C  d  1      
   119     -0.746580   7 H  pz               78      0.633679   4 H  pz        
    45     -0.624320   2 C  d  1             88      0.580359   5 C  pz        
 
 Vector   43  Occ=0.000000D+00  E= 3.527625D-01  Symmetry=a'
              MO Center= -4.6D-01,  4.2D-01,  7.5D-15, r^2= 1.0D+01
   Bfn.  Coefficient  Atom+Function         Bfn.  Coefficient  Atom+Function  
  ----- ------------  ---------------      ----- ------------  ---------------
    50     27.435665   3 C  s                35    -18.335192   2 C  py        
    82    -15.021731   5 C  s                27    -12.736333   2 C  s         
    34      5.293787   2 C  px               57     -5.155299   3 C  px        
    12      4.826477   1 O  py               58     -4.773583   3 C  py        
   112     -4.488237   7 H  s                71      3.063791   4 H  s         
 
 Vector   44  Occ=0.000000D+00  E= 3.761879D-01  Symmetry=a'
              MO Center=  2.5D-01, -2.0D-02,  4.1D-15, r^2= 1.0D+01
   Bfn.  Coefficient  Atom+Function         Bfn.  Coefficient  Atom+Function  
  ----- ------------  ---------------      ----- ------------  ---------------
    50     20.861315   3 C  s                35    -14.678367   2 C  py        
    82    -13.029152   5 C  s                89      6.248726   5 C  px        
     4     -6.121738   1 O  s               122     -4.234068   8 H  s         
    58     -4.164462   3 C  py               71      3.520070   4 H  s         
    12      3.374285   1 O  py              103     -2.911083   6 H  s         
 
 Vector   45  Occ=0.000000D+00  E= 3.880073D-01  Symmetry=a'
              MO Center=  5.5D-01, -4.8D-01,  1.4D-13, r^2= 9.7D+00
   Bfn.  Coefficient  Atom+Function         Bfn.  Coefficient  Atom+Function  
  ----- ------------  ---------------      ----- ------------  ---------------
    50     28.933300   3 C  s                27    -17.596988   2 C  s         
    35    -12.711541   2 C  py               82    -11.513810   5 C  s         
    58     -6.759700   3 C  py              104      4.916459   6 H  s         
    57     -4.735057   3 C  px               89      3.645821   5 C  px        
   112     -3.038710   7 H  s                71      2.814917   4 H  s         
 
 Vector   46  Occ=0.000000D+00  E= 4.155145D-01  Symmetry=a"
              MO Center=  7.8D-01,  7.2D-03,  2.1D-14, r^2= 9.8D+00
   Bfn.  Coefficient  Atom+Function         Bfn.  Coefficient  Atom+Function  
  ----- ------------  ---------------      ----- ------------  ---------------
   130      3.530950   9 H  s               139     -3.530950  10 H  s         
    91      3.028894   5 C  pz               88      2.172117   5 C  pz        
   131      1.737023   9 H  s               140     -1.737023  10 H  s         
    36     -1.119682   2 C  pz              119      1.102369   7 H  pz        
   110     -0.928014   6 H  pz               98     -0.759793   5 C  d -1      
 
 Vector   47  Occ=0.000000D+00  E= 4.203216D-01  Symmetry=a'
              MO Center=  2.5D-01,  4.3D-01,  2.8D-15, r^2= 1.1D+01
   Bfn.  Coefficient  Atom+Function         Bfn.  Coefficient  Atom+Function  
  ----- ------------  ---------------      ----- ------------  ---------------
    27     13.712919   2 C  s                 4     -7.903862   1 O  s         
    57     -5.217852   3 C  px              121     -5.027051   8 H  s         
   113     -4.052726   7 H  s                35     -3.707189   2 C  py        
    58      3.568944   3 C  py              112     -3.534482   7 H  s         
   104      3.310152   6 H  s                50     -2.772385   3 C  s         
 
 Vector   48  Occ=0.000000D+00  E= 4.344370D-01  Symmetry=a'
              MO Center=  1.3D-01, -2.8D-01,  3.9D-15, r^2= 1.1D+01
   Bfn.  Coefficient  Atom+Function         Bfn.  Coefficient  Atom+Function  
  ----- ------------  ---------------      ----- ------------  ---------------
    50     18.098206   3 C  s                27    -15.566823   2 C  s         
    82    -11.359854   5 C  s                 4      9.157802   1 O  s         
    32      8.215487   2 C  py               35     -7.447678   2 C  py        
    55      6.061014   3 C  py               49     -5.965663   3 C  s         
    87      5.342954   5 C  py              130      4.926508   9 H  s         
 
 Vector   49  Occ=0.000000D+00  E= 4.499144D-01  Symmetry=a'
              MO Center=  3.3D-01,  4.9D-01, -1.2D-14, r^2= 1.1D+01
   Bfn.  Coefficient  Atom+Function         Bfn.  Coefficient  Atom+Function  
  ----- ------------  ---------------      ----- ------------  ---------------
    82     17.589470   5 C  s                27     -8.530438   2 C  s         
    35      7.602092   2 C  py               34     -6.114048   2 C  px        
    89     -5.341908   5 C  px              104     -4.918176   6 H  s         
    57      4.708922   3 C  px              122      4.473608   8 H  s         
   121      4.172183   8 H  s               130     -3.758317   9 H  s         
 
 Vector   50  Occ=0.000000D+00  E= 4.572136D-01  Symmetry=a"
              MO Center=  6.7D-01, -1.8D-01, -1.8D-13, r^2= 8.7D+00
   Bfn.  Coefficient  Atom+Function         Bfn.  Coefficient  Atom+Function  
  ----- ------------  ---------------      ----- ------------  ---------------
   130      5.247573   9 H  s               139     -5.247573  10 H  s         
    88      3.529289   5 C  pz               91      3.413332   5 C  pz        
   131      2.387858   9 H  s               140     -2.387858  10 H  s         
    36     -1.377772   2 C  pz              128     -1.074431   8 H  pz        
   136      1.049256   9 H  py              145     -1.049256  10 H  py        
 
 Vector   51  Occ=0.000000D+00  E= 4.833167D-01  Symmetry=a'
              MO Center=  5.3D-01, -6.8D-01,  8.2D-15, r^2= 1.1D+01
   Bfn.  Coefficient  Atom+Function         Bfn.  Coefficient  Atom+Function  
  ----- ------------  ---------------      ----- ------------  ---------------
    82    -28.111671   5 C  s                27     27.682155   2 C  s         
     4    -13.667119   1 O  s                35     -8.168455   2 C  py        
   121      5.093075   8 H  s               130      4.747941   9 H  s         
   139      4.747941  10 H  s                71      4.478563   4 H  s         
    31     -3.928248   2 C  px               86     -3.821562   5 C  px        
 
 Vector   52  Occ=0.000000D+00  E= 4.936044D-01  Symmetry=a'
              MO Center=  2.2D-01,  2.3D-01,  8.6D-14, r^2= 8.8D+00
   Bfn.  Coefficient  Atom+Function         Bfn.  Coefficient  Atom+Function  
  ----- ------------  ---------------      ----- ------------  ---------------
    27      9.601699   2 C  s                50     -9.529891   3 C  s         
    35      7.050977   2 C  py               82      3.489963   5 C  s         
    12     -2.654363   1 O  py              112     -2.567011   7 H  s         
    54      2.531682   3 C  px               58      2.259534   3 C  py        
    49      2.173980   3 C  s                42     -2.117764   2 C  d -2      
 
 Vector   53  Occ=0.000000D+00  E= 4.971127D-01  Symmetry=a"
              MO Center=  3.2D-01,  1.2D-01, -2.0D-13, r^2= 8.6D+00
   Bfn.  Coefficient  Atom+Function         Bfn.  Coefficient  Atom+Function  
  ----- ------------  ---------------      ----- ------------  ---------------
   110      1.258175   6 H  pz               78     -1.136812   4 H  pz        
    56     -0.973502   3 C  pz               13      0.864822   1 O  pz        
   119      0.781563   7 H  pz               36     -0.748833   2 C  pz        
   128     -0.535772   8 H  pz              131     -0.519159   9 H  s         
   140      0.519159  10 H  s               130     -0.513434   9 H  s         
 
 Vector   54  Occ=0.000000D+00  E= 5.158396D-01  Symmetry=a"
              MO Center=  7.2D-01, -3.9D-03,  1.3D-13, r^2= 8.2D+00
   Bfn.  Coefficient  Atom+Function         Bfn.  Coefficient  Atom+Function  
  ----- ------------  ---------------      ----- ------------  ---------------
   130      2.848905   9 H  s               139     -2.848905  10 H  s         
    88      2.009312   5 C  pz               36      1.975631   2 C  pz        
    59     -1.459734   3 C  pz              136      1.365438   9 H  py        
   145     -1.365438  10 H  py              131      1.136404   9 H  s         
   140     -1.136404  10 H  s                56     -0.992097   3 C  pz        
 

 center of mass
 --------------
 x =  -0.10269662 y =   0.03941844 z =   0.00000000

 moments of inertia (a.u.)
 ------------------
         195.010951352561          -0.000000000000           0.000000000000
          -0.000000000000         176.834177253912           0.000000000000
           0.000000000000           0.000000000000         360.308974294925
 
  Mulliken analysis of the total density
  --------------------------------------

    Atom       Charge   Shell Charges
 -----------   ------   -------------------------------------------------------
    1 O    8     8.82   2.00  0.82  1.03  0.22  2.83  1.79  0.10  0.02  0.01
    2 C    6     5.70   2.01  0.66  0.44 -0.05  1.92  0.40  0.15  0.17  0.01
    3 C    6     5.13   2.01  0.64  0.48 -0.49  2.01  0.48  0.04  0.05 -0.10
    4 H    1     0.83   0.70  0.05  0.00  0.07  0.00
    5 C    6     5.93   2.01  0.65  0.11  0.21  2.05  0.84  0.06  0.06 -0.06
    6 H    1     1.31   0.77  0.54 -0.02  0.03 -0.02
    7 H    1     1.26   0.76  0.51 -0.01  0.03 -0.04
    8 H    1     1.12   0.76  0.32  0.02  0.03 -0.01
    9 H    1     0.95   0.76  0.19  0.00  0.03 -0.04
   10 H    1     0.95   0.76  0.19  0.00  0.03 -0.04
 
       Multipole analysis of the density wrt the origin
       ------------------------------------------------
 
     L   x y z        total         open         nuclear
     -   - - -        -----         ----         -------
     0   0 0 0     -0.000000      0.000000     32.000000
 
     1   1 0 0      0.380023      0.000000      0.000000
     1   0 1 0     -0.886356      0.000000      0.000000
     1   0 0 1     -0.000000      0.000000      0.000000
 
     2   2 0 0    -19.483525      0.000000    101.389545
     2   1 1 0      1.134222      0.000000     -1.367189
     2   1 0 1     -0.000000      0.000000      0.000000
     2   0 2 0    -16.745102      0.000000    121.045856
     2   0 1 1     -0.000000      0.000000      0.000000
     2   0 0 2    -20.625582      0.000000      5.723292
 
                   NWChem MP2 Semi-direct Energy/Gradient Module
                   ---------------------------------------------
 
 
                                   Me,H,Me Ref 2
 
 

int_init: setting std/high accuracies to  1.0D-16  1.0D-32
  Basis functions       =    146
  Molecular orbitals    =    146
  Frozen core           =      4
  Frozen virtuals       =      0
  Active alpha occupied =     12
  Active beta occupied  =     12
  Active alpha virtual  =    130
  Active beta virtual   =    130
  Use MO symmetry       = T
  Use skeleton AO sym   = T

  AO/Fock/Back tols     =   1.0D-15  1.0D-15  1.0D-15

 GA uses MA = F    GA memory limited = T

 Available: 
  local mem=  2.29D+07
 global mem=  2.62D+07
 local disk=  0.00D+00

int_init: setting std/high accuracies to  1.0D-16  1.0D-32
  mp2_memr nvloc                     12
  nvloc new                     12
   1 passes of  12:        5242880                     128546                   6215380.
   1 passes of  12: M     22885656           G       26203160           F      17642776.
 
 Semi-direct pass number   1 of   1  for RHF alpha+beta  at       18.7s

int_init: setting std/high accuracies to  1.0D-16  1.0D-32
  vrange nnbf                  10731
  mp2_eaftype                     20  avail_ma_in_mb                    199
 EAF : mp2_eaftype filesize          20    2645195.
  mp2_eaf for mointskh                      20
Node 0 wrote     12.4 Mb in      0.0 s     Agg I/O rate:  4346.4 Mb/s
 Done moints_semi at       21.8s
  mp2_eaftype                     20  avail_ma_in_mb                    179
 EAF : mp2_eaftype filesize          20    2645195.
  mp2_eaf for kh                     20
  mp2_eaftype                     10  avail_ma_in_mb                    179
 EAF : mp2_eaftype filesize          10     449280.
  mp2_eaf for ta tb                     10
  mp2_eaf for ta                      10
  mp2_eaf for tb                      10
 Done maket at       21.9s
 Done pijab at       21.9s
 Done wijab at       21.9s
 Done lai at       22.2s

int_init: setting std/high accuracies to  1.0D-16  1.0D-32
  mp2_eaftype                     20  avail_ma_in_mb                    158
 EAF : mp2_eaftype filesize          20    2671625.
  mp2_eaf for 2pdm                      20
 Done nonsep at       29.3s
 Done multipass loop at       29.3s


          -------------------------------------------
          SCF energy                -191.955166296444
          Correlation energy          -0.632511589737
          Singlet pairs               -0.398213587368
          Triplet pairs               -0.234298002369
          Total MP2 energy          -192.587677886181
          -------------------------------------------



          ---------------------------------------------------
                    Spin Component Scaled (SCS) MP2
          Same spin pairs                     -0.156198668246
          Same spin scaling factor             0.333333333333
          Opposite spin pairs                 -0.476312921491
          Opposite spin scaling fact.          1.200000000000
          SCS-MP2 correlation energy          -0.623641728538
          Total SCS-MP2 energy              -192.578808024981
          ---------------------------------------------------


int_init: setting std/high accuracies to  1.0D-16  1.0D-32
                                NWChem CPHF Module
                                ------------------
 
 

int_init: setting std/high accuracies to  1.0D-16  1.0D-32
    scftype = RHF 
    nclosed =   16
      nopen =    0
  variables =     2080
  tolerance =   1.0D-06
  max. iter =  999

 Warning: symmetry breaking in RHF:   1.480261486302981E-011
 SCF residual:   8.556928202097467E-011

            ----- linear solve (tol: 1.0E-06 prod-acc: 3.0E-14) -----

               iter nbas    rnorm     rnorm-scal   ratio     time
               ---- ---- ----------- ----------- --------- -------
                  1    1  4.1686E-02  2.9971E-01    0.0000    31.1
                  2    2  1.1350E-02  8.1599E-02    0.2723    31.8
                  3    3  2.8430E-03  2.0440E-02    0.2505    32.5
                  4    4  1.0481E-03  7.5353E-03    0.3687    33.2
                  5    5  2.7587E-04  1.9834E-03    0.2632    34.0
                  6    6  1.1463E-04  8.2414E-04    0.4155    34.7
                  7    7  3.2713E-05  2.3520E-04    0.2854    35.4
                  8    8  1.1273E-05  8.1050E-05    0.3446    36.1
                  9    9  3.5494E-06  2.5519E-05    0.3149    36.8
                 10   10  1.0364E-06  7.4513E-06    0.2920    37.5
                 11   11  2.5867E-07  1.8598E-06    0.2496    38.2
                 12   12  4.6683E-08  3.3563E-07    0.1805    38.9

 CPHF converged to   3.4D-07 in   12 iters


int_init: setting std/high accuracies to  1.0D-16  1.0D-32
                Dipole Moments (a.u.)
                --------------
         Nuclear       SCF       SCF+MP2
       ----------- ----------- -----------
 X       0.000000    0.380023    0.337700
 Y       0.000000   -0.886356   -0.804926
 Z       0.000000   -0.000000   -0.000000
 

 MP2 RHF      natural orbital occupation numbers


              1      
    1    2.0000
    2    2.0000
    3    2.0000
    4    2.0000
    5    1.9863
    6    1.9821
    7    1.9794
    8    1.9685
    9    1.9676
   10    1.9672
   11    1.9665
   12    1.9644
   13    1.9628
   14    1.9571
   15    1.9565
   16    1.9326
   17    0.0509
   18    0.0295
   19    0.0260
   20    0.0221
   21    0.0214
   22    0.0190
   23    0.0170
   24    0.0159
   25    0.0157
   26    0.0150
   27    0.0134
   28    0.0126
   29    0.0110
   30    0.0103
   31    0.0091
   32    0.0091
   33    0.0088
   34    0.0078
   35    0.0075
   36    0.0068
   37    0.0061
   38    0.0060
   39    0.0059
   40    0.0053
   41    0.0052
   42    0.0047
   43    0.0044
   44    0.0032
   45    0.0025
   46    0.0023
   47    0.0020
   48    0.0019
   49    0.0015
   50    0.0015
   51    0.0015
   52    0.0014
   53    0.0013
   54    0.0013
   55    0.0013
   56    0.0012
   57    0.0012
   58    0.0012
   59    0.0010
   60    0.0009
   61    0.0008
   62    0.0008
   63    0.0007
   64    0.0007
   65    0.0007
   66    0.0007
   67    0.0006
   68    0.0006
   69    0.0006
   70    0.0006
   71    0.0005
   72    0.0005
   73    0.0005
   74    0.0004
   75    0.0004
   76    0.0004
   77    0.0004
   78    0.0003
   79    0.0003
   80    0.0003
   81    0.0003
   82    0.0003
   83    0.0003
   84    0.0002
   85    0.0002
   86    0.0002
   87    0.0002
   88    0.0002
   89    0.0002
   90    0.0002
   91    0.0001
   92    0.0001
   93    0.0001
   94    0.0001
   95    0.0001
   96    0.0001
   97    0.0001
   98    0.0001
   99    0.0001
  100    0.0001
  101    0.0001
  102    0.0001
  103    0.0001
  104    0.0001
  105    0.0001
  106    0.0001
  107    0.0001
  108    0.0000
  109    0.0000
  110    0.0000
  111    0.0000
  112    0.0000
  113    0.0000
  114    0.0000
  115    0.0000
  116    0.0000
  117    0.0000
  118    0.0000
  119    0.0000
  120    0.0000
  121    0.0000
  122    0.0000
  123    0.0000
  124    0.0000
  125    0.0000
  126    0.0000
  127    0.0000
  128    0.0000
  129    0.0000
  130    0.0000
  131    0.0000
  132    0.0000
  133    0.0000
  134    0.0000
  135    0.0000
  136    0.0000
  137    0.0000
  138    0.0000
  139   -0.0000
  140   -0.0000
  141   -0.0000
  142   -0.0000
  143   -0.0000
  144   -0.0000
  145   -0.0001
  146   -0.0003
 
  MP2 natural orbitals output to ./2R2.mp2nos
 

int_init: setting std/high accuracies to  1.0D-16  1.0D-32
  Using symmetry

int_init: setting std/high accuracies to  1.0D-16  1.0D-32


                         mp2 ENERGY GRADIENTS

    atom               coordinates                        gradient
                 x          y          z           x          y          z
   1 O      -2.480878  -0.522368   0.000000    0.039622   0.030705   0.000000
   2 C      -0.089776   0.245741   0.000000   -0.046868  -0.022850   0.000000
   3 C       0.649994   2.712916   0.000000    0.028771   0.009773   0.000000
   4 H      -2.401927  -2.399096   0.000000    0.009249  -0.024541   0.000000
   5 C       1.744212  -1.878286   0.000000   -0.015565   0.001596   0.000000
   6 H       2.632408   3.181865   0.000000   -0.005966  -0.002981   0.000000
   7 H      -0.836589   4.163160   0.000000   -0.007335  -0.000872   0.000000
   8 H       3.687318  -1.139823   0.000000   -0.000324   0.003723   0.000000
   9 H       1.469615  -3.054695  -1.691640   -0.000792   0.002723   0.001896
  10 H       1.469615  -3.054695   1.691640   -0.000792   0.002723  -0.001896
 
                 ----------------------------------------
                 |  Time  |  1-e(secs)   |  2-e(secs)   |
                 ----------------------------------------
                 |  CPU   |       0.00   |       4.46   |
                 ----------------------------------------
                 |  WALL  |       0.00   |       4.47   |
                 ----------------------------------------
 -----------------------
 Performance information
 -----------------------

 Timer overhead =  2.00D-07 seconds/call

               Nr. of calls         CPU time (s)                 Wall time (s)                GFlops
             ---------------    -------------------     ------------------------------   -------------------
Name         Min   Avg   Max    Min     Avg     Max     Min     Avg     Max   Mx/calls   Min     Max     Sum
mp2: moin     1     1     1    2.8     2.8     2.9      3.0     3.0     3.0     3.0      0.0     0.0     0.0   
mp2: make     1     1     1   9.50E-2 0.10    0.10     0.10    0.10    0.10    0.10      0.0     0.0     0.0   
mp2: pija     1     1     1   1.10E-2 1.23E-2 1.30E-2  1.29E-2 1.29E-2 1.30E-2 1.30E-2   0.0     0.0     0.0   
mp2: wija     1     1     1   1.20E-2 1.35E-2 1.40E-2  1.37E-2 1.38E-2 1.38E-2 1.38E-2   0.0     0.0     0.0   
mp2: lai      1     1     1   0.36    0.36    0.36     0.36    0.36    0.36    0.36      0.0     0.0     0.0   
mp2: back     1     1     1   0.19    0.20    0.20     0.20    0.20    0.20    0.20      0.0     0.0     0.0   
mp2: nons     1     1     1    6.0     6.3     6.8      6.0     6.3     6.8     6.8      0.0     0.0     0.0   
mp2: laif     1     1     1   0.98    0.98    0.98     0.99    0.99    0.99    0.99      0.0     0.0     0.0   
mp2: cphf     1     1     1    9.2     9.3     9.4      9.4     9.4     9.4     9.4      0.0     0.0     0.0   
mp2: wijf     1     1     1   0.95    0.98    0.99     0.99    0.99    0.99    0.99      0.0     0.0     0.0   
mp2: sep      1     1     1    4.5     4.5     4.5      4.5     4.5     4.5     4.5      0.0     0.0     0.0   
mp2: tota     1     1     1    26.     26.     26.      27.     27.     27.     27.      0.0     0.0     0.0   

 The average no. of pstat calls per process was 1.20D+01
 with a timing overhead of 2.40D-06s


@ Step       Energy      Delta E   Gmax     Grms     Xrms     Xmax   Walltime
@ ---- ---------------- -------- -------- -------- -------- -------- --------
@    0    -192.58767789  0.0D+00  0.04841  0.01311  0.00000  0.00000     45.3
                                                                    



                                Z-matrix (user)
                                -------- 

 Units are Angstrom for bonds and degrees for angles

  Constants are marked with an asterisk (*).

  Constrained variables are marked with a plus sign (+).

 
      Type          Name      I     J     K     L     M      Value     Gradient
      ----------- --------  ----- ----- ----- ----- ----- ---------- ----------
    1 Stretch      R1          2     1                       1.32900   -0.04841
    2 Stretch      R2          3     2                       1.36300    0.01011
    3 Bend         A1          3     2     1               124.50000    0.02023
    4 Stretch      R5          4     1                       0.99400    0.02491
    5 Bend         A4          4     1     2               105.40000   -0.00816
    6*Torsion      D180        4     1     2     3         180.00000   -0.00000
    7 Stretch      R6          5     2                       1.48500   -0.01957
    8 Bend         A5          5     2     3               122.50000    0.00701
    9*Torsion      D180        5     2     3     4         180.00000    0.00000
   10 Stretch      R7          6     3                       1.07800   -0.00649
   11 Bend         A6          6     3     2               120.00000   -0.00165
   12*Torsion      D180        6     3     2     1         180.00000    0.00000
   13 Stretch      R8          7     3                       1.09900    0.00464
   14 Bend         A7          7     3     2               117.60000   -0.00632
   15*Torsion      D0          7     3     2     1           0.00000    0.00000
   16 Stretch      R9          8     5                       1.10000    0.00102
   17 Bend         A8          8     5     2               110.00000   -0.00396
   18 Torsion      D1          8     5     2     1         180.00000   -0.00000
   19 Stretch      R10         9     5                       1.10000   -0.00298
   20 Bend         A9          9     5     2               110.00000   -0.00183
   21 Torsion      D2          9     5     2     1          60.00000    0.00008
   22 Stretch      R11        10     5                       1.10000   -0.00298
   23 Bend         A10        10     5     2               110.00000   -0.00183
   24 Torsion      D3         10     5     2     1         -60.00000   -0.00008
 
 Restricting large step in mode    3 eval= 6.6D-02 step=-3.1D-01 new=-3.0D-01
 Restricting overall step due to large component. alpha=  1.00
                                 NWChem SCF Module
                                 -----------------
 
 
                                   Me,H,Me Ref 2
 
 

  ao basis        = "ao basis"
  functions       =   146
  atoms           =    10
  closed shells   =    16
  open shells     =     0
  charge          =   0.00
  wavefunction    = RHF 
  input vectors   = ./2R2.movecs
  output vectors  = ./2R2.movecs
  use symmetry    = T
  symmetry adapt  = T


 Summary of "ao basis" -> "ao basis" (spherical)
 ------------------------------------------------------------------------------
       Tag                 Description            Shells   Functions and Types
 ---------------- ------------------------------  ------  ---------------------
 O                        aug-cc-pVDZ                9       23   4s3p2d
 C                        aug-cc-pVDZ                9       23   4s3p2d
 H                        aug-cc-pVDZ                5        9   3s2p


      Symmetry analysis of basis
      --------------------------
 
        a'        101
        a"         45
 

int_init: setting std/high accuracies to  1.0D-16  1.0D-32

 Forming initial guess at      45.4s


 Forcing the number of linearly dependent vectors to be  0

 Loading old vectors from job with title :

Me,H,Me Ref 2

 
      Symmetry analysis of molecular orbitals - initial
      -------------------------------------------------
 
  Numbering of irreducible representations: 
 
     1 a'          2 a"      
 
  Orbital symmetries:
 
     1 a'          2 a'          3 a'          4 a'          5 a'      
     6 a'          7 a'          8 a'          9 a'         10 a'      
    11 a"         12 a'         13 a"         14 a'         15 a'      
    16 a"         17 a'         18 a'         19 a'         20 a"      
    21 a'         22 a'         23 a'         24 a"         25 a'      
    26 a"      
 

 Starting SCF solution at      45.4s



 ----------------------------------------------
         Quadratically convergent ROHF

 Convergence threshold     :          1.000E-09
 Maximum no. of iterations :           99
 Final Fock-matrix accuracy:          1.000E-15
 ----------------------------------------------

 Warning: symmetry breaking in RHF:   1.458096664241904E-011

              iter       energy          gnorm     gmax       time
             ----- ------------------- --------- --------- --------
                 1     -191.9326728995  5.73D-01  1.08D-01     45.2
 Warning: symmetry breaking in RHF:   1.496682741273715E-011
 Warning: symmetry breaking in RHF:   1.526634902052238E-011
                 2     -191.9553176245  1.08D-01  1.45D-02     46.7
 Warning: symmetry breaking in RHF:   1.512487037646548E-011
                 3     -191.9561431601  3.22D-03  6.03D-04     49.4
 Warning: symmetry breaking in RHF:   1.514634562583646E-011
                 4     -191.9561446566  3.82D-06  4.93D-07     54.2
 Warning: symmetry breaking in RHF:   1.587424140801757E-011
                 5     -191.9561446566  1.68D-10  2.25D-11     61.7


       Final RHF  results 
       ------------------ 

         Total SCF energy =   -191.956144656555
      One-electron energy =   -495.995074602460
      Two-electron energy =    185.051109390433
 Nuclear repulsion energy =    118.987820555472

        Time for solution =     17.2s


 
       Symmetry analysis of molecular orbitals - final
       -----------------------------------------------
 
  Numbering of irreducible representations: 
 
     1 a'          2 a"      
 
  Orbital symmetries:
 
     1 a'          2 a'          3 a'          4 a'          5 a'      
     6 a'          7 a'          8 a'          9 a'         10 a'      
    11 a"         12 a'         13 a"         14 a'         15 a'      
    16 a"         17 a'         18 a'         19 a'         20 a"      
    21 a'         22 a'         23 a'         24 a"         25 a'      
    26 a"      
 
             Final eigenvalues
             -----------------

              1      
    1  -20.5989
    2  -11.3084
    3  -11.2520
    4  -11.2101
    5   -1.3990
    6   -1.0546
    7   -0.9431
    8   -0.7774
    9   -0.6897
   10   -0.6294
   11   -0.6031
   12   -0.5621
   13   -0.5427
   14   -0.5409
   15   -0.5060
   16   -0.3290
   17    0.0310
   18    0.0474
   19    0.0519
   20    0.0556
   21    0.0675
   22    0.0780
   23    0.1109
   24    0.1188
   25    0.1362
   26    0.1424
 
                       ROHF Final Molecular Orbital Analysis
                       -------------------------------------
 
 Vector    5  Occ=2.000000D+00  E=-1.399046D+00  Symmetry=a'
              MO Center= -1.2D+00, -2.6D-01,  7.0D-19, r^2= 5.9D-01
   Bfn.  Coefficient  Atom+Function         Bfn.  Coefficient  Atom+Function  
  ----- ------------  ---------------      ----- ------------  ---------------
     3      0.488569   1 O  s                 2      0.417781   1 O  s         
    70      0.201248   4 H  s                27     -0.189170   2 C  s         
    82      0.150920   5 C  s         
 
 Vector    6  Occ=2.000000D+00  E=-1.054604D+00  Symmetry=a'
              MO Center=  3.6D-01, -3.1D-02,  6.8D-15, r^2= 1.9D+00
   Bfn.  Coefficient  Atom+Function         Bfn.  Coefficient  Atom+Function  
  ----- ------------  ---------------      ----- ------------  ---------------
    25      0.257266   2 C  s                80      0.237481   5 C  s         
    48      0.205336   3 C  s                49      0.188580   3 C  s         
    26      0.184302   2 C  s         
 
 Vector    7  Occ=2.000000D+00  E=-9.430535D-01  Symmetry=a'
              MO Center=  5.3D-01, -1.1D-01,  6.9D-18, r^2= 2.6D+00
   Bfn.  Coefficient  Atom+Function         Bfn.  Coefficient  Atom+Function  
  ----- ------------  ---------------      ----- ------------  ---------------
    80      0.277768   5 C  s                48     -0.242162   3 C  s         
    29     -0.208560   2 C  py               49     -0.190244   3 C  s         
 
 Vector    8  Occ=2.000000D+00  E=-7.773836D-01  Symmetry=a'
              MO Center= -4.7D-01,  3.1D-01,  1.4D-19, r^2= 2.8D+00
   Bfn.  Coefficient  Atom+Function         Bfn.  Coefficient  Atom+Function  
  ----- ------------  ---------------      ----- ------------  ---------------
    50      0.392124   3 C  s                26      0.370114   2 C  s         
     5      0.294763   1 O  px               70     -0.257838   4 H  s         
     6      0.230448   1 O  py               49     -0.218748   3 C  s         
    27     -0.216404   2 C  s                35     -0.200938   2 C  py        
   102     -0.189481   6 H  s                25      0.182534   2 C  s         
 
 Vector    9  Occ=2.000000D+00  E=-6.897096D-01  Symmetry=a'
              MO Center= -1.4D-01, -2.7D-01, -1.8D-18, r^2= 2.8D+00
   Bfn.  Coefficient  Atom+Function         Bfn.  Coefficient  Atom+Function  
  ----- ------------  ---------------      ----- ------------  ---------------
     6      0.326111   1 O  py               70     -0.221149   4 H  s         
     3      0.184435   1 O  s                83      0.182902   5 C  px        
     9      0.178917   1 O  py               84     -0.177702   5 C  py        
    28     -0.176285   2 C  px               25     -0.159645   2 C  s         
 
 Vector   10  Occ=2.000000D+00  E=-6.294164D-01  Symmetry=a'
              MO Center= -5.8D-02,  3.3D-01,  3.3D-13, r^2= 3.1D+00
   Bfn.  Coefficient  Atom+Function         Bfn.  Coefficient  Atom+Function  
[...]
          13     0.00000     0.00000     0.08136     0.09063    -0.00000     0.00000
          14    -0.00000     0.00000     0.08584    -0.06731    -0.00000    -0.00000
          15     0.01519    -0.01215     0.00000     0.00000     0.01464    -0.00544
          16     0.00000     0.00000     0.12541    -0.16559     0.00000     0.00000
          17     0.00000    -0.00000    -0.27452     0.19629    -0.00000     0.00000
          18     0.09048    -0.06793     0.00000     0.00000    -0.07514     0.82137
          19     0.00000     0.00000     0.21784    -0.28142     0.00000     0.00000
          20     0.00000     0.00000     0.05960    -0.22816     0.00000     0.00000
          21     0.06144     0.10652    -0.00000    -0.00000     0.36641    -0.42101
          22     0.00000     0.00000    -0.01211     0.06036    -0.00000     0.00000
          23    -0.00000     0.00000     0.34084     0.02007     0.00000    -0.00000
          24    -0.47721    -0.24652     0.00000    -0.00000     0.22475    -0.05470
          25    -0.29793    -0.17806     0.24891     0.14547     0.21805    -0.01055
          26    -0.31057    -0.11520     0.05263    -0.07668    -0.18512     0.01195
          27     0.27977     0.10025    -0.00158    -0.00048     0.11492    -0.01297
          28     0.29793     0.17806     0.24891     0.14547    -0.21805     0.01055
          29     0.31057     0.11520     0.05263    -0.07668     0.18512    -0.01195
          30     0.27977     0.10025     0.00158     0.00048     0.11492    -0.01297

                   13          14          15          16          17          18
 
 P.Frequency      830.47      856.05      965.80     1014.57     1053.90     1233.53
 
           1    -0.00000    -0.12210    -0.08474     0.06281    -0.00000     0.01111
           2     0.00000    -0.03484    -0.03892     0.01071    -0.00000    -0.05265
           3     0.01018    -0.00000     0.00000    -0.00000    -0.00690    -0.00000
           4     0.00000     0.00139     0.03810    -0.04494     0.00000     0.09334
           5     0.00000     0.05701     0.00860     0.01277    -0.00000    -0.05229
           6    -0.05164     0.00000    -0.00000     0.00000     0.10913     0.00000
           7    -0.00000     0.00818     0.13439    -0.01932     0.00000    -0.00029
           8     0.00000     0.12470     0.01056     0.05774    -0.00000     0.06623
           9     0.14148     0.00000     0.00000    -0.00000    -0.01095    -0.00000
          10     0.00000    -0.00500     0.08900     0.15435    -0.00000    -0.78854
          11    -0.00000    -0.04732    -0.05474     0.00931     0.00000     0.00778
          12     0.00337    -0.00000    -0.00000    -0.00000    -0.00344    -0.00000
          13    -0.00000     0.11316    -0.04689    -0.07681     0.00000    -0.03570
          14     0.00000    -0.11514     0.00544    -0.11316     0.00000     0.00543
          15    -0.00577     0.00000     0.00000    -0.00000    -0.13148     0.00000
          16     0.00000     0.04069    -0.02424     0.00426     0.00000     0.00510
          17    -0.00000     0.03894     0.55932    -0.01479     0.00000     0.08771
          18    -0.42365    -0.00000    -0.00000     0.00000     0.08555     0.00000
          19    -0.00000     0.11970    -0.25958     0.07138    -0.00000     0.11915
          20    -0.00000     0.24357    -0.37746     0.15351    -0.00000     0.19148
          21    -0.73502     0.00000     0.00000    -0.00000    -0.14192    -0.00000
          22     0.00000     0.16223    -0.11045    -0.27573     0.00000    -0.10590
          23    -0.00000    -0.23157     0.18482     0.44918    -0.00000     0.19200
          24    -0.00944     0.00000    -0.00000    -0.00000     0.26845     0.00000
          25     0.00474     0.07943     0.07730     0.36425     0.25561    -0.04445
          26    -0.01088    -0.12168     0.00642    -0.12964    -0.42897     0.06305
          27     0.00112     0.00734    -0.01704    -0.05199     0.14867    -0.03022
          28    -0.00474     0.07943     0.07730     0.36425    -0.25561    -0.04445
          29     0.01088    -0.12168     0.00642    -0.12964     0.42897     0.06305
          30     0.00112    -0.00734     0.01704     0.05199     0.14867     0.03022

                   19          20          21          22          23          24
 
 P.Frequency     1322.04     1394.00     1434.22     1467.79     1479.38     1737.18
 
           1     0.08664    -0.01948    -0.01521     0.00000     0.00602     0.00183
           2    -0.01073    -0.01275     0.01767    -0.00000     0.00217     0.02309
           3    -0.00000     0.00000     0.00000     0.00286    -0.00000     0.00000
           4    -0.19030     0.07883     0.03306    -0.00000    -0.02127    -0.04059
           5     0.01440     0.02365    -0.08359    -0.00000    -0.00267    -0.21164
           6     0.00000    -0.00000    -0.00000    -0.02171     0.00000    -0.00000
           7     0.06009    -0.01078    -0.02820    -0.00000    -0.00248     0.03288
           8     0.01226     0.01533    -0.04524     0.00000    -0.03311     0.15463
           9     0.00000    -0.00000     0.00000     0.00070    -0.00000    -0.00000
          10    -0.36242    -0.10392     0.21297     0.00000    -0.02528     0.19723
          11     0.03069    -0.00686    -0.00309    -0.00000     0.00321     0.00139
          12     0.00000     0.00000     0.00000    -0.01530     0.00000    -0.00000
          13     0.02865    -0.09800    -0.03343     0.00000    -0.03852    -0.00805
          14     0.01574     0.08206     0.06705    -0.00000    -0.02902     0.03240
          15     0.00000     0.00000    -0.00000    -0.04878     0.00000    -0.00000
          16    -0.01975     0.07272    -0.17172    -0.00000    -0.06261     0.13834
          17     0.28198    -0.29116     0.49462    -0.00000     0.17324    -0.11213
          18    -0.00000     0.00000    -0.00000     0.01053    -0.00000    -0.00000
          19    -0.04398    -0.14762     0.41880    -0.00000     0.11620    -0.16940
          20    -0.07836    -0.13365     0.41532     0.00000     0.08953    -0.00973
          21    -0.00000     0.00000     0.00000     0.00388    -0.00000     0.00000
          22     0.12389     0.09140     0.02570    -0.00000     0.10567     0.02989
          23    -0.23955    -0.39825    -0.10802     0.00000    -0.37599    -0.08949
          24     0.00000     0.00000    -0.00000     0.68855     0.00000    -0.00000
          25     0.06823     0.37658     0.04787    -0.48932     0.25599    -0.01878
          26    -0.16460    -0.20447    -0.17178    -0.00303     0.42353     0.06829
          27     0.10866     0.12147     0.14730     0.04900    -0.35132    -0.02854
          28     0.06823     0.37658     0.04787     0.48932     0.25599    -0.01878
          29    -0.16460    -0.20447    -0.17178     0.00303     0.42353     0.06829
          30    -0.10866    -0.12147    -0.14730     0.04900     0.35132     0.02854

                   25          26          27          28          29          30
 
 P.Frequency     3050.98     3127.39     3181.61     3207.75     3320.18     3827.51
 
           1    -0.00020    -0.00000     0.00056     0.00042     0.00063     0.00644
           2     0.00008    -0.00000     0.00038    -0.00010     0.00026     0.06039
           3     0.00000     0.00022    -0.00000     0.00000     0.00000    -0.00000
           4     0.00218     0.00000    -0.00110     0.00207    -0.00197    -0.00154
           5    -0.00027     0.00000    -0.00286     0.00909     0.00098     0.00182
           6    -0.00000    -0.00095     0.00000     0.00000    -0.00000     0.00000
           7    -0.00019     0.00000     0.00221    -0.00984    -0.09298    -0.00032
           8    -0.00026    -0.00000     0.00300    -0.06563     0.01885    -0.00066
           9     0.00000    -0.00009    -0.00000    -0.00000     0.00000    -0.00000
          10    -0.00406    -0.00000     0.00400    -0.00231     0.00078    -0.07618
          11    -0.00367    -0.00000    -0.00089    -0.00046     0.00101    -0.96321
          12    -0.00000    -0.00353     0.00000     0.00000     0.00000    -0.00000
          13    -0.01715    -0.00000    -0.07291    -0.00358    -0.00098    -0.00024
          14     0.04848     0.00000    -0.04742    -0.00195    -0.00097    -0.00066
          15     0.00000    -0.08755     0.00000     0.00000     0.00000    -0.00000
          16    -0.00508     0.00000    -0.03833     0.61279     0.68296    -0.00038
          17    -0.00158    -0.00000    -0.01002     0.16735     0.20020    -0.00030
          18    -0.00000    -0.00046     0.00000    -0.00000    -0.00000     0.00000
          19     0.00336    -0.00000     0.01708    -0.52328     0.43204     0.00040
          20    -0.00168    -0.00000    -0.01472     0.50928    -0.43766    -0.00144
          21     0.00000     0.00052     0.00000    -0.00000     0.00000    -0.00000
          22     0.35602     0.00000     0.82243     0.03857     0.01453    -0.00355
          23     0.14335    -0.00000     0.30596     0.01535     0.00411     0.00138
          24    -0.00000    -0.02020     0.00000     0.00000    -0.00000     0.00000
          25    -0.08330     0.08947     0.02042     0.00134     0.00099     0.00129
          26    -0.35425     0.39149     0.13825     0.00323     0.00184    -0.00046
          27    -0.52367     0.53758     0.21300     0.00697     0.00231     0.00246
          28    -0.08330    -0.08947     0.02042     0.00134     0.00099     0.00129
          29    -0.35425    -0.39149     0.13825     0.00323     0.00184    -0.00046
          30     0.52367     0.53758    -0.21300    -0.00697    -0.00231    -0.00246



 ----------------------------------------------------------------------------
 Normal Eigenvalue ||    Projected Derivative Dipole Moments (debye/angs)
  Mode   [cm**-1]  ||      [d/dqX]             [d/dqY]           [d/dqZ]
 ------ ---------- || ------------------ ------------------ -----------------
    1       -0.000 ||       0.125               0.065             0.001
    2       -0.000 ||       0.133               0.069             0.002
    3       -0.000 ||      -0.001              -0.001            -0.157
    4       -0.000 ||      -0.000              -0.000            -0.031
    5        0.000 ||      -0.043              -0.022             0.001
    6        0.000 ||      -0.002              -0.001             0.239
    7      207.710 ||       0.000              -0.000            -0.555
    8      236.686 ||      -0.000               0.000             1.286
    9      406.112 ||      -0.147               0.027            -0.000
   10      459.294 ||      -0.168              -0.235             0.000
   11      483.553 ||      -0.000              -0.000             0.442
   12      736.473 ||       0.000               0.000             0.544
   13      830.470 ||       0.000               0.000            -1.169
   14      856.051 ||       0.633               0.388            -0.000
   15      965.805 ||       0.782               0.494             0.000
   16     1014.575 ||      -0.284              -0.105            -0.000
   17     1053.901 ||       0.000               0.000            -0.067
   18     1233.526 ||      -0.852              -0.045            -0.000
   19     1322.043 ||      -1.866              -0.786            -0.000
   20     1394.004 ||       0.623               0.103             0.000
   21     1434.216 ||       0.680               0.125            -0.000
   22     1467.790 ||      -0.000              -0.000             0.406
   23     1479.379 ||       0.240               0.202             0.000
   24     1737.182 ||      -0.368              -1.288            -0.000
   25     3050.975 ||      -0.095               0.714            -0.000
   26     3127.395 ||       0.000               0.000            -0.542
   27     3181.606 ||      -0.417              -0.260             0.000
   28     3207.754 ||      -0.002              -0.026             0.000
   29     3320.179 ||      -0.284               0.083             0.000
   30     3827.509 ||      -0.515              -1.107            -0.000
 ----------------------------------------------------------------------------



  
  
 ----------------------------------------------------------------------------
 Normal Eigenvalue ||           Projected Infra Red Intensities
  Mode   [cm**-1]  || [atomic units] [(debye/angs)**2] [(KM/mol)] [arbitrary]
 ------ ---------- || -------------- ----------------- ---------- -----------
    1       -0.000 ||    0.000853           0.020         0.831       0.370
    2       -0.000 ||    0.000974           0.022         0.949       0.422
    3       -0.000 ||    0.001064           0.025         1.037       0.462
    4       -0.000 ||    0.000041           0.001         0.040       0.018
    5        0.000 ||    0.000103           0.002         0.100       0.045
    6        0.000 ||    0.002470           0.057         2.408       1.072
    7      207.710 ||    0.013365           0.308        13.029       5.800
    8      236.686 ||    0.071687           1.654        69.884      31.108
    9      406.112 ||    0.000969           0.022         0.945       0.421
   10      459.294 ||    0.003633           0.084         3.542       1.577
   11      483.553 ||    0.008480           0.196         8.267       3.680
   12      736.473 ||    0.012814           0.296        12.491       5.560
   13      830.470 ||    0.059211           1.366        57.722      25.695
   14      856.051 ||    0.023893           0.551        23.292      10.368
   15      965.805 ||    0.037073           0.855        36.141      16.088
   16     1014.575 ||    0.003988           0.092         3.887       1.730
   17     1053.901 ||    0.000193           0.004         0.188       0.084
   18     1233.526 ||    0.031547           0.728        30.754      13.690
   19     1322.043 ||    0.177784           4.102       173.312      77.149
   20     1394.004 ||    0.017270           0.398        16.836       7.494
   21     1434.216 ||    0.020722           0.478        20.201       8.992
   22     1467.790 ||    0.007141           0.165         6.961       3.099
   23     1479.379 ||    0.004271           0.099         4.163       1.853
   24     1737.182 ||    0.077752           1.794        75.797      33.741
   25     3050.975 ||    0.022471           0.518        21.906       9.751
   26     3127.395 ||    0.012732           0.294        12.412       5.525
   27     3181.606 ||    0.010451           0.241        10.188       4.535
   28     3207.754 ||    0.000029           0.001         0.028       0.013
   29     3320.179 ||    0.003798           0.088         3.703       1.648
   30     3827.509 ||    0.064549           1.489        62.925      28.011
 ----------------------------------------------------------------------------



 vib:animation  F

 Task  times  cpu:     2307.9s     wall:     2334.3s
 
 
                                NWChem Input Module
                                -------------------
 
 
 Summary of allocated global arrays
-----------------------------------
  No active global arrays



                         GA Statistics for process    0
                         ------------------------------

       create   destroy   get      put      acc     scatter   gather  read&inc
calls: 5.24e+04 5.24e+04 4.51e+06 7.48e+05 1.72e+06    0        0     7.64e+04 
number of processes/call 1.71e+01 4.63e+01 1.90e+01 0.00e+00 0.00e+00
bytes total:             4.45e+09 5.04e+09 1.24e+09 0.00e+00 0.00e+00 6.11e+05
bytes remote:            2.81e+09 3.45e+09 9.84e+08 0.00e+00 0.00e+00 0.00e+00
Max memory consumed for GA by this process: 48830120 bytes
 
MA_summarize_allocated_blocks: starting scan ...
MA_summarize_allocated_blocks: scan completed: 0 heap blocks, 0 stack blocks
MA usage statistics:

	allocation statistics:
					      heap	     stack
					      ----	     -----
	current number of blocks	         0	         0
	maximum number of blocks	        25	        39
	current total bytes		         0	         0
	maximum total bytes		  44503848	  27113160
	maximum total K-bytes		     44504	     27114
	maximum total M-bytes		        45	        28
 
 
                                     CITATION
                                     --------
                Please cite the following reference when publishing
                           results obtained with NWChem:
 
          E. Apr, E. J. Bylaska, W. A. de Jong, N. Govind, K. Kowalski,
       T. P. Straatsma, M. Valiev, H. J. J. van Dam, Y. Alexeev, J. Anchell,
       V. Anisimov, F. W. Aquino, R. Atta-Fynn, J. Autschbach, N. P. Bauman,
     J. C. Becca, D. E. Bernholdt, K. Bhaskaran-Nair, S. Bogatko, P. Borowski,
        J. Boschen, J. Brabec, A. Bruner, E. Caut, Y. Chen, G. N. Chuev,
      C. J. Cramer, J. Daily, M. J. O. Deegan, T. H. Dunning Jr., M. Dupuis,
   K. G. Dyall, G. I. Fann, S. A. Fischer, A. Fonari, H. Frchtl, L. Gagliardi,
      J. Garza, N. Gawande, S. Ghosh, K. Glaesemann, A. W. Gtz, J. Hammond,
       V. Helms, E. D. Hermes, K. Hirao, S. Hirata, M. Jacquelin, L. Jensen,
   B. G. Johnson, H. Jnsson, R. A. Kendall, M. Klemm, R. Kobayashi, V. Konkov,
      S. Krishnamoorthy, M. Krishnan, Z. Lin, R. D. Lins, R. J. Littlefield,
      A. J. Logsdail, K. Lopata, W. Ma, A. V. Marenich, J. Martin del Campo,
   D. Mejia-Rodriguez, J. E. Moore, J. M. Mullin, T. Nakajima, D. R. Nascimento,
    J. A. Nichols, P. J. Nichols, J. Nieplocha, A. Otero-de-la-Roza, B. Palmer,
    A. Panyala, T. Pirojsirikul, B. Peng, R. Peverati, J. Pittner, L. Pollack,
   R. M. Richard, P. Sadayappan, G. C. Schatz, W. A. Shelton, D. W. Silverstein,
   D. M. A. Smith, T. A. Soares, D. Song, M. Swart, H. L. Taylor, G. S. Thomas,
            V. Tipparaju, D. G. Truhlar, K. Tsemekhman, T. Van Voorhis,
     . Vzquez-Mayagoitia, P. Verma, O. Villa, A. Vishnu, K. D. Vogiatzis,
        D. Wang, J. H. Weare, M. J. Williamson, T. L. Windus, K. Woliski,
        A. T. Wong, Q. Wu, C. Yang, Q. Yu, M. Zacharias, Z. Zhang, Y. Zhao,
                                and R. J. Harrison
                        "NWChem: Past, present, and future
                         J. Chem. Phys. 152, 184102 (2020)
                               doi:10.1063/5.0004997
 
                                      AUTHORS
                                      -------
     E. Apra, E. J. Bylaska, N. Govind, K. Kowalski, M. Valiev, W. A. de Jong,
      T. P. Straatsma, H. J. J. van Dam, D. Wang, T. L. Windus, N. P. Bauman,
       A. Panyala, J. Hammond, J. Autschbach, K. Bhaskaran-Nair, J. Brabec,
    K. Lopata, S. A. Fischer, S. Krishnamoorthy, M. Jacquelin, W. Ma, M. Klemm,
       O. Villa, Y. Chen, V. Anisimov, F. Aquino, S. Hirata, M. T. Hackler,
           Eric Hermes, L. Jensen, J. E. Moore, J. C. Becca, V. Konjkov,
            D. Mejia-Rodriguez, T. Risthaus, M. Malagoli, A. Marenich,
   A. Otero-de-la-Roza, J. Mullin, P. Nichols, R. Peverati, J. Pittner, Y. Zhao,
        P.-D. Fan, A. Fonari, M. J. Williamson, R. J. Harrison, J. R. Rehr,
      M. Dupuis, D. Silverstein, D. M. A. Smith, J. Nieplocha, V. Tipparaju,
      M. Krishnan, B. E. Van Kuiken, A. Vazquez-Mayagoitia, M. Swart, Q. Wu,
   T. Van Voorhis, A. A. Auer, M. Nooijen, L. D. Crosby, E. Brown, G. Cisneros,
     G. I. Fann, H. Fruchtl, J. Garza, K. Hirao, R. A. Kendall, J. A. Nichols,
       K. Tsemekhman, K. Wolinski, J. Anchell, D. E. Bernholdt, P. Borowski,
       T. Clark, D. Clerc, H. Dachsel, M. J. O. Deegan, K. Dyall, D. Elwood,
      E. Glendening, M. Gutowski, A. C. Hess, J. Jaffe, B. G. Johnson, J. Ju,
        R. Kobayashi, R. Kutteh, Z. Lin, R. Littlefield, X. Long, B. Meng,
      T. Nakajima, S. Niu, L. Pollack, M. Rosing, K. Glaesemann, G. Sandrone,
      M. Stave, H. Taylor, G. Thomas, J. H. van Lenthe, A. T. Wong, Z. Zhang.

 Total times  cpu:     2745.9s     wall:     2781.6s
