 Entering Gaussian System, Link 0=g16
 Input=6.gjf
 Output=6.log
 Initial command:
 /sw/contrib/gaussian/g16/A03/g16/l1.exe "/gscratch/scrubbed/gds001/Gau-12791.inp" -scrdir="/gscratch/scrubbed/gds001/"
 Entering Link 1 = /sw/contrib/gaussian/g16/A03/g16/l1.exe PID=     12794.
  
 Copyright (c) 1988,1990,1992,1993,1995,1998,2003,2009,2016,
            Gaussian, Inc.  All Rights Reserved.
  
 This is part of the Gaussian(R) 16 program.  It is based on
 the Gaussian(R) 09 system (copyright 2009, Gaussian, Inc.),
 the Gaussian(R) 03 system (copyright 2003, Gaussian, Inc.),
 the Gaussian(R) 98 system (copyright 1998, Gaussian, Inc.),
 the Gaussian(R) 94 system (copyright 1995, Gaussian, Inc.),
 the Gaussian 92(TM) system (copyright 1992, Gaussian, Inc.),
 the Gaussian 90(TM) system (copyright 1990, Gaussian, Inc.),
 the Gaussian 88(TM) system (copyright 1988, Gaussian, Inc.),
 the Gaussian 86(TM) system (copyright 1986, Carnegie Mellon
 University), and the Gaussian 82(TM) system (copyright 1983,
 Carnegie Mellon University). Gaussian is a federally registered
 trademark of Gaussian, Inc.
  
 This software contains proprietary and confidential information,
 including trade secrets, belonging to Gaussian, Inc.
  
 This software is provided under written license and may be
 used, copied, transmitted, or stored only in accord with that
 written license.
  
 The following legend is applicable only to US Government
 contracts under FAR:
  
                    RESTRICTED RIGHTS LEGEND
  
 Use, reproduction and disclosure by the US Government is
 subject to restrictions as set forth in subparagraphs (a)
 and (c) of the Commercial Computer Software - Restricted
 Rights clause in FAR 52.227-19.
  
 Gaussian, Inc.
 340 Quinnipiac St., Bldg. 40, Wallingford CT 06492
  
  
 ---------------------------------------------------------------
 Warning -- This program may not be used in any manner that
 competes with the business of Gaussian, Inc. or will provide
 assistance to any competitor of Gaussian, Inc.  The licensee
 of this program is prohibited from giving any competitor of
 Gaussian, Inc. access to this program.  By using this program,
 the user acknowledges that Gaussian, Inc. is engaged in the
 business of creating and licensing software in the field of
 computational chemistry and represents and warrants to the
 licensee that it is not a competitor of Gaussian, Inc. and that
 it will not use this program in any manner prohibited above.
 ---------------------------------------------------------------
  

 Cite this work as:
 Gaussian 16, Revision A.03,
 M. J. Frisch, G. W. Trucks, H. B. Schlegel, G. E. Scuseria, 
 M. A. Robb, J. R. Cheeseman, G. Scalmani, V. Barone, 
 G. A. Petersson, H. Nakatsuji, X. Li, M. Caricato, A. V. Marenich, 
 J. Bloino, B. G. Janesko, R. Gomperts, B. Mennucci, H. P. Hratchian, 
 J. V. Ortiz, A. F. Izmaylov, J. L. Sonnenberg, D. Williams-Young, 
 F. Ding, F. Lipparini, F. Egidi, J. Goings, B. Peng, A. Petrone, 
 T. Henderson, D. Ranasinghe, V. G. Zakrzewski, J. Gao, N. Rega, 
 G. Zheng, W. Liang, M. Hada, M. Ehara, K. Toyota, R. Fukuda, 
 J. Hasegawa, M. Ishida, T. Nakajima, Y. Honda, O. Kitao, H. Nakai, 
 T. Vreven, K. Throssell, J. A. Montgomery, Jr., J. E. Peralta, 
 F. Ogliaro, M. J. Bearpark, J. J. Heyd, E. N. Brothers, K. N. Kudin, 
 V. N. Staroverov, T. A. Keith, R. Kobayashi, J. Normand, 
 K. Raghavachari, A. P. Rendell, J. C. Burant, S. S. Iyengar, 
 J. Tomasi, M. Cossi, J. M. Millam, M. Klene, C. Adamo, R. Cammi, 
 J. W. Ochterski, R. L. Martin, K. Morokuma, O. Farkas, 
 J. B. Foresman, and D. J. Fox, Gaussian, Inc., Wallingford CT, 2016.
 
 ******************************************
 Gaussian 16:  ES64L-G16RevA.03 25-Dec-2016
                27-Oct-2020 
 ******************************************
 %nprocshared=28
 Will use up to   28 processors via shared memory.
 %mem=41GB
 %chk=6.chk
 -------------------------------------------------------
 # MP2/6-31G** Opt=(Recalc=50) Freq=(vibrot, anharmonic)
 -------------------------------------------------------
 1/10=4,18=20,19=15,38=1,71=50,80=1/1,3;
 2/9=110,12=2,17=6,18=5,40=1/2;
 3/5=1,6=6,7=101,11=9,25=1,30=1,71=2,140=1/1,2,3;
 4//1;
 5/5=2,38=5/2;
 8/6=3,8=1,10=2,19=11,30=-1/1;
 9/15=3,16=-3/6;
 11/6=1,8=1,15=11,17=12,24=-1,27=1,28=-2,29=300,32=6,42=3/1,2,10;
 10/6=2,21=1/2;
 8/6=4,8=1,10=2,19=11,30=-1/11,4;
 10/5=1,20=4/2;
 11/12=2,14=11,16=1,17=2,28=-2,42=3/2,10,12;
 6/7=2,8=2,9=2,10=2/1;
 7/10=1,12=2,25=1,44=2/1,2,3,16;
 1/10=4,18=20,19=15,71=50,80=1/3(3);
 2/9=110/2;
 7/9=1,25=1,44=-1/16;
 99//99;
 2/9=110/2;
 3/5=1,6=6,7=101,11=9,25=1,30=1,71=2,140=1/1,2,3;
 4/5=5,16=3,69=1/1;
 5/5=2,38=5/2;
 8/6=3,8=1,10=2,19=11,30=-1/1;
 9/15=3,16=-3/6;
 11/6=1,8=1,15=11,17=12,24=-1,27=1,28=-2,29=300,32=6,42=3/1,2,10;
 10/6=2,21=1/2;
 8/6=4,8=1,10=2,19=11,30=-1/11,4;
 10/5=1,20=4/2;
 11/12=2,14=11,16=1,17=2,28=-2,42=3/2,10,12;
 7/10=1,12=2,25=1,44=2/1,2,3,16;
 1/18=20,19=15,71=50,80=1/3(-12);
 2/9=110/2;
 6/7=2,8=2,9=2,10=2/1;
 7/9=1,25=1,44=-1/16;
 99//99;
 --------
 H,Me,FMe
 --------
 Symbolic Z-matrix:
 Charge =  0 Multiplicity = 1
 C                    -1.15655   2.3392   -0.07306 
 C                    -1.1218    0.99665  -0.01835 
 C                     0.19583   0.29608   0.20187 
 O                    -0.09214   3.19036   0.06181 
 O                     1.19353   0.97674   0.47566 
 H                    -2.06375   2.91255  -0.23257 
 C                    -2.37049   0.18113  -0.16089 
 C                     0.24207  -1.22472   0.0572 
 H                     0.71229   2.66053   0.26219 
 H                    -3.2564    0.81369  -0.28689 
 H                    -2.53691  -0.43116   0.73065 
 H                    -2.314    -0.47195  -1.03668 
 F                    -0.56053  -1.85361   0.96105 
 F                     1.48863  -1.74205   0.23069 
 F                    -0.17431  -1.63798  -1.17267 
 

 GradGradGradGradGradGradGradGradGradGradGradGradGradGradGradGradGradGrad
 Berny optimization.
 Initialization pass.
                           ----------------------------
                           !    Initial Parameters    !
                           ! (Angstroms and Degrees)  !
 --------------------------                            --------------------------
 ! Name  Definition              Value          Derivative Info.                !
 --------------------------------------------------------------------------------
 ! R1    R(1,2)                  1.3441         calculate D2E/DX2 analytically  !
 ! R2    R(1,4)                  1.3695         calculate D2E/DX2 analytically  !
 ! R3    R(1,6)                  1.085          calculate D2E/DX2 analytically  !
 ! R4    R(2,3)                  1.5085         calculate D2E/DX2 analytically  !
 ! R5    R(2,7)                  1.4982         calculate D2E/DX2 analytically  !
 ! R6    R(3,5)                  1.2384         calculate D2E/DX2 analytically  !
 ! R7    R(3,8)                  1.5284         calculate D2E/DX2 analytically  !
 ! R8    R(4,9)                  0.9839         calculate D2E/DX2 analytically  !
 ! R9    R(7,10)                 1.0958         calculate D2E/DX2 analytically  !
 ! R10   R(7,11)                 1.0943         calculate D2E/DX2 analytically  !
 ! R11   R(7,12)                 1.0939         calculate D2E/DX2 analytically  !
 ! R12   R(8,13)                 1.3626         calculate D2E/DX2 analytically  !
 ! R13   R(8,14)                 1.3608         calculate D2E/DX2 analytically  !
 ! R14   R(8,15)                 1.3626         calculate D2E/DX2 analytically  !
 ! A1    A(2,1,4)              126.6319         calculate D2E/DX2 analytically  !
 ! A2    A(2,1,6)              123.7401         calculate D2E/DX2 analytically  !
 ! A3    A(4,1,6)              109.6278         calculate D2E/DX2 analytically  !
 ! A4    A(1,2,3)              119.4991         calculate D2E/DX2 analytically  !
 ! A5    A(1,2,7)              121.2173         calculate D2E/DX2 analytically  !
 ! A6    A(3,2,7)              119.2817         calculate D2E/DX2 analytically  !
 ! A7    A(2,3,5)              118.733          calculate D2E/DX2 analytically  !
 ! A8    A(2,3,8)              118.3422         calculate D2E/DX2 analytically  !
 ! A9    A(5,3,8)              122.9192         calculate D2E/DX2 analytically  !
 ! A10   A(1,4,9)              108.7136         calculate D2E/DX2 analytically  !
 ! A11   A(2,7,10)             111.7478         calculate D2E/DX2 analytically  !
 ! A12   A(2,7,11)             110.7209         calculate D2E/DX2 analytically  !
 ! A13   A(2,7,12)             110.9833         calculate D2E/DX2 analytically  !
 ! A14   A(10,7,11)            107.0807         calculate D2E/DX2 analytically  !
 ! A15   A(10,7,12)            107.116          calculate D2E/DX2 analytically  !
 ! A16   A(11,7,12)            109.0303         calculate D2E/DX2 analytically  !
 ! A17   A(3,8,13)             112.25           calculate D2E/DX2 analytically  !
 ! A18   A(3,8,14)             113.1999         calculate D2E/DX2 analytically  !
 ! A19   A(3,8,15)             112.2085         calculate D2E/DX2 analytically  !
 ! A20   A(13,8,14)            106.234          calculate D2E/DX2 analytically  !
 ! A21   A(13,8,15)            106.1849         calculate D2E/DX2 analytically  !
 ! A22   A(14,8,15)            106.2427         calculate D2E/DX2 analytically  !
 ! D1    D(4,1,2,3)             -0.4802         calculate D2E/DX2 analytically  !
 ! D2    D(4,1,2,7)            179.011          calculate D2E/DX2 analytically  !
 ! D3    D(6,1,2,3)            179.7159         calculate D2E/DX2 analytically  !
 ! D4    D(6,1,2,7)             -0.7928         calculate D2E/DX2 analytically  !
 ! D5    D(2,1,4,9)             -3.3642         calculate D2E/DX2 analytically  !
 ! D6    D(6,1,4,9)            176.4626         calculate D2E/DX2 analytically  !
 ! D7    D(1,2,3,5)              7.9425         calculate D2E/DX2 analytically  !
 ! D8    D(1,2,3,8)           -171.2207         calculate D2E/DX2 analytically  !
 ! D9    D(7,2,3,5)           -171.5586         calculate D2E/DX2 analytically  !
 ! D10   D(7,2,3,8)              9.2781         calculate D2E/DX2 analytically  !
 ! D11   D(1,2,7,10)            -1.1231         calculate D2E/DX2 analytically  !
 ! D12   D(1,2,7,11)          -120.398          calculate D2E/DX2 analytically  !
 ! D13   D(1,2,7,12)           118.3728         calculate D2E/DX2 analytically  !
 ! D14   D(3,2,7,10)           178.3692         calculate D2E/DX2 analytically  !
 ! D15   D(3,2,7,11)            59.0943         calculate D2E/DX2 analytically  !
 ! D16   D(3,2,7,12)           -62.1349         calculate D2E/DX2 analytically  !
 ! D17   D(2,3,8,13)           -61.9482         calculate D2E/DX2 analytically  !
 ! D18   D(2,3,8,14)           177.7888         calculate D2E/DX2 analytically  !
 ! D19   D(2,3,8,15)            57.545          calculate D2E/DX2 analytically  !
 ! D20   D(5,3,8,13)           118.9258         calculate D2E/DX2 analytically  !
 ! D21   D(5,3,8,14)            -1.3371         calculate D2E/DX2 analytically  !
 ! D22   D(5,3,8,15)          -121.5809         calculate D2E/DX2 analytically  !
 --------------------------------------------------------------------------------
 Trust Radius=3.00D-01 FncErr=1.00D-07 GrdErr=1.00D-07 EigMax=2.50D+02 EigMin=1.00D-04
 Number of steps in this run=     68 maximum allowed number of steps=    100.
 GradGradGradGradGradGradGradGradGradGradGradGradGradGradGradGradGradGrad

                          Input orientation:                          
 ---------------------------------------------------------------------
 Center     Atomic      Atomic             Coordinates (Angstroms)
 Number     Number       Type             X           Y           Z
 ---------------------------------------------------------------------
      1          6           0       -1.156546    2.339200   -0.073061
      2          6           0       -1.121802    0.996653   -0.018348
      3          6           0        0.195834    0.296079    0.201872
      4          8           0       -0.092136    3.190358    0.061811
      5          8           0        1.193533    0.976735    0.475662
      6          1           0       -2.063749    2.912553   -0.232570
      7          6           0       -2.370486    0.181130   -0.160890
      8          6           0        0.242071   -1.224721    0.057195
      9          1           0        0.712295    2.660534    0.262192
     10          1           0       -3.256396    0.813690   -0.286886
     11          1           0       -2.536906   -0.431163    0.730649
     12          1           0       -2.313996   -0.471946   -1.036681
     13          9           0       -0.560532   -1.853612    0.961047
     14          9           0        1.488633   -1.742046    0.230685
     15          9           0       -0.174315   -1.637984   -1.172673
 ---------------------------------------------------------------------
                    Distance matrix (angstroms):
                    1          2          3          4          5
     1  C    0.000000
     2  C    1.344110   0.000000
     3  C    2.465534   1.508464   0.000000
     4  O    1.369536   2.424660   2.911940   0.000000
     5  O    2.771331   2.367534   1.238409   2.593133   0.000000
     6  H    1.084986   2.145653   3.484306   2.012733   3.854720
     7  C    2.477626   1.498202   2.594380   3.780995   3.706807
     8  C    3.830747   2.607750   1.528365   4.427712   2.434503
     9  H    1.925672   2.492210   2.420954   0.983857   1.764182
    10  H    2.604280   2.159185   3.524868   3.972742   4.517735
    11  H    3.197852   2.145268   2.876865   4.420369   3.995418
    12  H    3.189169   2.148282   2.902262   4.422196   4.085171
    13  F    4.359390   3.065657   2.402000   5.144866   3.364997
    14  F    4.872966   3.791683   2.413734   5.182273   2.745700
    15  F    4.241687   3.028450   2.401454   4.984334   3.380055
                    6          7          8          9         10
     6  H    0.000000
     7  C    2.749526   0.000000
     8  C    4.745293   2.974799   0.000000
     9  H    2.831029   3.978690   3.918971   0.000000
    10  H    2.414660   1.095831   4.063592   4.411669   0.000000
    11  H    3.511710   1.094276   2.967488   4.509473   1.761450
    12  H    3.487700   1.093942   2.880401   4.545101   1.761582
    13  F    5.138163   2.945310   1.362580   4.741940   3.992433
    14  F    5.873612   4.329519   1.360750   4.470616   5.414330
    15  F    5.016088   3.025896   1.362622   4.617593   4.036651
                   11         12         13         14         15
    11  H    0.000000
    12  H    1.781799   0.000000
    13  F    2.445915   2.995756   0.000000
    14  F    4.263020   4.204683   2.178290   0.000000
    15  F    3.265101   2.440568   2.179087   2.178448   0.000000
 Stoichiometry    C5H5F3O2
 Framework group  C1[X(C5H5F3O2)]
 Deg. of freedom    39
 Full point group                 C1      NOp   1
 Largest Abelian subgroup         C1      NOp   1
 Largest concise Abelian subgroup C1      NOp   1
                         Standard orientation:                         
 ---------------------------------------------------------------------
 Center     Atomic      Atomic             Coordinates (Angstroms)
 Number     Number       Type             X           Y           Z
 ---------------------------------------------------------------------
      1          6           0       -2.400754    0.353123    0.056805
      2          6           0       -1.089278    0.634357   -0.030184
      3          6           0       -0.089460   -0.493996   -0.081637
      4          8           0       -2.968416   -0.892557    0.097668
      5          8           0       -0.506843   -1.654671   -0.192463
      6          1           0       -3.177493    1.109281    0.102593
      7          6           0       -0.600790    2.049485   -0.088491
      8          6           0        1.396374   -0.152290    0.025296
      9          1           0       -2.258475   -1.566390   -0.001863
     10          1           0       -1.429599    2.766159   -0.071193
     11          1           0       -0.040711    2.228025   -1.011463
     12          1           0        0.040481    2.278138    0.767779
     13          9           0        1.818861    0.639200   -1.000214
     14          9           0        2.200878   -1.249703    0.015196
     15          9           0        1.688185    0.523674    1.171881
 ---------------------------------------------------------------------
 Rotational constants (GHZ):           2.2152061           0.9545905           0.7632624
 Standard basis: 6-31G(d,p) (6D, 7F)
 There are   175 symmetry adapted cartesian basis functions of A   symmetry.
 There are   175 symmetry adapted basis functions of A   symmetry.
   175 basis functions,   315 primitive gaussians,   175 cartesian basis functions
    39 alpha electrons       39 beta electrons
       nuclear repulsion energy       573.5321469378 Hartrees.
 NAtoms=   15 NActive=   15 NUniq=   15 SFac= 1.00D+00 NAtFMM=   60 NAOKFM=F Big=F
 Integral buffers will be    131072 words long.
 Raffenetti 1 integral format.
 Two-electron integral symmetry is turned on.
 One-electron integrals computed using PRISM.
 NBasis=   175 RedAO= T EigKep=  1.30D-03  NBF=   175
 NBsUse=   175 1.00D-06 EigRej= -1.00D+00 NBFU=   175
 ExpMin= 1.61D-01 ExpMax= 7.00D+03 ExpMxC= 1.05D+03 IAcc=3 IRadAn=         5 AccDes= 0.00D+00
 Harris functional with IExCor=  205 and IRadAn=       5 diagonalized for initial guess.
 HarFok:  IExCor=  205 AccDes= 0.00D+00 IRadAn=         5 IDoV= 1 UseB2=F ITyADJ=14
 ICtDFT=  3500011 ScaDFX=  1.000000  1.000000  1.000000  1.000000
 FoFCou: FMM=F IPFlag=           0 FMFlag=      100000 FMFlg1=           0
         NFxFlg=           0 DoJE=T BraDBF=F KetDBF=T FulRan=T
         wScrn=  0.000000 ICntrl=       500 IOpCl=  0 I1Cent=   200000004 NGrid=           0
         NMat0=    1 NMatS0=      1 NMatT0=    0 NMatD0=    1 NMtDS0=    0 NMtDT0=    0
 Petite list used in FoFCou.
 Requested convergence on RMS density matrix=1.00D-08 within 128 cycles.
 Requested convergence on MAX density matrix=1.00D-06.
 Requested convergence on             energy=1.00D-06.
 No special actions if energy rises.
 Integral accuracy reduced to 1.0D-05 until final iterations.
 Initial convergence to 1.0D-05 achieved.  Increase integral accuracy.
 SCF Done:  E(RHF) =  -640.274007531     A.U. after   15 cycles
            NFock= 15  Conv=0.86D-08     -V/T= 2.0030
 ExpMin= 1.61D-01 ExpMax= 7.00D+03 ExpMxC= 1.05D+03 IAcc=3 IRadAn=         5 AccDes= 0.00D+00
 HarFok:  IExCor=  205 AccDes= 0.00D+00 IRadAn=         5 IDoV=-2 UseB2=F ITyADJ=14
 ICtDFT= 12500011 ScaDFX=  1.000000  1.000000  1.000000  1.000000
 Range of M.O.s used for correlation:    11   175
 NBasis=   175 NAE=    39 NBE=    39 NFC=    10 NFV=     0
 NROrb=    165 NOA=    29 NOB=    29 NVA=   136 NVB=   136

 **** Warning!!: The largest alpha MO coefficient is  0.10987878D+02

 Disk-based method using ON**2 memory for 29 occupieds at a time.
 Permanent disk used for amplitudes=    34934796 words.
 Estimated scratch disk usage=   286057178 words.
 Actual    scratch disk usage=   268231386 words.
 JobTyp=1 Pass  1:  I=  11 to  39 NPSUse= 28 ParTrn=T ParDer=T DoDerP=T.
 (rs|ai) integrals will be sorted in core.
 Spin components of T(2) and E(2):
     alpha-alpha T2 =       0.5970138533D-01 E2=     -0.2084862113D+00
     alpha-beta  T2 =       0.3198457058D+00 E2=     -0.1124249405D+01
     beta-beta   T2 =       0.5970138533D-01 E2=     -0.2084862113D+00
 ANorm=    0.1199686824D+01
 E2 =    -0.1541221828D+01 EUMP2 =    -0.64181522935902D+03
 G2DrvN: will do    16 centers at a time, making    1 passes.
 Calling FoFCou, ICntrl=  3107 FMM=F I1Cent=   0 AccDes= 0.00D+00.
 End of G2Drv F.D. properties file   721 does not exist.
 End of G2Drv F.D. properties file   722 does not exist.
 End of G2Drv F.D. properties file   788 does not exist.
          IDoAtm=111111111111111
          Differentiating once with respect to electric field.
                with respect to dipole field.
          Differentiating once with respect to nuclear coordinates.
 Keep R1 ints in memory in canonical form, NReq=124621154.
          There are    48 degrees of freedom in the 1st order CPHF.  IDoFFX=6 NUNeed=    48.
     45 vectors produced by pass  0 Test12= 1.11D-14 2.08D-09 XBig12= 1.96D+01 2.67D+00.
 AX will form    45 AO Fock derivatives at one time.
     45 vectors produced by pass  1 Test12= 1.11D-14 2.08D-09 XBig12= 9.91D-01 2.32D-01.
     45 vectors produced by pass  2 Test12= 1.11D-14 2.08D-09 XBig12= 4.01D-02 4.46D-02.
     45 vectors produced by pass  3 Test12= 1.11D-14 2.08D-09 XBig12= 6.96D-04 4.63D-03.
     45 vectors produced by pass  4 Test12= 1.11D-14 2.08D-09 XBig12= 7.47D-06 3.74D-04.
     45 vectors produced by pass  5 Test12= 1.11D-14 2.08D-09 XBig12= 4.09D-08 2.95D-05.
     42 vectors produced by pass  6 Test12= 1.11D-14 2.08D-09 XBig12= 2.28D-10 2.85D-06.
     13 vectors produced by pass  7 Test12= 1.11D-14 2.08D-09 XBig12= 1.26D-12 1.04D-07.
      3 vectors produced by pass  8 Test12= 1.11D-14 2.08D-09 XBig12= 6.88D-15 1.18D-08.
 InvSVY:  IOpt=1 It=  1 EMax= 1.78D-15
 Solved reduced A of dimension   328 with    48 vectors.
 End of Minotr F.D. properties file   721 does not exist.
 End of Minotr F.D. properties file   722 does not exist.
 End of Minotr F.D. properties file   788 does not exist.
 MDV=  5502926848.
 Form MO integral derivatives with frozen-active canonical formalism.
 Discarding MO integrals.
 Reordered first order wavefunction length =     56264832
 In DefCFB: NBatch=  1 ICI= 39 ICA=136 LFMax= 68
            Large arrays: LIAPS=   649740000 LIARS=    97461000 words.
 Semi-Direct transformation.
 ModeAB=           4 MOrb=            39 LenV=    5502111402
 LASXX=     87830691 LTotXX=    87830691 LenRXX=   177387171
 LTotAB=    89556480 MaxLAS=    98689500 LenRXY=           0
 NonZer=   265217862 LenScr=   397934592 LnRSAI=    98689500
 LnScr1=   148373504 LExtra=           0 Total=    822384767
 MaxDsk=          -1 SrtSym=           T ITran=            4
 JobTyp=0 Pass  1:  I=   1 to  39.
 (rs|ai) integrals will be sorted in core.
 SymMOI:  orbitals are not symmetric.
 Spin components of T(2) and E(2):
     alpha-alpha T2 =       0.5970138533D-01 E2=     -0.2084862113D+00
     alpha-beta  T2 =       0.3198457058D+00 E2=     -0.1124249405D+01
     beta-beta   T2 =       0.5970138533D-01 E2=     -0.2084862113D+00
 ANorm=    0.1696613378D+01
 E2 =    -0.1541221828D+01 EUMP2 =    -0.64181522935902D+03
          IDoAtm=111111111111111
          Differentiating once with respect to electric field.
                with respect to dipole field.
          Differentiating once with respect to nuclear coordinates.
          There are     1 degrees of freedom in the 1st order CPHF.  IDoFFX=0 NUNeed=     1.
 LinEq1:  Iter=  0 NonCon=     1 RMS=5.15D-03 Max=1.71D-01 NDo=     1
 LinEq1:  Iter=  1 NonCon=     1 RMS=2.04D-03 Max=4.48D-02 NDo=     1
 LinEq1:  Iter=  2 NonCon=     1 RMS=6.59D-04 Max=2.27D-02 NDo=     1
 LinEq1:  Iter=  3 NonCon=     1 RMS=2.94D-04 Max=8.04D-03 NDo=     1
 LinEq1:  Iter=  4 NonCon=     1 RMS=8.81D-05 Max=2.02D-03 NDo=     1
 LinEq1:  Iter=  5 NonCon=     1 RMS=2.85D-05 Max=3.86D-04 NDo=     1
 LinEq1:  Iter=  6 NonCon=     1 RMS=8.90D-06 Max=3.19D-04 NDo=     1
 LinEq1:  Iter=  7 NonCon=     1 RMS=3.31D-06 Max=7.98D-05 NDo=     1
 LinEq1:  Iter=  8 NonCon=     1 RMS=1.23D-06 Max=4.02D-05 NDo=     1
 LinEq1:  Iter=  9 NonCon=     1 RMS=3.43D-07 Max=1.01D-05 NDo=     1
 LinEq1:  Iter= 10 NonCon=     1 RMS=1.29D-07 Max=1.82D-06 NDo=     1
 LinEq1:  Iter= 11 NonCon=     1 RMS=4.01D-08 Max=7.39D-07 NDo=     1
 LinEq1:  Iter= 12 NonCon=     1 RMS=1.28D-08 Max=2.68D-07 NDo=     1
 LinEq1:  Iter= 13 NonCon=     1 RMS=4.35D-09 Max=1.26D-07 NDo=     1
 LinEq1:  Iter= 14 NonCon=     1 RMS=1.31D-09 Max=4.61D-08 NDo=     1
 LinEq1:  Iter= 15 NonCon=     1 RMS=4.98D-10 Max=1.38D-08 NDo=     1
 LinEq1:  Iter= 16 NonCon=     1 RMS=1.26D-10 Max=2.15D-09 NDo=     1
 LinEq1:  Iter= 17 NonCon=     0 RMS=2.71D-11 Max=2.44D-10 NDo=     1
 Linear equations converged to 1.000D-10 1.000D-09 after    17 iterations.
 End of Minotr F.D. properties file   721 does not exist.
 End of Minotr F.D. properties file   722 does not exist.
 End of Minotr F.D. properties file   788 does not exist.
 Symmetrizing basis deriv contribution to polar:
 IMax=3 JMax=2 DiffMx= 0.00D+00
 G2DrvN: will do    16 centers at a time, making    1 passes.
 Calling FoFCou, ICntrl=  3107 FMM=F I1Cent=   0 AccDes= 0.00D+00.
 End of G2Drv F.D. properties file   721 does not exist.
 End of G2Drv F.D. properties file   722 does not exist.
 End of G2Drv F.D. properties file   788 does not exist.
 R2 and R3 integrals will be kept in memory, NReq=   239901200.
 DD1Dir will call FoFMem   1 times, MxPair=      1560
 NAB=   780 NAA=     0 NBB=     0.
 Discarding MO integrals.

 **********************************************************************

            Population analysis using the SCF density.

 **********************************************************************

 Orbital symmetries:
       Occupied  (A) (A) (A) (A) (A) (A) (A) (A) (A) (A) (A) (A)
                 (A) (A) (A) (A) (A) (A) (A) (A) (A) (A) (A) (A)
                 (A) (A) (A) (A) (A) (A) (A) (A) (A) (A) (A) (A)
                 (A) (A) (A)
       Virtual   (A) (A) (A) (A) (A) (A) (A) (A) (A) (A) (A) (A)
                 (A) (A) (A) (A) (A) (A) (A) (A) (A) (A) (A) (A)
                 (A) (A) (A) (A) (A) (A) (A) (A) (A) (A) (A) (A)
                 (A) (A) (A) (A) (A) (A) (A) (A) (A) (A) (A) (A)
                 (A) (A) (A) (A) (A) (A) (A) (A) (A) (A) (A) (A)
                 (A) (A) (A) (A) (A) (A) (A) (A) (A) (A) (A) (A)
                 (A) (A) (A) (A) (A) (A) (A) (A) (A) (A) (A) (A)
                 (A) (A) (A) (A) (A) (A) (A) (A) (A) (A) (A) (A)
                 (A) (A) (A) (A) (A) (A) (A) (A) (A) (A) (A) (A)
                 (A) (A) (A) (A) (A) (A) (A) (A) (A) (A) (A) (A)
                 (A) (A) (A) (A) (A) (A) (A) (A) (A) (A) (A) (A)
                 (A) (A) (A) (A)
 The electronic state is 1-A.
 Alpha  occ. eigenvalues --  -26.36431 -26.36409 -26.35471 -20.61174 -20.60828
 Alpha  occ. eigenvalues --  -11.54415 -11.40035 -11.34707 -11.26397 -11.24579
 Alpha  occ. eigenvalues --   -1.73431  -1.64424  -1.63715  -1.43685  -1.40128
 Alpha  occ. eigenvalues --   -1.11731  -1.03481  -0.95283  -0.90607  -0.85444
 Alpha  occ. eigenvalues --   -0.82787  -0.82361  -0.76521  -0.72051  -0.71864
 Alpha  occ. eigenvalues --   -0.68939  -0.67732  -0.67254  -0.66575  -0.65814
 Alpha  occ. eigenvalues --   -0.63532  -0.61794  -0.61308  -0.57303  -0.56541
 Alpha  occ. eigenvalues --   -0.55592  -0.54453  -0.46517  -0.36429
 Alpha virt. eigenvalues --    0.05900   0.20505   0.23800   0.25007   0.26772
 Alpha virt. eigenvalues --    0.30399   0.33012   0.34085   0.38206   0.39766
 Alpha virt. eigenvalues --    0.40906   0.42924   0.46444   0.51708   0.57735
 Alpha virt. eigenvalues --    0.59703   0.66162   0.68917   0.69817   0.72091
 Alpha virt. eigenvalues --    0.72869   0.76712   0.79005   0.80308   0.86421
 Alpha virt. eigenvalues --    0.87617   0.89417   0.92326   0.95744   0.97113
 Alpha virt. eigenvalues --    0.98248   1.05130   1.08355   1.10246   1.11349
 Alpha virt. eigenvalues --    1.13779   1.16706   1.20877   1.22923   1.24739
 Alpha virt. eigenvalues --    1.25736   1.30985   1.33185   1.35516   1.36003
 Alpha virt. eigenvalues --    1.38522   1.40725   1.44306   1.46575   1.51765
 Alpha virt. eigenvalues --    1.54394   1.58372   1.60781   1.61193   1.63676
 Alpha virt. eigenvalues --    1.65112   1.66531   1.68037   1.68260   1.69395
 Alpha virt. eigenvalues --    1.73235   1.83051   1.84725   1.87268   1.89307
 Alpha virt. eigenvalues --    1.91984   1.93448   1.97484   1.98973   2.02128
 Alpha virt. eigenvalues --    2.03587   2.07241   2.07771   2.10444   2.12137
 Alpha virt. eigenvalues --    2.12647   2.14425   2.17913   2.22439   2.23491
 Alpha virt. eigenvalues --    2.27240   2.29305   2.30670   2.32728   2.33202
 Alpha virt. eigenvalues --    2.36013   2.36571   2.37837   2.41963   2.43589
 Alpha virt. eigenvalues --    2.44872   2.45705   2.49268   2.55007   2.61724
 Alpha virt. eigenvalues --    2.66659   2.68314   2.72099   2.72892   2.73292
 Alpha virt. eigenvalues --    2.76141   2.82764   2.86860   2.88915   2.91257
 Alpha virt. eigenvalues --    2.96975   2.99980   3.01664   3.05477   3.06759
 Alpha virt. eigenvalues --    3.12683   3.16393   3.18904   3.22052   3.27559
 Alpha virt. eigenvalues --    3.32103   3.37110   3.38435   3.43515   3.49916
 Alpha virt. eigenvalues --    3.51531   3.54855   3.79181   3.79732   3.84278
 Alpha virt. eigenvalues --    3.94582   4.32448   4.44163   4.55710   4.70341
 Alpha virt. eigenvalues --    4.72006   4.79801   4.93267   5.04410   5.35553
 Alpha virt. eigenvalues --    5.89152
          Condensed to atoms (all electrons):
               1          2          3          4          5          6
     1  C    4.473318   0.590302  -0.034981   0.306176  -0.002998   0.421478
     2  C    0.590302   5.334380   0.377800  -0.052928  -0.075830  -0.055647
     3  C   -0.034981   0.377800   4.488747  -0.003337   0.486522   0.001391
     4  O    0.306176  -0.052928  -0.003337   8.145292  -0.024858  -0.034080
     5  O   -0.002998  -0.075830   0.486522  -0.024858   8.220541  -0.000089
     6  H    0.421478  -0.055647   0.001391  -0.034080  -0.000089   0.481495
     7  C   -0.031902   0.291124  -0.038686   0.001944   0.002457   0.000105
     8  C    0.001397  -0.068213   0.379483  -0.000028  -0.038407  -0.000036
     9  H   -0.027726  -0.004376  -0.002818   0.308127   0.028522   0.003345
    10  H   -0.002723  -0.039940   0.002340   0.000055  -0.000047   0.001063
    11  H   -0.000534  -0.048467  -0.002016  -0.000021   0.000048   0.000027
    12  H   -0.000264  -0.046413  -0.003162  -0.000021  -0.000000   0.000044
    13  F    0.000052   0.000685  -0.029072   0.000000   0.000258   0.000000
    14  F   -0.000018   0.001972  -0.024226   0.000000  -0.000228   0.000000
    15  F    0.000050   0.004287  -0.034726   0.000000   0.000260  -0.000000
               7          8          9         10         11         12
     1  C   -0.031902   0.001397  -0.027726  -0.002723  -0.000534  -0.000264
     2  C    0.291124  -0.068213  -0.004376  -0.039940  -0.048467  -0.046413
     3  C   -0.038686   0.379483  -0.002818   0.002340  -0.002016  -0.003162
     4  O    0.001944  -0.000028   0.308127   0.000055  -0.000021  -0.000021
     5  O    0.002457  -0.038407   0.028522  -0.000047   0.000048  -0.000000
     6  H    0.000105  -0.000036   0.003345   0.001063   0.000027   0.000044
     7  C    4.924633   0.001868   0.000033   0.402587   0.408935   0.405235
     8  C    0.001868   3.761032   0.000318  -0.000029  -0.001178   0.000568
     9  H    0.000033   0.000318   0.271148  -0.000003   0.000001   0.000002
    10  H    0.402587  -0.000029  -0.000003   0.557279  -0.024617  -0.024026
    11  H    0.408935  -0.001178   0.000001  -0.024617   0.549736  -0.032516
    12  H    0.405235   0.000568   0.000002  -0.024026  -0.032516   0.549174
    13  F    0.000185   0.257809  -0.000003   0.000137   0.002662  -0.000537
    14  F   -0.000015   0.285995  -0.000002   0.000000   0.000013   0.000018
    15  F   -0.003220   0.265284  -0.000006   0.000079  -0.000053   0.004043
              13         14         15
     1  C    0.000052  -0.000018   0.000050
     2  C    0.000685   0.001972   0.004287
     3  C   -0.029072  -0.024226  -0.034726
     4  O    0.000000   0.000000   0.000000
     5  O    0.000258  -0.000228   0.000260
     6  H    0.000000   0.000000  -0.000000
     7  C    0.000185  -0.000015  -0.003220
     8  C    0.257809   0.285995   0.265284
     9  H   -0.000003  -0.000002  -0.000006
    10  H    0.000137   0.000000   0.000079
    11  H    0.002662   0.000013  -0.000053
    12  H   -0.000537   0.000018   0.004043
    13  F    9.204282  -0.031276  -0.030827
    14  F   -0.031276   9.164146  -0.031523
    15  F   -0.030827  -0.031523   9.197916
 Mulliken charges:
               1
     1  C    0.308373
     2  C   -0.208736
     3  C    0.436739
     4  O   -0.646319
     5  O   -0.596151
     6  H    0.180904
     7  C   -0.365283
     8  C    1.154138
     9  H    0.423436
    10  H    0.127845
    11  H    0.147979
    12  H    0.147853
    13  F   -0.374356
    14  F   -0.364857
    15  F   -0.371565
 Sum of Mulliken charges =  -0.00000
 Mulliken charges with hydrogens summed into heavy atoms:
               1
     1  C    0.489277
     2  C   -0.208736
     3  C    0.436739
     4  O   -0.222883
     5  O   -0.596151
     7  C    0.058395
     8  C    1.154138
    13  F   -0.374356
    14  F   -0.364857
    15  F   -0.371565
 APT charges:
               1
     1  C    0.600925
     2  C   -0.497669
     3  C    0.649434
     4  O   -0.676530
     5  O   -0.524794
     6  H    0.047958
     7  C    0.088436
     8  C    1.517794
     9  H    0.341139
    10  H   -0.003076
    11  H    0.005749
    12  H    0.007379
    13  F   -0.521504
    14  F   -0.514841
    15  F   -0.520398
 Sum of APT charges =  -0.00000
 APT charges with hydrogens summed into heavy atoms:
               1
     1  C    0.648883
     2  C   -0.497669
     3  C    0.649434
     4  O   -0.335391
     5  O   -0.524794
     7  C    0.098487
     8  C    1.517794
    13  F   -0.521504
    14  F   -0.514841
    15  F   -0.520398
 Electronic spatial extent (au):  <R**2>=           1441.9214
 Charge=             -0.0000 electrons
 Dipole moment (field-independent basis, Debye):
    X=             -1.0410    Y=              2.5937    Z=             -0.0082  Tot=              2.7948
 Quadrupole moment (field-independent basis, Debye-Ang):
   XX=            -60.0283   YY=            -56.3726   ZZ=            -56.2130
   XY=             -4.2582   XZ=              0.0702   YZ=             -0.3472
 Traceless Quadrupole moment (field-independent basis, Debye-Ang):
   XX=             -2.4903   YY=              1.1653   ZZ=              1.3250
   XY=             -4.2582   XZ=              0.0702   YZ=             -0.3472
 Octapole moment (field-independent basis, Debye-Ang**2):
  XXX=             34.5572  YYY=             -1.8906  ZZZ=              0.3603  XYY=              1.6414
  XXY=             13.3485  XXZ=             -0.3704  XZZ=             10.1637  YZZ=             -4.9462
  YYZ=              1.4099  XYZ=             -0.5521
 Hexadecapole moment (field-independent basis, Debye-Ang**3):
 XXXX=          -1074.3984 YYYY=           -469.2465 ZZZZ=           -121.1028 XXXY=            -49.1747
 XXXZ=              4.2844 YYYX=             13.0639 YYYZ=             -1.3408 ZZZX=              0.1301
 ZZZY=              0.1731 XXYY=           -236.1746 XXZZ=           -196.2887 YYZZ=            -97.9992
 XXYZ=              3.8186 YYXZ=              0.5035 ZZXY=              2.5175
 N-N= 5.735321469378D+02 E-N=-2.661985791689D+03  KE= 6.383283170984D+02
  Exact polarizability:  75.944  -0.059  64.361  -1.755   0.555  36.070
 Approx polarizability:  59.875   1.805  55.937  -1.420   0.750  37.192
 Calling FoFJK, ICntrl=  10100127 FMM=F ISym2X=0 I1Cent= 0 IOpClX= 0 NMat=1 NMatS=1 NMatT=0.
 ***** Axes restored to original set *****
 -------------------------------------------------------------------
 Center     Atomic                   Forces (Hartrees/Bohr)
 Number     Number              X              Y              Z
 -------------------------------------------------------------------
      1        6           0.028625100    0.035172977    0.004528798
      2        6           0.016463955   -0.042358496    0.003036924
      3        6          -0.036158064    0.044109487   -0.004427006
      4        8          -0.015847642   -0.010479325   -0.001646191
      5        8           0.015992665   -0.020500971   -0.000354483
      6        1          -0.000843253   -0.004942952   -0.000834265
      7        6          -0.011333545   -0.002400201   -0.001797693
      8        6           0.013658791   -0.037348251   -0.000251616
      9        1          -0.008643934   -0.002223153   -0.001292251
     10        1           0.005213766    0.000070191    0.000415901
     11        1          -0.000151507    0.000735729   -0.005164298
     12        1          -0.001149544    0.000292620    0.004777268
     13        9           0.003522765    0.012304674   -0.002467518
     14        9          -0.011381631    0.015360389   -0.000546180
     15        9           0.002032077    0.012207280    0.006022609
 -------------------------------------------------------------------
 Cartesian Forces:  Max     0.044109487 RMS     0.015701476
 FormGI is forming the generalized inverse of G from B-inverse, IUseBI=4.

 GradGradGradGradGradGradGradGradGradGradGradGradGradGradGradGradGradGrad
 Berny optimization.
 Internal  Forces:  Max     0.031675293 RMS     0.009576064
 Search for a local minimum.
 Step number   1 out of a maximum of   68
 All quantities printed in internal units (Hartrees-Bohrs-Radians)
 Mixed Optimization -- RFO/linear search
 Second derivative matrix not updated -- analytic derivatives used.
 ITU=  0
     Eigenvalues ---    0.00017   0.00472   0.00621   0.01307   0.02014
     Eigenvalues ---    0.03479   0.03833   0.06016   0.06371   0.06519
     Eigenvalues ---    0.10846   0.12619   0.12885   0.13259   0.15034
     Eigenvalues ---    0.16130   0.16859   0.17756   0.19368   0.21613
     Eigenvalues ---    0.22059   0.22532   0.25081   0.26846   0.32375
     Eigenvalues ---    0.34391   0.34916   0.34981   0.35093   0.35188
     Eigenvalues ---    0.36148   0.36186   0.38006   0.45699   0.48638
     Eigenvalues ---    0.51271   0.57741   0.75380   0.86012
 RFO step:  Lambda=-1.93369210D-02 EMin= 1.70079328D-04
 Linear search not attempted -- first point.
 Iteration  1 RMS(Cart)=  0.07583001 RMS(Int)=  0.00250835
 Iteration  2 RMS(Cart)=  0.00290705 RMS(Int)=  0.00016081
 Iteration  3 RMS(Cart)=  0.00000431 RMS(Int)=  0.00016078
 Iteration  4 RMS(Cart)=  0.00000000 RMS(Int)=  0.00016078
 Variable       Old X    -DE/DX   Delta X   Delta X   Delta X     New X
                                 (Linear)    (Quad)   (Total)
    R1        2.54000   0.01739   0.00000   0.04545   0.04545   2.58545
    R2        2.58805  -0.02722   0.00000  -0.08572  -0.08572   2.50233
    R3        2.05033  -0.00178   0.00000  -0.00089  -0.00089   2.04944
    R4        2.85058  -0.02321   0.00000  -0.13617  -0.13617   2.71442
    R5        2.83119   0.00706   0.00000   0.01703   0.01703   2.84822
    R6        2.34025   0.00154   0.00000   0.01804   0.01804   2.35830
    R7        2.88819  -0.00254   0.00000   0.00926   0.00926   2.89745
    R8        1.85922  -0.00613   0.00000   0.00974   0.00974   1.86896
    R9        2.07082  -0.00422   0.00000  -0.01268  -0.01268   2.05814
   R10        2.06788  -0.00460   0.00000  -0.01197  -0.01197   2.05591
   R11        2.06725  -0.00406   0.00000  -0.01094  -0.01094   2.05631
   R12        2.57490  -0.00939   0.00000  -0.01754  -0.01754   2.55736
   R13        2.57145  -0.01634   0.00000  -0.04886  -0.04886   2.52259
   R14        2.57498  -0.00976   0.00000  -0.01833  -0.01833   2.55665
    A1        2.21014   0.00428   0.00000  -0.00780  -0.00780   2.20234
    A2        2.15967  -0.00694   0.00000  -0.04334  -0.04334   2.11633
    A3        1.91337   0.00265   0.00000   0.05115   0.05114   1.96451
    A4        2.08565  -0.00474   0.00000  -0.04257  -0.04258   2.04308
    A5        2.11564  -0.00603   0.00000  -0.02113  -0.02114   2.09450
    A6        2.08186   0.01077   0.00000   0.06374   0.06374   2.14560
    A7        2.07228   0.03168   0.00000   0.10497   0.10496   2.17724
    A8        2.06546  -0.00276   0.00000   0.01155   0.01155   2.07701
    A9        2.14535  -0.02892   0.00000  -0.11658  -0.11658   2.02877
   A10        1.89741  -0.01229   0.00000  -0.05286  -0.05286   1.84455
   A11        1.95037  -0.00518   0.00000  -0.03594  -0.03583   1.91454
   A12        1.93244   0.00298   0.00000   0.01324   0.01326   1.94570
   A13        1.93702   0.00292   0.00000   0.01441   0.01443   1.95146
   A14        1.86891   0.00112   0.00000   0.01280   0.01290   1.88181
   A15        1.86953   0.00116   0.00000   0.01304   0.01315   1.88268
   A16        1.90294  -0.00315   0.00000  -0.01769  -0.01775   1.88519
   A17        1.95913  -0.00977   0.00000  -0.02780  -0.02822   1.93091
   A18        1.97571  -0.01211   0.00000  -0.03455  -0.03501   1.94071
   A19        1.95841  -0.01126   0.00000  -0.02989  -0.03034   1.92806
   A20        1.85413   0.01197   0.00000   0.03644   0.03603   1.89016
   A21        1.85328   0.01235   0.00000   0.02992   0.02952   1.88279
   A22        1.85428   0.01237   0.00000   0.03569   0.03522   1.88951
    D1       -0.00838  -0.00100   0.00000  -0.01451  -0.01442  -0.02280
    D2        3.12433  -0.00059   0.00000  -0.00852  -0.00866   3.11568
    D3        3.13663  -0.00102   0.00000  -0.01796  -0.01783   3.11881
    D4       -0.01384  -0.00061   0.00000  -0.01198  -0.01206  -0.02590
    D5       -0.05872  -0.00017   0.00000   0.01917   0.01912  -0.03959
    D6        3.07985  -0.00017   0.00000   0.02208   0.02213   3.10199
    D7        0.13862  -0.00137   0.00000  -0.06276  -0.06291   0.07572
    D8       -2.98836  -0.00053   0.00000  -0.05716  -0.05696  -3.04533
    D9       -2.99426  -0.00169   0.00000  -0.06821  -0.06840  -3.06266
   D10        0.16193  -0.00085   0.00000  -0.06261  -0.06246   0.09948
   D11       -0.01960   0.00009   0.00000   0.00270   0.00265  -0.01695
   D12       -2.10134   0.00008   0.00000   0.00131   0.00131  -2.10003
   D13        2.06600   0.00008   0.00000   0.00499   0.00487   2.07086
   D14        3.11313   0.00042   0.00000   0.00814   0.00821   3.12134
   D15        1.03139   0.00041   0.00000   0.00675   0.00687   1.03826
   D16       -1.08446   0.00040   0.00000   0.01044   0.01042  -1.07403
   D17       -1.08120  -0.00067   0.00000   0.00644   0.00657  -1.07463
   D18        3.10300  -0.00036   0.00000   0.00426   0.00441   3.10742
   D19        1.00435   0.00050   0.00000   0.00455   0.00466   1.00901
   D20        2.07565  -0.00034   0.00000   0.01026   0.01013   2.08578
   D21       -0.02334  -0.00003   0.00000   0.00808   0.00798  -0.01535
   D22       -2.12199   0.00083   0.00000   0.00837   0.00823  -2.11376
         Item               Value     Threshold  Converged?
 Maximum Force            0.031675     0.000450     NO 
 RMS     Force            0.009576     0.000300     NO 
 Maximum Displacement     0.244371     0.001800     NO 
 RMS     Displacement     0.075524     0.001200     NO 
 Predicted change in Energy=-1.060870D-02
 GradGradGradGradGradGradGradGradGradGradGradGradGradGradGradGradGradGrad

                          Input orientation:                          
 ---------------------------------------------------------------------
 Center     Atomic      Atomic             Coordinates (Angstroms)
 Number     Number       Type             X           Y           Z
 ---------------------------------------------------------------------
      1          6           0       -1.132333    2.326702   -0.050058
      2          6           0       -1.112479    0.958941   -0.023616
      3          6           0        0.163568    0.327505    0.166810
      4          8           0       -0.089119    3.126904    0.107473
      5          8           0        1.231980    0.934385    0.384959
      6          1           0       -2.055281    2.873092   -0.210676
      7          6           0       -2.394441    0.183216   -0.186439
      8          6           0        0.257973   -1.200173    0.076327
      9          1           0        0.680831    2.531218    0.282047
     10          1           0       -3.229782    0.873467   -0.295718
     11          1           0       -2.592691   -0.444956    0.679423
     12          1           0       -2.371506   -0.455322   -1.067246
     13          9           0       -0.505745   -1.782460    1.029790
     14          9           0        1.516377   -1.616198    0.235366
     15          9           0       -0.181850   -1.630862   -1.128439
 ---------------------------------------------------------------------
                    Distance matrix (angstroms):
                    1          2          3          4          5
     1  C    0.000000
     2  C    1.368160   0.000000
     3  C    2.392317   1.436408   0.000000
     4  O    1.324174   2.400940   2.811406   0.000000
     5  O    2.778086   2.379921   1.247957   2.574770   0.000000
     6  H    1.084515   2.141924   3.397911   2.007843   3.862570
     7  C    2.491195   1.507212   2.586312   3.750493   3.747223
     8  C    3.793122   2.559277   1.533264   4.341087   2.366491
     9  H    1.854639   2.404464   2.266537   0.989010   1.692404
    10  H    2.563500   2.136427   3.467972   3.886426   4.513796
    11  H    3.216656   2.157828   2.907994   4.399226   4.076444
    12  H    3.210900   2.162048   2.926143   4.406995   4.126172
    13  F    4.294636   2.998845   2.375851   5.012595   3.288882
    14  F    4.758528   3.689078   2.369129   5.009091   2.570746
    15  F    4.210539   2.965432   2.373223   4.916546   3.296935
                    6          7          8          9         10
     6  H    0.000000
     7  C    2.711282   0.000000
     8  C    4.693080   3.003017   0.000000
     9  H    2.801065   3.897422   3.760905   0.000000
    10  H    2.320600   1.089121   4.074658   4.286590   0.000000
    11  H    3.477144   1.087943   3.010044   4.442012   1.759268
    12  H    3.451384   1.088153   2.962553   4.478479   1.759993
    13  F    5.061026   2.985007   1.353298   4.535957   4.028809
    14  F    5.754078   4.325541   1.334897   4.231001   5.385769
    15  F    4.963631   3.012275   1.352922   4.478460   4.031746
                   11         12         13         14         15
    11  H    0.000000
    12  H    1.760649   0.000000
    13  F    2.503401   3.104822   0.000000
    14  F    4.295746   4.261462   2.178929   0.000000
    15  F    3.238347   2.486007   2.187657   2.178108   0.000000
 Stoichiometry    C5H5F3O2
 Framework group  C1[X(C5H5F3O2)]
 Deg. of freedom    39
 Full point group                 C1      NOp   1
 Largest Abelian subgroup         C1      NOp   1
 Largest concise Abelian subgroup C1      NOp   1
                         Standard orientation:                         
 ---------------------------------------------------------------------
 Center     Atomic      Atomic             Coordinates (Angstroms)
 Number     Number       Type             X           Y           Z
 ---------------------------------------------------------------------
      1          6           0       -2.380557    0.293193    0.039612
      2          6           0       -1.055112    0.627396   -0.018423
      3          6           0       -0.109423   -0.453356   -0.048649
      4          8           0       -2.877800   -0.934056    0.046333
      5          8           0       -0.412807   -1.662636   -0.103402
      6          1           0       -3.151370    1.054659    0.086405
      7          6           0       -0.644069    2.077089   -0.051897
      8          6           0        1.388526   -0.132472    0.015249
      9          1           0       -2.099317   -1.538420   -0.036425
     10          1           0       -1.530183    2.710217   -0.040344
     11          1           0       -0.079818    2.310506   -0.952318
     12          1           0       -0.031975    2.343704    0.807367
     13          9           0        1.761432    0.617090   -1.048007
     14          9           0        2.121355   -1.248221    0.019139
     15          9           0        1.675138    0.566883    1.137371
 ---------------------------------------------------------------------
 Rotational constants (GHZ):           2.1964856           0.9992159           0.7881565
 Standard basis: 6-31G(d,p) (6D, 7F)
 There are   175 symmetry adapted cartesian basis functions of A   symmetry.
 There are   175 symmetry adapted basis functions of A   symmetry.
   175 basis functions,   315 primitive gaussians,   175 cartesian basis functions
    39 alpha electrons       39 beta electrons
       nuclear repulsion energy       579.8753538121 Hartrees.
 NAtoms=   15 NActive=   15 NUniq=   15 SFac= 1.00D+00 NAtFMM=   60 NAOKFM=F Big=F
 Integral buffers will be    131072 words long.
 Raffenetti 1 integral format.
 Two-electron integral symmetry is turned on.
 One-electron integrals computed using PRISM.
 NBasis=   175 RedAO= T EigKep=  1.29D-03  NBF=   175
 NBsUse=   175 1.00D-06 EigRej= -1.00D+00 NBFU=   175
 Initial guess from the checkpoint file:  "6.chk"
 B after Tr=    -0.000000   -0.000000    0.000000
         Rot=    0.999962    0.004565   -0.001277   -0.007253 Ang=   0.99 deg.
 ExpMin= 1.61D-01 ExpMax= 7.00D+03 ExpMxC= 1.05D+03 IAcc=2 IRadAn=         4 AccDes= 0.00D+00
 Harris functional with IExCor=  205 and IRadAn=       4 diagonalized for initial guess.
 HarFok:  IExCor=  205 AccDes= 0.00D+00 IRadAn=         4 IDoV= 1 UseB2=F ITyADJ=14
 ICtDFT=  3500011 ScaDFX=  1.000000  1.000000  1.000000  1.000000
 FoFCou: FMM=F IPFlag=           0 FMFlag=      100000 FMFlg1=           0
         NFxFlg=           0 DoJE=T BraDBF=F KetDBF=T FulRan=T
         wScrn=  0.000000 ICntrl=       500 IOpCl=  0 I1Cent=   200000004 NGrid=           0
         NMat0=    1 NMatS0=      1 NMatT0=    0 NMatD0=    1 NMtDS0=    0 NMtDT0=    0
 Petite list used in FoFCou.
 Requested convergence on RMS density matrix=1.00D-08 within 128 cycles.
 Requested convergence on MAX density matrix=1.00D-06.
 Requested convergence on             energy=1.00D-06.
 No special actions if energy rises.
 Integral accuracy reduced to 1.0D-05 until final iterations.
 Initial convergence to 1.0D-05 achieved.  Increase integral accuracy.
 SCF Done:  E(RHF) =  -640.286014256     A.U. after   14 cycles
            NFock= 14  Conv=0.82D-08     -V/T= 2.0026
 ExpMin= 1.61D-01 ExpMax= 7.00D+03 ExpMxC= 1.05D+03 IAcc=3 IRadAn=         5 AccDes= 0.00D+00
 HarFok:  IExCor=  205 AccDes= 0.00D+00 IRadAn=         5 IDoV=-2 UseB2=F ITyADJ=14
 ICtDFT= 12500011 ScaDFX=  1.000000  1.000000  1.000000  1.000000
 Range of M.O.s used for correlation:    11   175
 NBasis=   175 NAE=    39 NBE=    39 NFC=    10 NFV=     0
 NROrb=    165 NOA=    29 NOB=    29 NVA=   136 NVB=   136

 **** Warning!!: The largest alpha MO coefficient is  0.11196469D+02

 Fully direct method using O(ONN) memory.
 JobTyp=1 Pass  1:  I=  11 to  39 NPSUse= 28 ParTrn=T ParDer=T DoDerP=T.
 Spin components of T(2) and E(2):
     alpha-alpha T2 =       0.5960188925D-01 E2=     -0.2089462349D+00
     alpha-beta  T2 =       0.3165907830D+00 E2=     -0.1121080542D+01
     beta-beta   T2 =       0.5960188925D-01 E2=     -0.2089462349D+00
 ANorm=    0.1198246453D+01
 E2 =    -0.1538973011D+01 EUMP2 =    -0.64182498726711D+03
          IDoAtm=111111111111111
          Differentiating once with respect to electric field.
                with respect to dipole field.
          Differentiating once with respect to nuclear coordinates.
 Keep R1 ints in memory in canonical form, NReq=124632152.
          There are     1 degrees of freedom in the 1st order CPHF.  IDoFFX=0 NUNeed=     1.
 LinEq1:  Iter=  0 NonCon=     1 RMS=5.22D-03 Max=1.64D-01 NDo=     1
 AX will form     1 AO Fock derivatives at one time.
 LinEq1:  Iter=  1 NonCon=     1 RMS=2.00D-03 Max=4.94D-02 NDo=     1
 LinEq1:  Iter=  2 NonCon=     1 RMS=6.55D-04 Max=2.34D-02 NDo=     1
 LinEq1:  Iter=  3 NonCon=     1 RMS=2.92D-04 Max=8.57D-03 NDo=     1
 LinEq1:  Iter=  4 NonCon=     1 RMS=8.80D-05 Max=2.13D-03 NDo=     1
 LinEq1:  Iter=  5 NonCon=     1 RMS=2.92D-05 Max=3.46D-04 NDo=     1
 LinEq1:  Iter=  6 NonCon=     1 RMS=1.17D-05 Max=6.13D-04 NDo=     1
 LinEq1:  Iter=  7 NonCon=     1 RMS=4.01D-06 Max=6.98D-05 NDo=     1
 LinEq1:  Iter=  8 NonCon=     1 RMS=1.48D-06 Max=4.42D-05 NDo=     1
 LinEq1:  Iter=  9 NonCon=     1 RMS=3.71D-07 Max=7.88D-06 NDo=     1
 LinEq1:  Iter= 10 NonCon=     1 RMS=1.37D-07 Max=2.37D-06 NDo=     1
 LinEq1:  Iter= 11 NonCon=     1 RMS=4.18D-08 Max=7.63D-07 NDo=     1
 LinEq1:  Iter= 12 NonCon=     1 RMS=1.15D-08 Max=1.78D-07 NDo=     1
 LinEq1:  Iter= 13 NonCon=     1 RMS=3.32D-09 Max=5.55D-08 NDo=     1
 LinEq1:  Iter= 14 NonCon=     1 RMS=6.96D-10 Max=7.44D-09 NDo=     1
 LinEq1:  Iter= 15 NonCon=     1 RMS=2.32D-10 Max=3.79D-09 NDo=     1
 LinEq1:  Iter= 16 NonCon=     1 RMS=5.87D-11 Max=1.94D-09 NDo=     1
 LinEq1:  Iter= 17 NonCon=     0 RMS=1.87D-11 Max=7.39D-10 NDo=     1
 Linear equations converged to 1.000D-10 1.000D-09 after    17 iterations.
 End of Minotr F.D. properties file   721 does not exist.
 End of Minotr F.D. properties file   722 does not exist.
 End of Minotr F.D. properties file   788 does not exist.
 Symmetrizing basis deriv contribution to polar:
 IMax=3 JMax=2 DiffMx= 0.00D+00
 Calling FoFJK, ICntrl=  10002127 FMM=F ISym2X=0 I1Cent= 0 IOpClX= 0 NMat=1 NMatS=1 NMatT=0.
 ***** Axes restored to original set *****
 -------------------------------------------------------------------
 Center     Atomic                   Forces (Hartrees/Bohr)
 Number     Number              X              Y              Z
 -------------------------------------------------------------------
      1        6          -0.002437669    0.001364291    0.000555740
      2        6          -0.005682259   -0.001793893   -0.000157055
      3        6           0.003594969   -0.000540915    0.000281424
      4        8           0.001414011    0.002363105    0.000900074
      5        8           0.001217118    0.001836414   -0.000425554
      6        1          -0.000375884   -0.000516303   -0.000452537
      7        6          -0.000927578    0.000295346   -0.000972782
      8        6           0.000078898   -0.000770195    0.000698319
      9        1           0.002544570   -0.000721291   -0.000360074
     10        1           0.000318215    0.000184878   -0.000064295
     11        1          -0.000032653   -0.000050533   -0.000219885
     12        1           0.000050033   -0.000226180    0.000353583
     13        9          -0.000230056   -0.000194323    0.000168752
     14        9           0.000562342   -0.001080342    0.000113865
     15        9          -0.000094058   -0.000150057   -0.000419575
 -------------------------------------------------------------------
 Cartesian Forces:  Max     0.005682259 RMS     0.001360384

 GradGradGradGradGradGradGradGradGradGradGradGradGradGradGradGradGradGrad
 Berny optimization.
 Using GEDIIS/GDIIS optimizer.
 FormGI is forming the generalized inverse of G from B-inverse, IUseBI=4.
 Internal  Forces:  Max     0.005007274 RMS     0.001254185
 Search for a local minimum.
 Step number   2 out of a maximum of   68
 All quantities printed in internal units (Hartrees-Bohrs-Radians)
 Mixed Optimization -- RFO/linear search
 Update second derivatives using D2CorX and points    1    2
 DE= -9.76D-03 DEPred=-1.06D-02 R= 9.20D-01
 TightC=F SS=  1.41D+00  RLast= 3.12D-01 DXNew= 5.0454D-01 9.3555D-01
 Trust test= 9.20D-01 RLast= 3.12D-01 DXMaxT set to 5.05D-01
 ITU=  1  0
 Use linear search instead of GDIIS.
     Eigenvalues ---    0.00017   0.00476   0.00621   0.01306   0.02015
     Eigenvalues ---    0.03477   0.03826   0.06034   0.06371   0.06545
     Eigenvalues ---    0.10838   0.12537   0.12921   0.13306   0.14973
     Eigenvalues ---    0.16127   0.17572   0.17927   0.19715   0.22030
     Eigenvalues ---    0.22121   0.22557   0.24994   0.27088   0.32310
     Eigenvalues ---    0.34537   0.34908   0.34975   0.35037   0.35187
     Eigenvalues ---    0.36073   0.36220   0.38053   0.45798   0.49072
     Eigenvalues ---    0.51311   0.58511   0.75628   0.85917
 RFO step:  Lambda=-8.08076191D-04 EMin= 1.70122011D-04
 Quartic linear search produced a step of -0.03338.
 Iteration  1 RMS(Cart)=  0.10712117 RMS(Int)=  0.00450739
 Iteration  2 RMS(Cart)=  0.00619728 RMS(Int)=  0.00003472
 Iteration  3 RMS(Cart)=  0.00001796 RMS(Int)=  0.00003360
 Iteration  4 RMS(Cart)=  0.00000000 RMS(Int)=  0.00003360
 Variable       Old X    -DE/DX   Delta X   Delta X   Delta X     New X
                                 (Linear)    (Quad)   (Total)
    R1        2.58545   0.00246  -0.00152   0.00746   0.00594   2.59139
    R2        2.50233   0.00418   0.00286   0.00198   0.00484   2.50716
    R3        2.04944   0.00013   0.00003   0.00030   0.00033   2.04976
    R4        2.71442   0.00501   0.00455   0.01289   0.01744   2.73186
    R5        2.84822   0.00050  -0.00057   0.00104   0.00047   2.84869
    R6        2.35830   0.00186  -0.00060   0.00249   0.00189   2.36019
    R7        2.89745   0.00217  -0.00031   0.00631   0.00600   2.90345
    R8        1.86896   0.00235  -0.00033   0.00638   0.00605   1.87501
    R9        2.05814  -0.00012   0.00042  -0.00107  -0.00064   2.05750
   R10        2.05591  -0.00014   0.00040  -0.00143  -0.00103   2.05488
   R11        2.05631  -0.00015   0.00037  -0.00084  -0.00047   2.05584
   R12        2.55736   0.00033   0.00059   0.00068   0.00126   2.55863
   R13        2.52259   0.00088   0.00163  -0.00032   0.00131   2.52390
   R14        2.55665   0.00045   0.00061  -0.00035   0.00026   2.55691
    A1        2.20234  -0.00025   0.00026   0.00262   0.00288   2.20523
    A2        2.11633  -0.00056   0.00145  -0.00740  -0.00596   2.11037
    A3        1.96451   0.00081  -0.00171   0.00478   0.00307   1.96758
    A4        2.04308  -0.00270   0.00142  -0.00898  -0.00756   2.03552
    A5        2.09450   0.00026   0.00071  -0.00587  -0.00517   2.08934
    A6        2.14560   0.00244  -0.00213   0.01486   0.01273   2.15833
    A7        2.17724  -0.00122  -0.00350   0.00266  -0.00098   2.17626
    A8        2.07701   0.00003  -0.00039  -0.00071  -0.00124   2.07577
    A9        2.02877   0.00120   0.00389  -0.00142   0.00233   2.03110
   A10        1.84455   0.00173   0.00176   0.00018   0.00194   1.84649
   A11        1.91454  -0.00049   0.00120  -0.00530  -0.00410   1.91044
   A12        1.94570   0.00022  -0.00044   0.00446   0.00402   1.94972
   A13        1.95146   0.00016  -0.00048  -0.00130  -0.00178   1.94968
   A14        1.88181   0.00018  -0.00043   0.00279   0.00236   1.88417
   A15        1.88268   0.00022  -0.00044   0.00326   0.00281   1.88549
   A16        1.88519  -0.00028   0.00059  -0.00374  -0.00314   1.88205
   A17        1.93091  -0.00020   0.00094  -0.00792  -0.00695   1.92395
   A18        1.94071   0.00156   0.00117   0.00537   0.00655   1.94726
   A19        1.92806  -0.00028   0.00101   0.00141   0.00243   1.93049
   A20        1.89016  -0.00057  -0.00120  -0.00048  -0.00166   1.88850
   A21        1.88279  -0.00007  -0.00099   0.00149   0.00052   1.88332
   A22        1.88951  -0.00051  -0.00118   0.00014  -0.00104   1.88847
    D1       -0.02280   0.00030   0.00048   0.03068   0.03117   0.00836
    D2        3.11568   0.00035   0.00029   0.03293   0.03321  -3.13430
    D3        3.11881   0.00004   0.00060   0.03080   0.03140  -3.13298
    D4       -0.02590   0.00009   0.00040   0.03305   0.03345   0.00755
    D5       -0.03959   0.00065  -0.00064   0.07256   0.07192   0.03233
    D6        3.10199   0.00089  -0.00074   0.07244   0.07170  -3.10950
    D7        0.07572  -0.00061   0.00210  -0.13935  -0.13726  -0.06154
    D8       -3.04533  -0.00073   0.00190  -0.17205  -0.17014   3.06772
    D9       -3.06266  -0.00066   0.00228  -0.14163  -0.13936   3.08117
   D10        0.09948  -0.00077   0.00208  -0.17433  -0.17223  -0.07275
   D11       -0.01695   0.00009  -0.00009  -0.02889  -0.02899  -0.04594
   D12       -2.10003   0.00005  -0.00004  -0.03173  -0.03178  -2.13181
   D13        2.07086   0.00015  -0.00016  -0.02916  -0.02932   2.04154
   D14        3.12134   0.00014  -0.00027  -0.02656  -0.02683   3.09450
   D15        1.03826   0.00009  -0.00023  -0.02939  -0.02962   1.00864
   D16       -1.07403   0.00019  -0.00035  -0.02682  -0.02717  -1.10120
   D17       -1.07463   0.00032  -0.00022   0.02750   0.02728  -1.04735
   D18        3.10742   0.00014  -0.00015   0.02984   0.02972   3.13713
   D19        1.00901  -0.00007  -0.00016   0.02519   0.02504   1.03404
   D20        2.08578   0.00025  -0.00034  -0.00251  -0.00286   2.08292
   D21       -0.01535   0.00006  -0.00027  -0.00016  -0.00042  -0.01578
   D22       -2.11376  -0.00015  -0.00027  -0.00481  -0.00510  -2.11886
         Item               Value     Threshold  Converged?
 Maximum Force            0.005007     0.000450     NO 
 RMS     Force            0.001254     0.000300     NO 
 Maximum Displacement     0.323876     0.001800     NO 
 RMS     Displacement     0.107930     0.001200     NO 
 Predicted change in Energy=-4.280527D-04
 GradGradGradGradGradGradGradGradGradGradGradGradGradGradGradGradGradGrad

                          Input orientation:                          
 ---------------------------------------------------------------------
 Center     Atomic      Atomic             Coordinates (Angstroms)
 Number     Number       Type             X           Y           Z
 ---------------------------------------------------------------------
      1          6           0       -1.144416    2.324539    0.019827
      2          6           0       -1.114708    0.955151   -0.046302
      3          6           0        0.179486    0.327443    0.098286
      4          8           0       -0.101776    3.126217    0.194287
      5          8           0        1.259594    0.943862    0.213571
      6          1           0       -2.079362    2.866755   -0.071974
      7          6           0       -2.395686    0.189472   -0.259084
      8          6           0        0.262133   -1.206418    0.131250
      9          1           0        0.691945    2.532181    0.234440
     10          1           0       -3.233074    0.884679   -0.289289
     11          1           0       -2.578166   -0.520412    0.544159
     12          1           0       -2.383114   -0.363447   -1.195918
     13          9           0       -0.457198   -1.691915    1.170520
     14          9           0        1.522695   -1.627488    0.263484
     15          9           0       -0.242852   -1.735159   -1.007254
 ---------------------------------------------------------------------
                    Distance matrix (angstroms):
                    1          2          3          4          5
     1  C    0.000000
     2  C    1.371305   0.000000
     3  C    2.397346   1.445636   0.000000
     4  O    1.326734   2.407787   2.814509   0.000000
     5  O    2.779041   2.388508   1.248958   2.572231   0.000000
     6  H    1.084689   2.141365   3.402865   2.012228   3.863635
     7  C    2.490377   1.507463   2.603510   3.753936   3.762125
     8  C    3.802427   2.568968   1.536439   4.348347   2.371794
     9  H    1.860483   2.414505   2.267602   0.992212   1.686836
    10  H    2.555629   2.133420   3.479410   3.881155   4.521110
    11  H    3.228670   2.160472   2.919299   4.421857   4.120896
    12  H    3.199636   2.160826   2.952831   4.394875   4.118863
    13  F    4.234178   2.986626   2.373364   4.928869   3.287924
    14  F    4.774031   3.704307   2.377657   5.024083   2.585257
    15  F    4.283557   2.986860   2.378006   5.009649   3.305285
                    6          7          8          9         10
     6  H    0.000000
     7  C    2.702390   0.000000
     8  C    4.702620   3.027354   0.000000
     9  H    2.808198   3.907086   3.764639   0.000000
    10  H    2.303671   1.088780   4.094632   4.288861   0.000000
    11  H    3.478696   1.087398   2.950999   4.484181   1.760063
    12  H    3.433615   1.087903   3.077224   4.459436   1.761313
    13  F    4.995666   3.056325   1.353966   4.476579   4.058986
    14  F    5.769364   4.350648   1.335591   4.241914   5.406837
    15  F    5.042334   2.983062   1.353059   4.541568   4.039858
                   11         12         13         14         15
    11  H    0.000000
    12  H    1.757996   0.000000
    13  F    2.502649   3.327763   0.000000
    14  F    4.256930   4.356949   2.178724   0.000000
    15  F    3.055517   2.549100   2.188723   2.177963   0.000000
 Stoichiometry    C5H5F3O2
 Framework group  C1[X(C5H5F3O2)]
 Deg. of freedom    39
 Full point group                 C1      NOp   1
 Largest Abelian subgroup         C1      NOp   1
 Largest concise Abelian subgroup C1      NOp   1
                         Standard orientation:                         
 ---------------------------------------------------------------------
 Center     Atomic      Atomic             Coordinates (Angstroms)
 Number     Number       Type             X           Y           Z
 ---------------------------------------------------------------------
      1          6           0       -2.385080    0.284149   -0.025905
      2          6           0       -1.058885    0.630257    0.017602
      3          6           0       -0.106003   -0.456668    0.039412
      4          8           0       -2.876079   -0.948295   -0.040884
      5          8           0       -0.409581   -1.667325    0.084640
      6          1           0       -3.158739    1.043948   -0.052502
      7          6           0       -0.666884    2.085709    0.038633
      8          6           0        1.394616   -0.130733   -0.011117
      9          1           0       -2.091125   -1.552474    0.016572
     10          1           0       -1.560792    2.703187   -0.032721
     11          1           0       -0.016844    2.339310   -0.795375
     12          1           0       -0.147939    2.349434    0.957697
     13          9           0        1.689498    0.542845   -1.148026
     14          9           0        2.139188   -1.239021    0.022260
     15          9           0        1.748440    0.647873    1.037381
 ---------------------------------------------------------------------
 Rotational constants (GHZ):           2.1870974           0.9948067           0.7840329
 Standard basis: 6-31G(d,p) (6D, 7F)
 There are   175 symmetry adapted cartesian basis functions of A   symmetry.
 There are   175 symmetry adapted basis functions of A   symmetry.
   175 basis functions,   315 primitive gaussians,   175 cartesian basis functions
    39 alpha electrons       39 beta electrons
       nuclear repulsion energy       578.7204561009 Hartrees.
 NAtoms=   15 NActive=   15 NUniq=   15 SFac= 1.00D+00 NAtFMM=   60 NAOKFM=F Big=F
 Integral buffers will be    131072 words long.
 Raffenetti 1 integral format.
 Two-electron integral symmetry is turned on.
 One-electron integrals computed using PRISM.
 NBasis=   175 RedAO= T EigKep=  1.32D-03  NBF=   175
 NBsUse=   175 1.00D-06 EigRej= -1.00D+00 NBFU=   175
 Initial guess from the checkpoint file:  "6.chk"
 B after Tr=     0.000000    0.000000   -0.000000
         Rot=    0.999911    0.012126   -0.004981   -0.002330 Ang=   1.53 deg.
 ExpMin= 1.61D-01 ExpMax= 7.00D+03 ExpMxC= 1.05D+03 IAcc=2 IRadAn=         4 AccDes= 0.00D+00
 Harris functional with IExCor=  205 and IRadAn=       4 diagonalized for initial guess.
 HarFok:  IExCor=  205 AccDes= 0.00D+00 IRadAn=         4 IDoV= 1 UseB2=F ITyADJ=14
 ICtDFT=  3500011 ScaDFX=  1.000000  1.000000  1.000000  1.000000
 FoFCou: FMM=F IPFlag=           0 FMFlag=      100000 FMFlg1=           0
         NFxFlg=           0 DoJE=T BraDBF=F KetDBF=T FulRan=T
         wScrn=  0.000000 ICntrl=       500 IOpCl=  0 I1Cent=   200000004 NGrid=           0
         NMat0=    1 NMatS0=      1 NMatT0=    0 NMatD0=    1 NMtDS0=    0 NMtDT0=    0
 Petite list used in FoFCou.
 Requested convergence on RMS density matrix=1.00D-08 within 128 cycles.
 Requested convergence on MAX density matrix=1.00D-06.
 Requested convergence on             energy=1.00D-06.
 No special actions if energy rises.
 Integral accuracy reduced to 1.0D-05 until final iterations.
 Initial convergence to 1.0D-05 achieved.  Increase integral accuracy.
 SCF Done:  E(RHF) =  -640.285663422     A.U. after   14 cycles
            NFock= 14  Conv=0.80D-08     -V/T= 2.0027
 ExpMin= 1.61D-01 ExpMax= 7.00D+03 ExpMxC= 1.05D+03 IAcc=3 IRadAn=         5 AccDes= 0.00D+00
 HarFok:  IExCor=  205 AccDes= 0.00D+00 IRadAn=         5 IDoV=-2 UseB2=F ITyADJ=14
 ICtDFT= 12500011 ScaDFX=  1.000000  1.000000  1.000000  1.000000
 Range of M.O.s used for correlation:    11   175
 NBasis=   175 NAE=    39 NBE=    39 NFC=    10 NFV=     0
 NROrb=    165 NOA=    29 NOB=    29 NVA=   136 NVB=   136

 **** Warning!!: The largest alpha MO coefficient is  0.11025627D+02

 Fully direct method using O(ONN) memory.
 JobTyp=1 Pass  1:  I=  11 to  39 NPSUse= 28 ParTrn=T ParDer=T DoDerP=T.
 Spin components of T(2) and E(2):
     alpha-alpha T2 =       0.5968496908D-01 E2=     -0.2089653409D+00
     alpha-beta  T2 =       0.3171755487D+00 E2=     -0.1121588143D+01
     beta-beta   T2 =       0.5968496908D-01 E2=     -0.2089653409D+00
 ANorm=    0.1198559755D+01
 E2 =    -0.1539518825D+01 EUMP2 =    -0.64182518224661D+03
          IDoAtm=111111111111111
          Differentiating once with respect to electric field.
                with respect to dipole field.
          Differentiating once with respect to nuclear coordinates.
 Keep R1 ints in memory in canonical form, NReq=124631645.
          There are     1 degrees of freedom in the 1st order CPHF.  IDoFFX=0 NUNeed=     1.
 LinEq1:  Iter=  0 NonCon=     1 RMS=5.23D-03 Max=1.70D-01 NDo=     1
 AX will form     1 AO Fock derivatives at one time.
 LinEq1:  Iter=  1 NonCon=     1 RMS=2.00D-03 Max=5.00D-02 NDo=     1
 LinEq1:  Iter=  2 NonCon=     1 RMS=6.60D-04 Max=2.42D-02 NDo=     1
 LinEq1:  Iter=  3 NonCon=     1 RMS=2.94D-04 Max=8.71D-03 NDo=     1
 LinEq1:  Iter=  4 NonCon=     1 RMS=8.88D-05 Max=2.20D-03 NDo=     1
 LinEq1:  Iter=  5 NonCon=     1 RMS=2.95D-05 Max=3.45D-04 NDo=     1
 LinEq1:  Iter=  6 NonCon=     1 RMS=1.18D-05 Max=6.15D-04 NDo=     1
 LinEq1:  Iter=  7 NonCon=     1 RMS=4.03D-06 Max=7.12D-05 NDo=     1
 LinEq1:  Iter=  8 NonCon=     1 RMS=1.49D-06 Max=4.47D-05 NDo=     1
 LinEq1:  Iter=  9 NonCon=     1 RMS=3.78D-07 Max=8.18D-06 NDo=     1
 LinEq1:  Iter= 10 NonCon=     1 RMS=1.39D-07 Max=2.37D-06 NDo=     1
 LinEq1:  Iter= 11 NonCon=     1 RMS=4.24D-08 Max=7.78D-07 NDo=     1
 LinEq1:  Iter= 12 NonCon=     1 RMS=1.18D-08 Max=1.80D-07 NDo=     1
 LinEq1:  Iter= 13 NonCon=     1 RMS=3.46D-09 Max=5.89D-08 NDo=     1
 LinEq1:  Iter= 14 NonCon=     1 RMS=7.52D-10 Max=1.09D-08 NDo=     1
 LinEq1:  Iter= 15 NonCon=     1 RMS=2.64D-10 Max=6.61D-09 NDo=     1
 LinEq1:  Iter= 16 NonCon=     1 RMS=7.70D-11 Max=3.15D-09 NDo=     1
 LinEq1:  Iter= 17 NonCon=     0 RMS=2.39D-11 Max=7.35D-10 NDo=     1
 Linear equations converged to 1.000D-10 1.000D-09 after    17 iterations.
 End of Minotr F.D. properties file   721 does not exist.
 End of Minotr F.D. properties file   722 does not exist.
 End of Minotr F.D. properties file   788 does not exist.
 Symmetrizing basis deriv contribution to polar:
 IMax=3 JMax=2 DiffMx= 0.00D+00
 Calling FoFJK, ICntrl=  10002127 FMM=F ISym2X=0 I1Cent= 0 IOpClX= 0 NMat=1 NMatS=1 NMatT=0.
 ***** Axes restored to original set *****
 -------------------------------------------------------------------
 Center     Atomic                   Forces (Hartrees/Bohr)
 Number     Number              X              Y              Z
 -------------------------------------------------------------------
      1        6          -0.000347725   -0.000558771   -0.000625058
      2        6           0.000655922   -0.000111279    0.000177184
      3        6          -0.000067180    0.000539049   -0.000634455
      4        8           0.001209046   -0.000263056   -0.000731724
      5        8          -0.000971006    0.000189456    0.000970286
      6        1          -0.000049541   -0.000002192    0.000592517
      7        6           0.000655633   -0.000329894    0.000087177
      8        6          -0.000320626   -0.000053881   -0.000074201
      9        1          -0.000206700    0.000432618    0.000339203
     10        1          -0.000045217   -0.000050984    0.000047427
     11        1           0.000014161   -0.000287720    0.000294670
     12        1          -0.000011717   -0.000025255   -0.000198938
     13        9          -0.000115334    0.000158079   -0.000241914
     14        9           0.000091848    0.000197441   -0.000000714
     15        9          -0.000491564    0.000166387   -0.000001462
 -------------------------------------------------------------------
 Cartesian Forces:  Max     0.001209046 RMS     0.000420810

 GradGradGradGradGradGradGradGradGradGradGradGradGradGradGradGradGradGrad
 Berny optimization.
 Using GEDIIS/GDIIS optimizer.
 FormGI is forming the generalized inverse of G from B-inverse, IUseBI=4.
 Internal  Forces:  Max     0.002195353 RMS     0.000576093
 Search for a local minimum.
 Step number   3 out of a maximum of   68
 All quantities printed in internal units (Hartrees-Bohrs-Radians)
 Mixed Optimization -- En-DIIS/RFO-DIIS
 Update second derivatives using D2CorX and points    1    2    3
 DE= -1.95D-04 DEPred=-4.28D-04 R= 4.56D-01
 Trust test= 4.56D-01 RLast= 3.46D-01 DXMaxT set to 5.05D-01
 ITU=  0  1  0
 Use linear search instead of GDIIS.
     Eigenvalues ---    0.00018   0.00610   0.00785   0.01301   0.02149
     Eigenvalues ---    0.03479   0.03842   0.06028   0.06371   0.06535
     Eigenvalues ---    0.10842   0.12225   0.12921   0.13305   0.14824
     Eigenvalues ---    0.16130   0.17533   0.17719   0.19694   0.21687
     Eigenvalues ---    0.22034   0.22553   0.24691   0.27013   0.32311
     Eigenvalues ---    0.34494   0.34867   0.34966   0.34992   0.35187
     Eigenvalues ---    0.36011   0.36216   0.38059   0.47755   0.48869
     Eigenvalues ---    0.51352   0.57746   0.75658   0.86011
 RFO step:  Lambda=-5.53206446D-05 EMin= 1.77887735D-04
 Quartic linear search produced a step of -0.33734.
 Iteration  1 RMS(Cart)=  0.03702877 RMS(Int)=  0.00054331
 Iteration  2 RMS(Cart)=  0.00077561 RMS(Int)=  0.00001110
 Iteration  3 RMS(Cart)=  0.00000029 RMS(Int)=  0.00001110
 Variable       Old X    -DE/DX   Delta X   Delta X   Delta X     New X
                                 (Linear)    (Quad)   (Total)
    R1        2.59139  -0.00042  -0.00200   0.00133  -0.00068   2.59072
    R2        2.50716   0.00084  -0.00163   0.00422   0.00258   2.50975
    R3        2.04976  -0.00001  -0.00011   0.00001  -0.00010   2.04966
    R4        2.73186  -0.00220  -0.00588   0.00420  -0.00169   2.73017
    R5        2.84869  -0.00020  -0.00016  -0.00025  -0.00041   2.84829
    R6        2.36019  -0.00066  -0.00064  -0.00067  -0.00131   2.35888
    R7        2.90345  -0.00052  -0.00202   0.00202  -0.00000   2.90345
    R8        1.87501  -0.00041  -0.00204   0.00035  -0.00170   1.87331
    R9        2.05750   0.00000   0.00022  -0.00021   0.00001   2.05750
   R10        2.05488   0.00040   0.00035   0.00033   0.00068   2.05557
   R11        2.05584   0.00018   0.00016  -0.00010   0.00006   2.05590
   R12        2.55863  -0.00018  -0.00043  -0.00029  -0.00072   2.55790
   R13        2.52390   0.00002  -0.00044   0.00019  -0.00025   2.52365
   R14        2.55691   0.00012  -0.00009   0.00046   0.00038   2.55729
    A1        2.20523  -0.00046  -0.00097   0.00075  -0.00022   2.20501
    A2        2.11037   0.00027   0.00201  -0.00122   0.00079   2.11116
    A3        1.96758   0.00019  -0.00104   0.00047  -0.00057   1.96701
    A4        2.03552  -0.00048   0.00255  -0.00421  -0.00166   2.03386
    A5        2.08934   0.00164   0.00174   0.00256   0.00431   2.09364
    A6        2.15833  -0.00116  -0.00430   0.00165  -0.00265   2.15568
    A7        2.17626   0.00004   0.00033   0.00043   0.00081   2.17707
    A8        2.07577  -0.00145   0.00042  -0.00494  -0.00447   2.07130
    A9        2.03110   0.00141  -0.00079   0.00444   0.00370   2.03480
   A10        1.84649   0.00050  -0.00065   0.00353   0.00288   1.84937
   A11        1.91044   0.00011   0.00138  -0.00147  -0.00008   1.91036
   A12        1.94972  -0.00010  -0.00136   0.00062  -0.00074   1.94899
   A13        1.94968  -0.00003   0.00060   0.00009   0.00069   1.95036
   A14        1.88417  -0.00000  -0.00080   0.00069  -0.00011   1.88406
   A15        1.88549  -0.00003  -0.00095   0.00088  -0.00007   1.88542
   A16        1.88205   0.00005   0.00106  -0.00076   0.00030   1.88235
   A17        1.92395  -0.00016   0.00235  -0.00156   0.00079   1.92474
   A18        1.94726  -0.00013  -0.00221   0.00279   0.00058   1.94784
   A19        1.93049  -0.00041  -0.00082  -0.00217  -0.00298   1.92751
   A20        1.88850   0.00031   0.00056   0.00048   0.00103   1.88954
   A21        1.88332  -0.00006  -0.00018  -0.00027  -0.00045   1.88287
   A22        1.88847   0.00048   0.00035   0.00072   0.00108   1.88955
    D1        0.00836   0.00041  -0.01051   0.00541  -0.00511   0.00325
    D2       -3.13430   0.00042  -0.01120   0.00963  -0.00157  -3.13587
    D3       -3.13298   0.00038  -0.01059   0.00587  -0.00473  -3.13770
    D4        0.00755   0.00040  -0.01128   0.01010  -0.00118   0.00637
    D5        0.03233  -0.00030  -0.02426  -0.00454  -0.02880   0.00353
    D6       -3.10950  -0.00028  -0.02419  -0.00497  -0.02916  -3.13866
    D7       -0.06154   0.00077   0.04630   0.01122   0.05753  -0.00402
    D8        3.06772   0.00053   0.05739   0.00468   0.06206   3.12978
    D9        3.08117   0.00076   0.04701   0.00681   0.05384   3.13500
   D10       -0.07275   0.00051   0.05810   0.00028   0.05837  -0.01438
   D11       -0.04594  -0.00007   0.00978  -0.01034  -0.00056  -0.04650
   D12       -2.13181  -0.00008   0.01072  -0.01064   0.00008  -2.13172
   D13        2.04154  -0.00005   0.00989  -0.01016  -0.00027   2.04127
   D14        3.09450  -0.00006   0.00905  -0.00581   0.00324   3.09774
   D15        1.00864  -0.00007   0.00999  -0.00610   0.00389   1.01253
   D16       -1.10120  -0.00004   0.00916  -0.00563   0.00353  -1.09767
   D17       -1.04735   0.00024  -0.00920  -0.00344  -0.01265  -1.06000
   D18        3.13713   0.00004  -0.01002  -0.00483  -0.01487   3.12226
   D19        1.03404  -0.00019  -0.00845  -0.00614  -0.01459   1.01945
   D20        2.08292   0.00001   0.00096  -0.00946  -0.00849   2.07443
   D21       -0.01578  -0.00019   0.00014  -0.01086  -0.01071  -0.02649
   D22       -2.11886  -0.00043   0.00172  -0.01217  -0.01044  -2.12930
         Item               Value     Threshold  Converged?
 Maximum Force            0.002195     0.000450     NO 
 RMS     Force            0.000576     0.000300     NO 
 Maximum Displacement     0.134980     0.001800     NO 
 RMS     Displacement     0.037030     0.001200     NO 
 Predicted change in Energy=-1.024820D-04
 GradGradGradGradGradGradGradGradGradGradGradGradGradGradGradGradGradGrad

                          Input orientation:                          
 ---------------------------------------------------------------------
 Center     Atomic      Atomic             Coordinates (Angstroms)
 Number     Number       Type             X           Y           Z
 ---------------------------------------------------------------------
      1          6           0       -1.140517    2.326127   -0.004591
      2          6           0       -1.115408    0.955777   -0.036362
      3          6           0        0.176714    0.330065    0.125470
      4          8           0       -0.094800    3.128854    0.156521
      5          8           0        1.250454    0.946346    0.284999
      6          1           0       -2.072473    2.869853   -0.115285
      7          6           0       -2.394642    0.183987   -0.235609
      8          6           0        0.259661   -1.204087    0.113524
[...]
 LinEq1:  Iter=  5 NonCon=     1 RMS=2.94D-05 Max=3.44D-04 NDo=     1
 LinEq1:  Iter=  6 NonCon=     1 RMS=1.18D-05 Max=6.14D-04 NDo=     1
 LinEq1:  Iter=  7 NonCon=     1 RMS=4.03D-06 Max=6.98D-05 NDo=     1
 LinEq1:  Iter=  8 NonCon=     1 RMS=1.49D-06 Max=4.47D-05 NDo=     1
 LinEq1:  Iter=  9 NonCon=     1 RMS=3.77D-07 Max=8.12D-06 NDo=     1
 LinEq1:  Iter= 10 NonCon=     1 RMS=1.39D-07 Max=2.40D-06 NDo=     1
 LinEq1:  Iter= 11 NonCon=     1 RMS=4.25D-08 Max=7.79D-07 NDo=     1
 LinEq1:  Iter= 12 NonCon=     1 RMS=1.18D-08 Max=1.81D-07 NDo=     1
 LinEq1:  Iter= 13 NonCon=     1 RMS=3.43D-09 Max=5.74D-08 NDo=     1
 LinEq1:  Iter= 14 NonCon=     1 RMS=7.41D-10 Max=1.27D-08 NDo=     1
 LinEq1:  Iter= 15 NonCon=     1 RMS=2.65D-10 Max=7.50D-09 NDo=     1
 LinEq1:  Iter= 16 NonCon=     1 RMS=8.00D-11 Max=3.29D-09 NDo=     1
 LinEq1:  Iter= 17 NonCon=     0 RMS=2.46D-11 Max=7.23D-10 NDo=     1
 Linear equations converged to 1.000D-10 1.000D-09 after    17 iterations.
 End of Minotr F.D. properties file   721 does not exist.
 End of Minotr F.D. properties file   722 does not exist.
 End of Minotr F.D. properties file   788 does not exist.
 Symmetrizing basis deriv contribution to polar:
 IMax=3 JMax=2 DiffMx= 0.00D+00
 G2DrvN: will do    16 centers at a time, making    1 passes.
 Calling FoFCou, ICntrl=  3107 FMM=F I1Cent=   0 AccDes= 0.00D+00.
 End of G2Drv F.D. properties file   721 does not exist.
 End of G2Drv F.D. properties file   722 does not exist.
 End of G2Drv F.D. properties file   788 does not exist.
 R2 and R3 integrals will be kept in memory, NReq=   239901200.
 DD1Dir will call FoFMem   1 times, MxPair=      1560
 NAB=   780 NAA=     0 NBB=     0.
 Discarding MO integrals.

 **********************************************************************

            Population analysis using the MP2 density.

 **********************************************************************

 Alpha  occ. eigenvalues --  -26.35844 -26.35816 -26.35307 -20.62237 -20.59591
 Alpha  occ. eigenvalues --  -11.53002 -11.38441 -11.35971 -11.25912 -11.24673
 Alpha  occ. eigenvalues --   -1.73513  -1.64274  -1.64139  -1.44747  -1.40710
 Alpha  occ. eigenvalues --   -1.12078  -1.02405  -0.95472  -0.91101  -0.86413
 Alpha  occ. eigenvalues --   -0.82880  -0.82620  -0.76605  -0.71736  -0.71625
 Alpha  occ. eigenvalues --   -0.69276  -0.68443  -0.67122  -0.66823  -0.65585
 Alpha  occ. eigenvalues --   -0.62514  -0.62090  -0.61484  -0.57962  -0.56894
 Alpha  occ. eigenvalues --   -0.55319  -0.55135  -0.45922  -0.36236
 Alpha virt. eigenvalues --    0.06315   0.21376   0.23396   0.26022   0.27941
 Alpha virt. eigenvalues --    0.31165   0.33178   0.36303   0.38955   0.41068
 Alpha virt. eigenvalues --    0.42464   0.42686   0.47541   0.51504   0.57924
 Alpha virt. eigenvalues --    0.61418   0.67436   0.68797   0.70420   0.72015
 Alpha virt. eigenvalues --    0.72880   0.77597   0.79192   0.81129   0.85801
 Alpha virt. eigenvalues --    0.87109   0.88737   0.91297   0.96148   0.96909
 Alpha virt. eigenvalues --    0.98356   1.04288   1.09363   1.10512   1.11526
 Alpha virt. eigenvalues --    1.12859   1.17671   1.20756   1.23159   1.24104
 Alpha virt. eigenvalues --    1.26195   1.31521   1.32681   1.35521   1.37069
 Alpha virt. eigenvalues --    1.38783   1.40119   1.44796   1.47071   1.51826
 Alpha virt. eigenvalues --    1.53892   1.57715   1.61544   1.62126   1.62532
 Alpha virt. eigenvalues --    1.65808   1.67353   1.67729   1.69435   1.71231
 Alpha virt. eigenvalues --    1.76443   1.81881   1.82443   1.89710   1.91481
 Alpha virt. eigenvalues --    1.92965   1.93785   1.97174   1.99330   2.04815
 Alpha virt. eigenvalues --    2.06566   2.07779   2.08470   2.10126   2.10830
 Alpha virt. eigenvalues --    2.13269   2.15696   2.19067   2.23131   2.25057
 Alpha virt. eigenvalues --    2.27775   2.30563   2.32285   2.33147   2.34650
 Alpha virt. eigenvalues --    2.35392   2.35600   2.37815   2.42775   2.44126
 Alpha virt. eigenvalues --    2.46050   2.48288   2.49638   2.55524   2.62828
 Alpha virt. eigenvalues --    2.69435   2.71090   2.72100   2.75275   2.75915
 Alpha virt. eigenvalues --    2.76198   2.82650   2.88338   2.93684   2.95607
 Alpha virt. eigenvalues --    2.98878   2.99761   3.02899   3.05851   3.08722
 Alpha virt. eigenvalues --    3.16567   3.17528   3.21480   3.21940   3.27050
 Alpha virt. eigenvalues --    3.34651   3.37832   3.41545   3.45968   3.48927
 Alpha virt. eigenvalues --    3.54458   3.56630   3.80035   3.81325   3.86348
 Alpha virt. eigenvalues --    3.93745   4.34544   4.47557   4.57538   4.73293
 Alpha virt. eigenvalues --    4.74713   4.80067   4.94456   5.06865   5.39546
 Alpha virt. eigenvalues --    5.90562
          Condensed to atoms (all electrons):
               1          2          3          4          5          6
     1  C    4.753418   0.439717  -0.029583   0.317145  -0.006652   0.400245
     2  C    0.439717   5.499887   0.239279  -0.046875  -0.076060  -0.064381
     3  C   -0.029583   0.239279   4.968645  -0.009281   0.435230   0.002816
     4  O    0.317145  -0.046875  -0.009281   8.032183  -0.034316  -0.037618
     5  O   -0.006652  -0.076060   0.435230  -0.034316   8.149663  -0.000185
     6  H    0.400245  -0.064381   0.002816  -0.037618  -0.000185   0.546991
     7  C   -0.037824   0.279224  -0.037236   0.002733   0.002933  -0.001866
     8  C    0.003070  -0.077067   0.290405  -0.000085  -0.050602  -0.000083
     9  H   -0.032128  -0.011891  -0.006181   0.277644   0.065749   0.004148
    10  H   -0.005609  -0.036584   0.002918   0.000055  -0.000052   0.003493
    11  H    0.000925  -0.035582  -0.005545  -0.000034   0.000014   0.000002
    12  H   -0.000997  -0.037452  -0.002633  -0.000020   0.000003   0.000092
    13  F    0.000085   0.006135  -0.043606   0.000000   0.000213   0.000000
    14  F   -0.000036   0.002936  -0.031088   0.000000  -0.001771   0.000000
    15  F    0.000051   0.000442  -0.037975   0.000000   0.000528   0.000000
               7          8          9         10         11         12
     1  C   -0.037824   0.003070  -0.032128  -0.005609   0.000925  -0.000997
     2  C    0.279224  -0.077067  -0.011891  -0.036584  -0.035582  -0.037452
     3  C   -0.037236   0.290405  -0.006181   0.002918  -0.005545  -0.002633
     4  O    0.002733  -0.000085   0.277644   0.000055  -0.000034  -0.000020
     5  O    0.002933  -0.050602   0.065749  -0.000052   0.000014   0.000003
     6  H   -0.001866  -0.000083   0.004148   0.003493   0.000002   0.000092
     7  C    5.042975  -0.000239   0.000054   0.372184   0.377273   0.380042
     8  C   -0.000239   4.125055   0.001119  -0.000087   0.001691  -0.000127
     9  H    0.000054   0.001119   0.316935  -0.000014   0.000001  -0.000001
    10  H    0.372184  -0.000087  -0.000014   0.593033  -0.024942  -0.026147
    11  H    0.377273   0.001691   0.000001  -0.024942   0.569092  -0.033528
    12  H    0.380042  -0.000127  -0.000001  -0.026147  -0.033528   0.571757
    13  F   -0.004539   0.259293  -0.000019   0.000068   0.007265   0.000001
    14  F    0.000027   0.297148  -0.000003   0.000000   0.000024   0.000009
    15  F    0.003019   0.254542  -0.000015   0.000192  -0.001008   0.002887
              13         14         15
     1  C    0.000085  -0.000036   0.000051
     2  C    0.006135   0.002936   0.000442
     3  C   -0.043606  -0.031088  -0.037975
     4  O    0.000000   0.000000   0.000000
     5  O    0.000213  -0.001771   0.000528
     6  H    0.000000   0.000000   0.000000
     7  C   -0.004539   0.000027   0.003019
     8  C    0.259293   0.297148   0.254542
     9  H   -0.000019  -0.000003  -0.000015
    10  H    0.000068   0.000000   0.000192
    11  H    0.007265   0.000024  -0.001008
    12  H    0.000001   0.000009   0.002887
    13  F    9.135861  -0.035298  -0.034615
    14  F   -0.035298   9.073329  -0.035084
    15  F   -0.034615  -0.035084   9.140153
 Mulliken charges:
               1
     1  C    0.198173
     2  C   -0.081728
     3  C    0.263834
     4  O   -0.501531
     5  O   -0.484695
     6  H    0.146345
     7  C   -0.378762
     8  C    0.895968
     9  H    0.384602
    10  H    0.121492
    11  H    0.144351
    12  H    0.146111
    13  F   -0.290845
    14  F   -0.270195
    15  F   -0.293120
 Sum of Mulliken charges =  -0.00000
 Mulliken charges with hydrogens summed into heavy atoms:
               1
     1  C    0.344518
     2  C   -0.081728
     3  C    0.263834
     4  O   -0.116929
     5  O   -0.484695
     7  C    0.033192
     8  C    0.895968
    13  F   -0.290845
    14  F   -0.270195
    15  F   -0.293120
 APT charges:
               1
     1  C    0.637898
     2  C   -0.547761
     3  C    0.658097
     4  O   -0.661143
     5  O   -0.557172
     6  H    0.039711
     7  C    0.112919
     8  C    1.544671
     9  H    0.344976
    10  H   -0.001762
    11  H    0.010579
    12  H   -0.001155
    13  F   -0.534959
    14  F   -0.511634
    15  F   -0.533266
 Sum of APT charges =  -0.00000
 APT charges with hydrogens summed into heavy atoms:
               1
     1  C    0.677609
     2  C   -0.547761
     3  C    0.658097
     4  O   -0.316166
     5  O   -0.557172
     7  C    0.120581
     8  C    1.544671
    13  F   -0.534959
    14  F   -0.511634
    15  F   -0.533266
 Electronic spatial extent (au):  <R**2>=           1405.4783
 Charge=             -0.0000 electrons
 Dipole moment (field-independent basis, Debye):
    X=             -1.2588    Y=              2.2300    Z=              0.0349  Tot=              2.5610
 Quadrupole moment (field-independent basis, Debye-Ang):
   XX=            -57.9578   YY=            -55.9042   ZZ=            -55.9128
   XY=             -3.2626   XZ=              0.0313   YZ=              0.0143
 Traceless Quadrupole moment (field-independent basis, Debye-Ang):
   XX=             -1.3662   YY=              0.6874   ZZ=              0.6788
   XY=             -3.2626   XZ=              0.0313   YZ=              0.0143
 Octapole moment (field-independent basis, Debye-Ang**2):
  XXX=             32.2589  YYY=             -2.9526  ZZZ=              0.3964  XYY=              3.4877
  XXY=              9.2078  XXZ=             -0.3403  XZZ=              9.6909  YZZ=             -4.7450
  YYZ=             -0.4637  XYZ=              0.2629
 Hexadecapole moment (field-independent basis, Debye-Ang**3):
 XXXX=          -1013.9276 YYYY=           -479.4818 ZZZZ=           -119.3828 XXXY=            -38.1904
 XXXZ=              0.1496 YYYX=             12.4078 YYYZ=              0.0646 ZZZX=              0.1601
 ZZZY=              0.6157 XXYY=           -234.7276 XXZZ=           -187.9648 YYZZ=            -98.2561
 XXYZ=             -1.4507 YYXZ=             -0.0820 ZZXY=              3.4156
 N-N= 5.791377897532D+02 E-N=-2.673435562122D+03  KE= 6.397128206662D+02
  Exact polarizability:  75.745  -0.985  65.173   0.646  -0.097  35.659
 Approx polarizability:  59.569   0.378  56.777   0.510  -0.105  36.780
 Calling FoFJK, ICntrl=  10100127 FMM=F ISym2X=0 I1Cent= 0 IOpClX= 0 NMat=1 NMatS=1 NMatT=0.
 -------------------------------------------------------------------
 Center     Atomic                   Forces (Hartrees/Bohr)
 Number     Number              X              Y              Z
 -------------------------------------------------------------------
      1        6          -0.001112595    0.000475369   -0.000006441
      2        6           0.000190817   -0.000585732    0.000006015
      3        6           0.001226264   -0.000254235   -0.000003222
      4        8          -0.000173127   -0.000481826   -0.000000971
      5        8          -0.000329843    0.000140794    0.000004689
      6        1          -0.000111430    0.000029933   -0.000010806
      7        6           0.000653575    0.000237829    0.000017814
      8        6           0.000610203    0.000190917   -0.000050471
      9        1           0.000125513    0.000120853   -0.000005066
     10        1          -0.000082701   -0.000167469    0.000003833
     11        1          -0.000028156    0.000214193   -0.000022359
     12        1          -0.000053891    0.000161397    0.000012537
     13        9          -0.000209830   -0.000255092    0.000391585
     14        9          -0.000511417    0.000468973   -0.000039178
     15        9          -0.000193381   -0.000295904   -0.000297960
 -------------------------------------------------------------------
 Cartesian Forces:  Max     0.001226264 RMS     0.000359386
 NDeriv=     39 NFrqRd=  0 NDerD0=      0 MskFDP=       0 MskDFD=       0 MskDF0=       0
 Re-enter D2Numr:  normal mode  20 step-up   number 1
 Standard basis: 6-31G(d,p) (6D, 7F)
   175 basis functions,   315 primitive gaussians,   175 cartesian basis functions
    39 alpha electrons       39 beta electrons
       nuclear repulsion energy       579.1579910597 Hartrees.
 NAtoms=   15 NActive=   15 NUniq=   15 SFac= 1.00D+00 NAtFMM=   60 NAOKFM=F Big=F
 Integral buffers will be    131072 words long.
 Raffenetti 1 integral format.
 Two-electron integral symmetry is turned off.
 One-electron integrals computed using PRISM.
 NBasis=   175 RedAO= T EigKep=  1.32D-03  NBF=   175
 NBsUse=   175 1.00D-06 EigRej= -1.00D+00 NBFU=   175
 Initial guess from the checkpoint file:  "6.chk"
 B after Tr=    -0.000016    0.000056   -0.000003
         Rot=    1.000000    0.000001    0.000000   -0.000006 Ang=   0.00 deg.
 Requested convergence on RMS density matrix=1.00D-08 within 128 cycles.
 Requested convergence on MAX density matrix=1.00D-06.
 Requested convergence on             energy=1.00D-06.
 No special actions if energy rises.
 SCF Done:  E(RHF) =  -640.285677338     A.U. after    9 cycles
            NFock=  9  Conv=0.64D-08     -V/T= 2.0027
 ExpMin= 1.61D-01 ExpMax= 7.00D+03 ExpMxC= 1.05D+03 IAcc=3 IRadAn=         5 AccDes= 0.00D+00
 HarFok:  IExCor=  205 AccDes= 0.00D+00 IRadAn=         5 IDoV=-2 UseB2=F ITyADJ=14
 ICtDFT= 12500011 ScaDFX=  1.000000  1.000000  1.000000  1.000000
 Range of M.O.s used for correlation:    11   175
 NBasis=   175 NAE=    39 NBE=    39 NFC=    10 NFV=     0
 NROrb=    165 NOA=    29 NOB=    29 NVA=   136 NVB=   136

 **** Warning!!: The largest alpha MO coefficient is  0.10894190D+02

 Disk-based method using ON**2 memory for 29 occupieds at a time.
 Permanent disk used for amplitudes=    34934796 words.
 Estimated scratch disk usage=   287259766 words.
 Actual    scratch disk usage=   269433974 words.
 JobTyp=1 Pass  1:  I=  11 to  39 NPSUse= 28 ParTrn=T ParDer=T DoDerP=T.
 (rs|ai) integrals will be sorted in core.
 Spin components of T(2) and E(2):
     alpha-alpha T2 =       0.5969489365D-01 E2=     -0.2090076199D+00
     alpha-beta  T2 =       0.3171438023D+00 E2=     -0.1121600902D+01
     beta-beta   T2 =       0.5969489365D-01 E2=     -0.2090076199D+00
 ANorm=    0.1198554792D+01
 E2 =    -0.1539616142D+01 EUMP2 =    -0.64182529347982D+03
 G2DrvN: will do    16 centers at a time, making    1 passes.
 Calling FoFCou, ICntrl=  3107 FMM=F I1Cent=   0 AccDes= 0.00D+00.
 End of G2Drv F.D. properties file   721 does not exist.
 End of G2Drv F.D. properties file   722 does not exist.
 End of G2Drv F.D. properties file   788 does not exist.
          IDoAtm=111111111111111
          Differentiating once with respect to electric field.
                with respect to dipole field.
          Differentiating once with respect to nuclear coordinates.
 Keep R1 ints in memory in canonical form, NReq=124621995.
          There are    48 degrees of freedom in the 1st order CPHF.  IDoFFX=6 NUNeed=    48.
     45 vectors produced by pass  0 Test12= 1.11D-14 2.08D-09 XBig12= 1.99D+01 2.96D+00.
 AX will form    45 AO Fock derivatives at one time.
     45 vectors produced by pass  1 Test12= 1.11D-14 2.08D-09 XBig12= 1.08D+00 2.39D-01.
     45 vectors produced by pass  2 Test12= 1.11D-14 2.08D-09 XBig12= 3.78D-02 3.95D-02.
     45 vectors produced by pass  3 Test12= 1.11D-14 2.08D-09 XBig12= 5.89D-04 3.51D-03.
     45 vectors produced by pass  4 Test12= 1.11D-14 2.08D-09 XBig12= 6.20D-06 3.97D-04.
     45 vectors produced by pass  5 Test12= 1.11D-14 2.08D-09 XBig12= 3.44D-08 2.27D-05.
     42 vectors produced by pass  6 Test12= 1.11D-14 2.08D-09 XBig12= 1.77D-10 2.65D-06.
     10 vectors produced by pass  7 Test12= 1.11D-14 2.08D-09 XBig12= 9.66D-13 1.07D-07.
      3 vectors produced by pass  8 Test12= 1.11D-14 2.08D-09 XBig12= 4.98D-15 8.90D-09.
 InvSVY:  IOpt=1 It=  1 EMax= 3.55D-15
 Solved reduced A of dimension   325 with    48 vectors.
 End of Minotr F.D. properties file   721 does not exist.
 End of Minotr F.D. properties file   722 does not exist.
 End of Minotr F.D. properties file   788 does not exist.
 MDV=  5502926848.
 Form MO integral derivatives with frozen-active canonical formalism.
 Discarding MO integrals.
 Reordered first order wavefunction length =     56264832
 In DefCFB: NBatch=  1 ICI= 39 ICA=136 LFMax= 68
            Large arrays: LIAPS=   649740000 LIARS=    97461000 words.
 Semi-Direct transformation.
 ModeAB=           4 MOrb=            39 LenV=    5502110932
 LASXX=     87830691 LTotXX=    87830691 LenRXX=   177387171
 LTotAB=    89556480 MaxLAS=    98778225 LenRXY=           0
 NonZer=   265217862 LenScr=   397934592 LnRSAI=    98778225
 LnScr1=   148373504 LExtra=           0 Total=    822473492
 MaxDsk=          -1 SrtSym=           T ITran=            4
 JobTyp=0 Pass  1:  I=   1 to  39.
 (rs|ai) integrals will be sorted in core.
 Spin components of T(2) and E(2):
     alpha-alpha T2 =       0.5969489365D-01 E2=     -0.2090076199D+00
     alpha-beta  T2 =       0.3171438023D+00 E2=     -0.1121600902D+01
     beta-beta   T2 =       0.5969489365D-01 E2=     -0.2090076199D+00
 ANorm=    0.1695012442D+01
 E2 =    -0.1539616142D+01 EUMP2 =    -0.64182529347982D+03
          IDoAtm=111111111111111
          Differentiating once with respect to electric field.
                with respect to dipole field.
          Differentiating once with respect to nuclear coordinates.
          There are     1 degrees of freedom in the 1st order CPHF.  IDoFFX=0 NUNeed=     1.
 LinEq1:  Iter=  0 NonCon=     1 RMS=5.23D-03 Max=1.67D-01 NDo=     1
 LinEq1:  Iter=  1 NonCon=     1 RMS=2.00D-03 Max=4.96D-02 NDo=     1
 LinEq1:  Iter=  2 NonCon=     1 RMS=6.61D-04 Max=2.37D-02 NDo=     1
 LinEq1:  Iter=  3 NonCon=     1 RMS=2.94D-04 Max=8.66D-03 NDo=     1
 LinEq1:  Iter=  4 NonCon=     1 RMS=8.87D-05 Max=2.13D-03 NDo=     1
 LinEq1:  Iter=  5 NonCon=     1 RMS=2.94D-05 Max=3.42D-04 NDo=     1
 LinEq1:  Iter=  6 NonCon=     1 RMS=1.18D-05 Max=6.17D-04 NDo=     1
 LinEq1:  Iter=  7 NonCon=     1 RMS=4.05D-06 Max=7.00D-05 NDo=     1
 LinEq1:  Iter=  8 NonCon=     1 RMS=1.50D-06 Max=4.45D-05 NDo=     1
 LinEq1:  Iter=  9 NonCon=     1 RMS=3.79D-07 Max=8.17D-06 NDo=     1
 LinEq1:  Iter= 10 NonCon=     1 RMS=1.39D-07 Max=2.40D-06 NDo=     1
 LinEq1:  Iter= 11 NonCon=     1 RMS=4.26D-08 Max=7.84D-07 NDo=     1
 LinEq1:  Iter= 12 NonCon=     1 RMS=1.18D-08 Max=1.80D-07 NDo=     1
 LinEq1:  Iter= 13 NonCon=     1 RMS=3.46D-09 Max=5.84D-08 NDo=     1
 LinEq1:  Iter= 14 NonCon=     1 RMS=7.52D-10 Max=1.21D-08 NDo=     1
 LinEq1:  Iter= 15 NonCon=     1 RMS=2.67D-10 Max=7.24D-09 NDo=     1
 LinEq1:  Iter= 16 NonCon=     1 RMS=7.87D-11 Max=3.23D-09 NDo=     1
 LinEq1:  Iter= 17 NonCon=     0 RMS=2.47D-11 Max=7.52D-10 NDo=     1
 Linear equations converged to 1.000D-10 1.000D-09 after    17 iterations.
 End of Minotr F.D. properties file   721 does not exist.
 End of Minotr F.D. properties file   722 does not exist.
 End of Minotr F.D. properties file   788 does not exist.
 Symmetrizing basis deriv contribution to polar:
 IMax=3 JMax=2 DiffMx= 0.00D+00
 G2DrvN: will do    16 centers at a time, making    1 passes.
 Calling FoFCou, ICntrl=  3107 FMM=F I1Cent=   0 AccDes= 0.00D+00.
 End of G2Drv F.D. properties file   721 does not exist.
 End of G2Drv F.D. properties file   722 does not exist.
 End of G2Drv F.D. properties file   788 does not exist.
