 argument  1 = 6C.nw
 


============================== echo of input deck ==============================
echo
start 6C
title "MeR,H,Me Chelate"
charge 0

geometry
 zmatrix
  O
  C  1  R1
  C  2  R2  1  A1
  C  3  R3  2  A2  1  D0
  O  4  R4  3  A3  2  D0
  H  1  R5  2  A4  3  D0
  C  2  R6  3  A5  4  D180
  H  3  R7  2  A6  1  D180
  C  4  R8  3  A7  2  D180
  F  7  R9  2  A8  1  D1
  F  7  R10 2  A9  1  D2
  F  7  R11 2  A10 1  D3
  H  9  R12 4  A11 5  D4
  H  9  R13 4  A12 5  D5
  H  9  R14 4  A13 5  D6
  variables
    R1  1.329
    R2  1.363
    A1  124.5
    R3  1.440
    A2  119.5
    R4  1.249
    A3  123.5
    R5  0.994
    A4  105.4
    R6  1.485
    A5  122.5
    R7  1.078
    A6  120.0
    R8  1.499
    A7  117.6
    R9  1.350
    A8  110.0
    D1  180.0
    R10 1.350
    A9  110.0
    D2  60.00
    R11 1.350
    A10 110.0
    D3  -60.0
    R12 1.100
    A11 110.0
    D4  0.000
    R13 1.100
    A12 110.0
    D5  120.0
    R14 1.100
    A13 110.0
    D6  -120.
  constants
    D0  0.000
    D180 180.0
 end
end

basis spherical
 * library aug-cc-pVDZ
end

set lindep:n_dep 0

set cphf:maxsub 95
set cphf:maxiter 999
set int:acc_std 1d-16
set fock:densityscreen f

scf
 maxiter 99
 vectors input atomic
 thresh 1d-9
 tol2e 1d-15
end

mp2
 freeze atomic
 tight
end

driver
 clear
 maxiter 99
 tight
end

set "mp2:aotol2e fock" 1d-15
set mp2:aotol2e 1d-15
set mp2:backtol 1d-15


task mp2 optimize
task mp2 frequencies


================================================================================


                                         
                                         
 
 
             Northwest Computational Chemistry Package (NWChem) 7.0.0
             --------------------------------------------------------
 
 
                    Environmental Molecular Sciences Laboratory
                       Pacific Northwest National Laboratory
                                Richland, WA 99352
 
                              Copyright (c) 1994-2020
                       Pacific Northwest National Laboratory
                            Battelle Memorial Institute
 
             NWChem is an open-source computational chemistry package
                        distributed under the terms of the
                      Educational Community License (ECL) 2.0
             A copy of the license is included with this distribution
                              in the LICENSE.TXT file
 
                                  ACKNOWLEDGMENT
                                  --------------

            This software and its documentation were developed at the
            EMSL at Pacific Northwest National Laboratory, a multiprogram
            national laboratory, operated for the U.S. Department of Energy
            by Battelle under Contract Number DE-AC05-76RL01830. Support
            for this work was provided by the Department of Energy Office
            of Biological and Environmental Research, Office of Basic
            Energy Sciences, and the Office of Advanced Scientific Computing.


           Job information
           ---------------

    hostname        = compute-0-8.local
    program         = /scratch/nwchem.277679
    date            = Sun Mar 28 18:07:58 2021

    compiled        = Thu_Jun_25_16:07:03_2020
    source          = /home/edo/nwchem-7.0.1
    nwchem branch   = 7.0.1
    nwchem revision = de46fdf
    ga revision     = 5.7.1
    use scalapack   = T
    input           = 6C.nw
    prefix          = 6C.
    data base       = ./6C.db
    status          = startup
    nproc           =       11
    time left       =     -1s



           Memory information
           ------------------

    heap     =   13107194 doubles =    100.0 Mbytes
    stack    =   13107199 doubles =    100.0 Mbytes
    global   =   26214400 doubles =    200.0 Mbytes (distinct from heap & stack)
    total    =   52428793 doubles =    400.0 Mbytes
    verify   = yes
    hardfail = no 


           Directory information
           ---------------------
 
  0 permanent = .
  0 scratch   = /scratch
 
 
 
 
                                NWChem Input Module
                                -------------------
 
 
                                 MeR,H,Me Chelate
                                 ----------------

 Scaling coordinates for geometry "geometry" by  1.889725989
 (inverse scale =  0.529177249)

 CS  symmetry detected
 
 
                             Geometry "geometry" -> ""
                             -------------------------
 
 Output coordinates in angstroms (scale by  1.889725989 to convert to a.u.)
 
  No.       Tag          Charge          X              Y              Z
 ---- ---------------- ---------- -------------- -------------- --------------
    1 O                    8.0000    -1.60794049    -0.10348535     0.00000000
    2 C                    6.0000    -0.28587677    -0.23908962     0.00000000
    3 C                    6.0000     0.59671974     0.79955970     0.00000000
    4 C                    6.0000     0.10081983     2.15147807     0.00000000
    5 O                    8.0000    -1.11439737     2.44000562     0.00000000
    6 H                    1.0000    -1.77274454     0.87675728     0.00000000
    7 C                    6.0000     0.15185415    -1.65810922     0.00000000
    8 H                    1.0000     1.65715771     0.60576778     0.00000000
    9 C                    6.0000     1.10882076     3.26095323     0.00000000
   10 F                    9.0000     1.50017692    -1.72538265     0.00000000
   11 F                    9.0000    -0.31815342    -2.28629063    -1.09862687
   12 F                    9.0000    -0.31815342    -2.28629063     1.09862687
   13 H                    1.0000     0.59675278     4.23449645     0.00000000
   14 H                    1.0000     1.74434002     3.19186922     0.89517745
   15 H                    1.0000     1.74434002     3.19186922    -0.89517745
 
      Atomic Mass 
      ----------- 
 
      O                 15.994910
      C                 12.000000
      H                  1.007825
      F                 18.998400
 

 Effective nuclear repulsion energy (a.u.)     566.7311993535

            Nuclear Dipole moment (a.u.) 
            ----------------------------
        X                 Y               Z
 ---------------- ---------------- ----------------
    -0.0000000000    -0.0000000000     0.0000000000
 
      Symmetry information
      --------------------
 
 Group name             Cs        
 Group number              2
 Group order               2
 No. of unique centers    13
 
      Symmetry unique atoms
 
     1    2    3    4    5    6    7    8    9   10   11   13   14
 


                                Z-matrix (user)
                                -------- 

 Units are Angstrom for bonds and degrees for angles

  Constants are marked with an asterisk (*).

  Constrained variables are marked with a plus sign (+).

 
      Type          Name      I     J     K     L     M      Value
      ----------- --------  ----- ----- ----- ----- ----- ----------
    1 Stretch      R1          2     1                       1.32900
    2 Stretch      R2          3     2                       1.36300
    3 Bend         A1          3     2     1               124.50000
    4 Stretch      R3          4     3                       1.44000
    5 Bend         A2          4     3     2               119.50000
    6*Torsion      D0          4     3     2     1           0.00000
    7 Stretch      R4          5     4                       1.24900
    8 Bend         A3          5     4     3               123.50000
    9*Torsion      D0          5     4     3     2           0.00000
   10 Stretch      R5          6     1                       0.99400
   11 Bend         A4          6     1     2               105.40000
   12*Torsion      D0          6     1     2     3           0.00000
   13 Stretch      R6          7     2                       1.48500
   14 Bend         A5          7     2     3               122.50000
   15*Torsion      D180        7     2     3     4         180.00000
   16 Stretch      R7          8     3                       1.07800
   17 Bend         A6          8     3     2               120.00000
   18*Torsion      D180        8     3     2     1         180.00000
   19 Stretch      R8          9     4                       1.49900
   20 Bend         A7          9     4     3               117.60000
   21*Torsion      D180        9     4     3     2         180.00000
   22 Stretch      R9         10     7                       1.35000
   23 Bend         A8         10     7     2               110.00000
   24 Torsion      D1         10     7     2     1         180.00000
   25 Stretch      R10        11     7                       1.35000
   26 Bend         A9         11     7     2               110.00000
   27 Torsion      D2         11     7     2     1          60.00000
   28 Stretch      R11        12     7                       1.35000
   29 Bend         A10        12     7     2               110.00000
   30 Torsion      D3         12     7     2     1         -60.00000
   31 Stretch      R12        13     9                       1.10000
   32 Bend         A11        13     9     4               110.00000
   33 Torsion      D4         13     9     4     5           0.00000
   34 Stretch      R13        14     9                       1.10000
   35 Bend         A12        14     9     4               110.00000
   36 Torsion      D5         14     9     4     5         120.00000
   37 Stretch      R14        15     9                       1.10000
   38 Bend         A13        15     9     4               110.00000
   39 Torsion      D6         15     9     4     5        -120.00000
 
 
            XYZ format geometry
            -------------------
    15
 geometry
 O                    -1.60794049    -0.10348535     0.00000000
 C                    -0.28587677    -0.23908962     0.00000000
 C                     0.59671974     0.79955970     0.00000000
 C                     0.10081983     2.15147807     0.00000000
 O                    -1.11439737     2.44000562     0.00000000
 H                    -1.77274454     0.87675728     0.00000000
 C                     0.15185415    -1.65810922     0.00000000
 H                     1.65715771     0.60576778     0.00000000
 C                     1.10882076     3.26095323     0.00000000
 F                     1.50017692    -1.72538265     0.00000000
 F                    -0.31815342    -2.28629063    -1.09862687
 F                    -0.31815342    -2.28629063     1.09862687
 H                     0.59675278     4.23449645     0.00000000
 H                     1.74434002     3.19186922     0.89517745
 H                     1.74434002     3.19186922    -0.89517745
 
 ==============================================================================
                                internuclear distances
 ------------------------------------------------------------------------------
       center one      |      center two      | atomic units |  angstroms
 ------------------------------------------------------------------------------
    2 C                |   1 O                |     2.51145  |     1.32900
    3 C                |   2 C                |     2.57570  |     1.36300
    4 C                |   3 C                |     2.72121  |     1.44000
    5 O                |   4 C                |     2.36027  |     1.24900
    6 H                |   1 O                |     1.87839  |     0.99400
    7 C                |   2 C                |     2.80624  |     1.48500
    8 H                |   3 C                |     2.03712  |     1.07800
    9 C                |   4 C                |     2.83270  |     1.49900
   10 F                |   7 C                |     2.55113  |     1.35000
   11 F                |   7 C                |     2.55113  |     1.35000
   12 F                |   7 C                |     2.55113  |     1.35000
   13 H                |   9 C                |     2.07870  |     1.10000
   14 H                |   9 C                |     2.07870  |     1.10000
   15 H                |   9 C                |     2.07870  |     1.10000
 ------------------------------------------------------------------------------
                         number of included internuclear distances:         14
 ==============================================================================



 ==============================================================================
                                 internuclear angles
 ------------------------------------------------------------------------------
        center 1       |       center 2       |       center 3       |  degrees
 ------------------------------------------------------------------------------
    2 C                |   1 O                |   6 H                |   105.40
    1 O                |   2 C                |   3 C                |   124.50
    1 O                |   2 C                |   7 C                |   113.00
    3 C                |   2 C                |   7 C                |   122.50
    2 C                |   3 C                |   4 C                |   119.50
    2 C                |   3 C                |   8 H                |   120.00
    4 C                |   3 C                |   8 H                |   120.50
    3 C                |   4 C                |   5 O                |   123.50
    3 C                |   4 C                |   9 C                |   117.60
    5 O                |   4 C                |   9 C                |   118.90
    2 C                |   7 C                |  10 F                |   110.00
    2 C                |   7 C                |  11 F                |   110.00
    2 C                |   7 C                |  12 F                |   110.00
   10 F                |   7 C                |  11 F                |   108.94
   10 F                |   7 C                |  12 F                |   108.94
   11 F                |   7 C                |  12 F                |   108.94
    4 C                |   9 C                |  13 H                |   110.00
    4 C                |   9 C                |  14 H                |   110.00
    4 C                |   9 C                |  15 H                |   110.00
   13 H                |   9 C                |  14 H                |   108.94
   13 H                |   9 C                |  15 H                |   108.94
   14 H                |   9 C                |  15 H                |   108.94
 ------------------------------------------------------------------------------
                            number of included internuclear angles:         22
 ==============================================================================





 Summary of "ao basis" -> "" (spherical)
 ------------------------------------------------------------------------------
       Tag                 Description            Shells   Functions and Types
 ---------------- ------------------------------  ------  ---------------------
 *                        aug-cc-pVDZ                 on all atoms 


 
  Deleted DRIVER restart files 
 
 
 
                           NWChem Geometry Optimization
                           ----------------------------
 
 
 
 
                                 MeR,H,Me Chelate
 
 
 maximum gradient threshold         (gmax) =   0.000015
 rms gradient threshold             (grms) =   0.000010
 maximum cartesian step threshold   (xmax) =   0.000060
 rms cartesian step threshold       (xrms) =   0.000040
 fixed trust radius                (trust) =   0.300000
 maximum step size to saddle      (sadstp) =   0.100000
 energy precision                  (eprec) =   1.0D-07
 maximum number of steps          (nptopt) =   99
 initial hessian option           (inhess) =    0
 line search option               (linopt) =    1
 hessian update option            (modupd) =    1
 saddle point option              (modsad) =    0
 initial eigen-mode to follow     (moddir) =    0
 initial variable to follow       (vardir) =    0
 follow first negative mode     (firstneg) =    T
 apply conjugacy                    (opcg) =    F
 source of zmatrix                         =   user    


          -------------------
          Energy Minimization
          -------------------

 
 Names of Z-matrix variables 
    1 R1           2 R2           3 A1           4 R3           5 A2      
    6 D0           7 R4           8 A3           9 D0          10 R5      
   11 A4          12 D0          13 R6          14 A5          15 D180    
   16 R7          17 A6          18 D180        19 R8          20 A7      
   21 D180        22 R9          23 A8          24 D1          25 R10     
   26 A9          27 D2          28 R11         29 A10         30 D3      
   31 R12         32 A11         33 D4          34 R13         35 A12     
   36 D5          37 R14         38 A13         39 D6      
 
 Variables with the same non-blank name are constrained to be equal
 
     variables named       D0 =     6    9   12 
     variables named     D180 =    15   18   21 

 Number of frozen variables =    6
           Frozen variables =    6    9   12   15   18   21
 
 Using diagonal initial Hessian 
 Scaling for Hessian diagonals: bonds = 1.00  angles = 0.25  torsions = 0.10

          --------
          Step   0
          --------
 
 
                         Geometry "geometry" -> "geometry"
                         ---------------------------------
 
 Output coordinates in angstroms (scale by  1.889725989 to convert to a.u.)
 
  No.       Tag          Charge          X              Y              Z
 ---- ---------------- ---------- -------------- -------------- --------------
    1 O                    8.0000    -1.60794049    -0.10348535     0.00000000
    2 C                    6.0000    -0.28587677    -0.23908962     0.00000000
    3 C                    6.0000     0.59671974     0.79955970     0.00000000
    4 C                    6.0000     0.10081983     2.15147807     0.00000000
    5 O                    8.0000    -1.11439737     2.44000562     0.00000000
    6 H                    1.0000    -1.77274454     0.87675728     0.00000000
    7 C                    6.0000     0.15185415    -1.65810922     0.00000000
    8 H                    1.0000     1.65715771     0.60576778     0.00000000
    9 C                    6.0000     1.10882076     3.26095323     0.00000000
   10 F                    9.0000     1.50017692    -1.72538265     0.00000000
   11 F                    9.0000    -0.31815342    -2.28629063    -1.09862687
   12 F                    9.0000    -0.31815342    -2.28629063     1.09862687
   13 H                    1.0000     0.59675278     4.23449645     0.00000000
   14 H                    1.0000     1.74434002     3.19186922     0.89517745
   15 H                    1.0000     1.74434002     3.19186922    -0.89517745
 
      Atomic Mass 
      ----------- 
 
      O                 15.994910
      C                 12.000000
      H                  1.007825
      F                 18.998400
 

 Effective nuclear repulsion energy (a.u.)     566.7311993535

            Nuclear Dipole moment (a.u.) 
            ----------------------------
        X                 Y               Z
 ---------------- ---------------- ----------------
    -0.0000000000    -0.0000000000     0.0000000000
 
      Symmetry information
      --------------------
 
 Group name             Cs        
 Group number              2
 Group order               2
 No. of unique centers    13
 
      Symmetry unique atoms
 
     1    2    3    4    5    6    7    8    9   10   11   13   14
 
                      Basis "ao basis" -> "ao basis" (spherical)
                      -----
  O (Oxygen)
  ----------
            Exponent  Coefficients 
       -------------- ---------------------------------------------------------
  1 S  1.17200000E+04  0.000710
  1 S  1.75900000E+03  0.005470
  1 S  4.00800000E+02  0.027837
  1 S  1.13700000E+02  0.104800
  1 S  3.70300000E+01  0.283062
  1 S  1.32700000E+01  0.448719
  1 S  5.02500000E+00  0.270952
  1 S  1.01300000E+00  0.015458
 
  2 S  1.17200000E+04 -0.000160
  2 S  1.75900000E+03 -0.001263
  2 S  4.00800000E+02 -0.006267
  2 S  1.13700000E+02 -0.025716
  2 S  3.70300000E+01 -0.070924
  2 S  1.32700000E+01 -0.165411
  2 S  5.02500000E+00 -0.116955
  2 S  1.01300000E+00  0.557368
 
  3 S  3.02300000E-01  1.000000
 
  4 S  7.89600000E-02  1.000000
 
  5 P  1.77000000E+01  0.043018
  5 P  3.85400000E+00  0.228913
  5 P  1.04600000E+00  0.508728
 
  6 P  2.75300000E-01  1.000000
 
  7 P  6.85600000E-02  1.000000
 
  8 D  1.18500000E+00  1.000000
 
  9 D  3.32000000E-01  1.000000
 
  C (Carbon)
  ----------
            Exponent  Coefficients 
       -------------- ---------------------------------------------------------
  1 S  6.66500000E+03  0.000692
  1 S  1.00000000E+03  0.005329
  1 S  2.28000000E+02  0.027077
  1 S  6.47100000E+01  0.101718
  1 S  2.10600000E+01  0.274740
  1 S  7.49500000E+00  0.448564
  1 S  2.79700000E+00  0.285074
  1 S  5.21500000E-01  0.015204
 
  2 S  6.66500000E+03 -0.000146
  2 S  1.00000000E+03 -0.001154
  2 S  2.28000000E+02 -0.005725
  2 S  6.47100000E+01 -0.023312
  2 S  2.10600000E+01 -0.063955
  2 S  7.49500000E+00 -0.149981
  2 S  2.79700000E+00 -0.127262
  2 S  5.21500000E-01  0.544529
 
  3 S  1.59600000E-01  1.000000
 
  4 S  4.69000000E-02  1.000000
 
  5 P  9.43900000E+00  0.038109
  5 P  2.00200000E+00  0.209480
  5 P  5.45600000E-01  0.508557
 
  6 P  1.51700000E-01  1.000000
 
  7 P  4.04100000E-02  1.000000
 
  8 D  5.50000000E-01  1.000000
 
  9 D  1.51000000E-01  1.000000
 
  H (Hydrogen)
  ------------
            Exponent  Coefficients 
       -------------- ---------------------------------------------------------
  1 S  1.30100000E+01  0.019685
  1 S  1.96200000E+00  0.137977
  1 S  4.44600000E-01  0.478148
 
  2 S  1.22000000E-01  1.000000
 
  3 S  2.97400000E-02  1.000000
 
  4 P  7.27000000E-01  1.000000
 
  5 P  1.41000000E-01  1.000000
 
  F (Fluorine)
  ------------
            Exponent  Coefficients 
       -------------- ---------------------------------------------------------
  1 S  1.47100000E+04  0.000721
  1 S  2.20700000E+03  0.005553
  1 S  5.02800000E+02  0.028267
  1 S  1.42600000E+02  0.106444
  1 S  4.64700000E+01  0.286814
  1 S  1.67000000E+01  0.448641
  1 S  6.35600000E+00  0.264761
  1 S  1.31600000E+00  0.015333
 
  2 S  1.47100000E+04 -0.000165
  2 S  2.20700000E+03 -0.001308
  2 S  5.02800000E+02 -0.006495
  2 S  1.42600000E+02 -0.026691
  2 S  4.64700000E+01 -0.073690
  2 S  1.67000000E+01 -0.170776
  2 S  6.35600000E+00 -0.112327
  2 S  1.31600000E+00  0.562814
 
  3 S  3.89700000E-01  1.000000
 
  4 S  9.86300000E-02  1.000000
 
  5 P  2.26700000E+01  0.044878
  5 P  4.97700000E+00  0.235718
  5 P  1.34700000E+00  0.508521
 
  6 P  3.47100000E-01  1.000000
 
  7 P  8.50200000E-02  1.000000
 
  8 D  1.64000000E+00  1.000000
 
  9 D  4.64000000E-01  1.000000
 


 Summary of "ao basis" -> "ao basis" (spherical)
 ------------------------------------------------------------------------------
       Tag                 Description            Shells   Functions and Types
 ---------------- ------------------------------  ------  ---------------------
 O                        aug-cc-pVDZ                9       23   4s3p2d
 C                        aug-cc-pVDZ                9       23   4s3p2d
 H                        aug-cc-pVDZ                5        9   3s2p
 F                        aug-cc-pVDZ                9       23   4s3p2d


                                 NWChem SCF Module
                                 -----------------
 
 
                                 MeR,H,Me Chelate
 
 

  ao basis        = "ao basis"
  functions       =   275
  atoms           =    15
  closed shells   =    39
  open shells     =     0
  charge          =   0.00
  wavefunction    = RHF 
  input vectors   = atomic
  output vectors  = ./6C.movecs
  use symmetry    = T
  symmetry adapt  = T


 Summary of "ao basis" -> "ao basis" (spherical)
 ------------------------------------------------------------------------------
       Tag                 Description            Shells   Functions and Types
 ---------------- ------------------------------  ------  ---------------------
 O                        aug-cc-pVDZ                9       23   4s3p2d
 C                        aug-cc-pVDZ                9       23   4s3p2d
 H                        aug-cc-pVDZ                5        9   3s2p
 F                        aug-cc-pVDZ                9       23   4s3p2d


      Symmetry analysis of basis
      --------------------------
 
        a'        181
        a"         94
 

int_init: setting std/high accuracies to  1.0D-16  1.0D-32

 Forming initial guess at       0.3s


 Forcing the number of linearly dependent vectors to be  0
 
      Superposition of Atomic Density Guess
      -------------------------------------
 
 Sum of atomic energies:        -638.53116575
 
      Non-variational initial energy
      ------------------------------

 Total energy =    -643.243108
 1-e energy   =   -2006.602787
 2-e energy   =     796.628480
 HOMO         =      -0.304755
 LUMO         =      -0.061699
 
 
      Symmetry analysis of molecular orbitals - initial
      -------------------------------------------------
 
  Numbering of irreducible representations: 
 
     1 a'          2 a"      
 
  Orbital symmetries:
 
     1 a'          2 a'          3 a"          4 a'          5 a'      
     6 a'          7 a'          8 a'          9 a'         10 a'      
    11 a'         12 a'         13 a'         14 a"         15 a'      
    16 a'         17 a'         18 a'         19 a'         20 a'      
    21 a"         22 a'         23 a'         24 a'         25 a"      
    26 a'         27 a'         28 a"         29 a'         30 a"      
    31 a"         32 a'         33 a"         34 a'         35 a'      
    36 a"         37 a'         38 a'         39 a"         40 a"      
    41 a'         42 a'         43 a'         44 a"         45 a'      
    46 a'         47 a"         48 a'         49 a"      
 

 Starting SCF solution at       6.5s



 ----------------------------------------------
         Quadratically convergent ROHF

 Convergence threshold     :          1.000E-09
 Maximum no. of iterations :           99
 Final Fock-matrix accuracy:          1.000E-15
 ----------------------------------------------

 Warning: symmetry breaking in RHF:   1.384603542931018E-011

              iter       energy          gnorm     gmax       time
             ----- ------------------- --------- --------- --------
                 1     -640.1111397867  2.13D+00  2.39D-01     13.3
 Warning: symmetry breaking in RHF:   1.818393075003755E-010
 Warning: symmetry breaking in RHF:   1.208564272964230E-010
                 2     -640.3423655995  5.77D-01  6.09D-02     27.4
 Warning: symmetry breaking in RHF:   1.109968020274188E-010
                 3     -640.3738924854  5.54D-02  9.30D-03     46.0
 Warning: symmetry breaking in RHF:   1.091568016531319E-010
                 4     -640.3743407055  1.79D-03  2.70D-04     76.1
 Warning: symmetry breaking in RHF:   1.091772922068301E-010
                 5     -640.3743413471  1.91D-06  2.61D-07    125.8
 Warning: symmetry breaking in RHF:   1.091778889517059E-010
                 6     -640.3743413471  1.48D-10  1.28D-11    191.1


       Final RHF  results 
       ------------------ 

         Total SCF energy =   -640.374341347111
      One-electron energy =  -2009.586391042471
      Two-electron energy =    802.480850341907
 Nuclear repulsion energy =    566.731199353453

        Time for solution =    184.9s


 
       Symmetry analysis of molecular orbitals - final
       -----------------------------------------------
 
  Numbering of irreducible representations: 
 
     1 a'          2 a"      
 
  Orbital symmetries:
 
     1 a'          2 a"          3 a'          4 a'          5 a'      
     6 a'          7 a'          8 a'          9 a'         10 a'      
    11 a'         12 a'         13 a"         14 a'         15 a'      
    16 a'         17 a'         18 a'         19 a'         20 a'      
    21 a"         22 a'         23 a'         24 a'         25 a"      
    26 a'         27 a'         28 a"         29 a'         30 a"      
    31 a"         32 a'         33 a'         34 a"         35 a'      
    36 a'         37 a"         38 a'         39 a"         40 a'      
    41 a'         42 a"         43 a'         44 a"         45 a'      
    46 a'         47 a'         48 a"         49 a'      
 
             Final eigenvalues
             -----------------

              1      
    1  -26.3746
    2  -26.3701
    3  -26.3701
    4  -20.6298
    5  -20.5809
    6  -11.5453
    7  -11.3798
    8  -11.3710
    9  -11.2644
   10  -11.2607
   11   -1.7482
   12   -1.6594
   13   -1.6552
   14   -1.4588
   15   -1.4010
   16   -1.1215
   17   -1.0521
   18   -1.0011
   19   -0.9078
   20   -0.8482
   21   -0.8407
   22   -0.8012
   23   -0.7931
   24   -0.7285
   25   -0.7279
   26   -0.7134
   27   -0.6903
   28   -0.6833
   29   -0.6785
   30   -0.6673
   31   -0.6319
   32   -0.6292
   33   -0.6196
   34   -0.6027
   35   -0.5783
   36   -0.5633
   37   -0.5245
   38   -0.4496
   39   -0.3891
   40    0.0282
   41    0.0457
   42    0.0483
   43    0.0551
   44    0.0563
   45    0.0708
   46    0.0804
   47    0.0937
   48    0.1030
   49    0.1153
 
                       ROHF Final Molecular Orbital Analysis
                       -------------------------------------
 
 Vector   14  Occ=2.000000D+00  E=-1.458827D+00  Symmetry=a'
              MO Center= -1.3D+00,  1.4D-01, -7.4D-17, r^2= 1.0D+00
   Bfn.  Coefficient  Atom+Function         Bfn.  Coefficient  Atom+Function  
  ----- ------------  ---------------      ----- ------------  ---------------
     3      0.468559   1 O  s                27     -0.448207   2 C  s         
     2      0.387031   1 O  s                50      0.213513   3 C  s         
    46     -0.191514   2 C  d  2             55     -0.185339   3 C  py        
     4      0.174652   1 O  s                49     -0.166042   3 C  s         
    25      0.163364   2 C  s               116      0.161673   6 H  s         
 
 Vector   15  Occ=2.000000D+00  E=-1.400953D+00  Symmetry=a'
              MO Center= -8.2D-01,  2.2D+00,  1.2D-16, r^2= 1.1D+00
   Bfn.  Coefficient  Atom+Function         Bfn.  Coefficient  Atom+Function  
  ----- ------------  ---------------      ----- ------------  ---------------
    95      0.448183   5 O  s                94      0.379285   5 O  s         
    73     -0.245562   4 C  s                71      0.208158   4 C  s         
    72      0.202343   4 C  s                 3     -0.155273   1 O  s         
    74     -0.155066   4 C  px        
 
 Vector   16  Occ=2.000000D+00  E=-1.121540D+00  Symmetry=a'
              MO Center=  1.2D-01,  2.2D-01, -5.1D-14, r^2= 2.6D+00
   Bfn.  Coefficient  Atom+Function         Bfn.  Coefficient  Atom+Function  
  ----- ------------  ---------------      ----- ------------  ---------------
    26      0.305055   2 C  s               160      0.262743   9 C  s         
    48      0.252685   3 C  s                25      0.236208   2 C  s         
    50     -0.224319   3 C  s                49      0.196356   3 C  s         
    55      0.192451   3 C  py              128     -0.187585   7 C  s         
    81     -0.164071   4 C  py              126      0.156826   7 C  s         
 
 Vector   17  Occ=2.000000D+00  E=-1.052136D+00  Symmetry=a'
              MO Center=  4.5D-01,  1.1D+00, -2.0D-15, r^2= 5.7D+00
   Bfn.  Coefficient  Atom+Function         Bfn.  Coefficient  Atom+Function  
  ----- ------------  ---------------      ----- ------------  ---------------
   128      0.249456   7 C  s               158      0.233131   9 C  s         
   126     -0.207747   7 C  s                71      0.159105   4 C  s         
 
 Vector   18  Occ=2.000000D+00  E=-1.001145D+00  Symmetry=a'
              MO Center=  4.7D-01,  8.6D-01,  5.8D-14, r^2= 6.2D+00
   Bfn.  Coefficient  Atom+Function         Bfn.  Coefficient  Atom+Function  
  ----- ------------  ---------------      ----- ------------  ---------------
   128      0.335902   7 C  s                55     -0.238998   3 C  py        
   158     -0.239147   9 C  s                50     -0.233031   3 C  s         
    49      0.219264   3 C  s               126     -0.206951   7 C  s         
    78     -0.205254   4 C  py              160     -0.197694   9 C  s         
    73      0.192808   4 C  s                32     -0.189632   2 C  py        
 
 Vector   19  Occ=2.000000D+00  E=-9.078270D-01  Symmetry=a'
              MO Center=  8.5D-02, -9.6D-01,  1.3D-13, r^2= 4.3D+00
   Bfn.  Coefficient  Atom+Function         Bfn.  Coefficient  Atom+Function  
  ----- ------------  ---------------      ----- ------------  ---------------
   128      0.311248   7 C  s                26      0.306713   2 C  s         
   130      0.240851   7 C  py              184      0.223239  10 F  px        
    50     -0.192064   3 C  s               209     -0.175032  11 F  pz        
   232      0.175032  12 F  pz        
 
 Vector   20  Occ=2.000000D+00  E=-8.481623D-01  Symmetry=a'
              MO Center=  3.4D-01, -1.4D+00,  6.0D-14, r^2= 3.9D+00
   Bfn.  Coefficient  Atom+Function         Bfn.  Coefficient  Atom+Function  
  ----- ------------  ---------------      ----- ------------  ---------------
   184      0.314036  10 F  px              129     -0.270424   7 C  px        
    27      0.246278   2 C  s                32      0.239792   2 C  py        
   209      0.235044  11 F  pz              232     -0.235044  12 F  pz        
    49     -0.231686   3 C  s               187      0.191590  10 F  px        
   128     -0.167551   7 C  s               127      0.157746   7 C  s         
 
 Vector   21  Occ=2.000000D+00  E=-8.406954D-01  Symmetry=a"
              MO Center=  7.9D-02, -2.1D+00, -4.5D-15, r^2= 1.9D+00
   Bfn.  Coefficient  Atom+Function         Bfn.  Coefficient  Atom+Function  
  ----- ------------  ---------------      ----- ------------  ---------------
   131      0.315369   7 C  pz              186      0.276135  10 F  pz        
   208     -0.219145  11 F  py              231      0.219145  12 F  py        
   207     -0.195693  11 F  px              230      0.195693  12 F  px        
   189      0.188440  10 F  pz              209     -0.171312  11 F  pz        
   232     -0.171312  12 F  pz        
 
 Vector   22  Occ=2.000000D+00  E=-8.012341D-01  Symmetry=a'
              MO Center=  1.4D-01,  7.4D-01,  3.2D-14, r^2= 5.9D+00
   Bfn.  Coefficient  Atom+Function         Bfn.  Coefficient  Atom+Function  
  ----- ------------  ---------------      ----- ------------  ---------------
    32      0.312317   2 C  py               72     -0.309485   4 C  s         
    52     -0.227842   3 C  py               71     -0.218190   4 C  s         
    50      0.209173   3 C  s                27     -0.194233   2 C  s         
    29      0.177333   2 C  py               55      0.159569   3 C  py        
    95      0.155123   5 O  s         
 
 Vector   23  Occ=2.000000D+00  E=-7.931039D-01  Symmetry=a'
              MO Center= -4.4D-01, -4.7D-01,  6.0D-14, r^2= 3.8D+00
   Bfn.  Coefficient  Atom+Function         Bfn.  Coefficient  Atom+Function  
  ----- ------------  ---------------      ----- ------------  ---------------
    27      0.425345   2 C  s                 5     -0.292854   1 O  px        
   128     -0.258646   7 C  s               185      0.245698  10 F  py        
    35     -0.212956   2 C  py              116      0.209227   6 H  s         
    28      0.191909   2 C  px                6      0.180469   1 O  py        
    58      0.170685   3 C  py              188      0.171493  10 F  py        
 
 Vector   24  Occ=2.000000D+00  E=-7.284595D-01  Symmetry=a'
              MO Center=  8.1D-02, -1.4D+00, -4.0D-15, r^2= 4.1D+00
   Bfn.  Coefficient  Atom+Function         Bfn.  Coefficient  Atom+Function  
  ----- ------------  ---------------      ----- ------------  ---------------
   208      0.299383  11 F  py              231      0.299383  12 F  py        
    55      0.293589   3 C  py              185     -0.289979  10 F  py        
    26      0.214686   2 C  s                50      0.212370   3 C  s         
   211      0.206164  11 F  py              234      0.206164  12 F  py        
   188     -0.202942  10 F  py              149     -0.199398   8 H  s         
 
 Vector   25  Occ=2.000000D+00  E=-7.279161D-01  Symmetry=a"
              MO Center=  1.8D-01, -2.1D+00, -7.2D-14, r^2= 2.1D+00
   Bfn.  Coefficient  Atom+Function         Bfn.  Coefficient  Atom+Function  
  ----- ------------  ---------------      ----- ------------  ---------------
   186      0.343879  10 F  pz              208      0.300435  11 F  py        
   231     -0.300435  12 F  py              189      0.237984  10 F  pz        
   207     -0.229010  11 F  px              230      0.229010  12 F  px        
   211      0.206947  11 F  py              234     -0.206947  12 F  py        
   210     -0.162909  11 F  px              233      0.162909  12 F  px        
 
 Vector   26  Occ=2.000000D+00  E=-7.134358D-01  Symmetry=a'
              MO Center=  7.3D-03,  4.7D-01,  6.4D-14, r^2= 4.7D+00
   Bfn.  Coefficient  Atom+Function         Bfn.  Coefficient  Atom+Function  
  ----- ------------  ---------------      ----- ------------  ---------------
    50      0.607832   3 C  s                73     -0.412494   4 C  s         
   149     -0.386410   8 H  s                27     -0.275455   2 C  s         
   148     -0.255981   8 H  s                51     -0.243220   3 C  px        
     6      0.225140   1 O  py               72      0.218782   4 C  s         
   185      0.205784  10 F  py               97      0.191770   5 O  px        
 
 Vector   27  Occ=2.000000D+00  E=-6.902921D-01  Symmetry=a'
              MO Center= -7.7D-02,  2.5D-01,  7.2D-15, r^2= 6.7D+00
   Bfn.  Coefficient  Atom+Function         Bfn.  Coefficient  Atom+Function  
  ----- ------------  ---------------      ----- ------------  ---------------
   207      0.257576  11 F  px              230      0.257576  12 F  px        
    97      0.244861   5 O  px              184      0.227953  10 F  px        
    75      0.214813   4 C  py              210      0.179209  11 F  px        
   233      0.179209  12 F  px               52     -0.157185   3 C  py        
 
 Vector   28  Occ=2.000000D+00  E=-6.833093D-01  Symmetry=a"
              MO Center=  1.4D-01, -2.0D+00,  2.6D-15, r^2= 2.2D+00
   Bfn.  Coefficient  Atom+Function         Bfn.  Coefficient  Atom+Function  
  ----- ------------  ---------------      ----- ------------  ---------------
   186      0.349525  10 F  pz              209      0.329459  11 F  pz        
   232      0.329459  12 F  pz              189      0.246653  10 F  pz        
   212      0.216034  11 F  pz              235      0.216034  12 F  pz        
   208     -0.185035  11 F  py              231      0.185035  12 F  py        
 
 Vector   29  Occ=2.000000D+00  E=-6.784549D-01  Symmetry=a'
              MO Center=  3.3D-01, -8.4D-01,  5.2D-14, r^2= 5.0D+00
   Bfn.  Coefficient  Atom+Function         Bfn.  Coefficient  Atom+Function  
  ----- ------------  ---------------      ----- ------------  ---------------
    27      0.407170   2 C  s               185      0.408936  10 F  py        
    55     -0.295493   3 C  py              188      0.296013  10 F  py        
    32     -0.286332   2 C  py              207      0.245470  11 F  px        
   230      0.245470  12 F  px               26     -0.243244   2 C  s         
    78     -0.211468   4 C  py              127     -0.207405   7 C  s         
 
 Vector   30  Occ=2.000000D+00  E=-6.673271D-01  Symmetry=a"
              MO Center=  1.4D-01, -2.1D+00,  2.8D-15, r^2= 2.0D+00
   Bfn.  Coefficient  Atom+Function         Bfn.  Coefficient  Atom+Function  
  ----- ------------  ---------------      ----- ------------  ---------------
   186      0.349810  10 F  pz              207      0.326423  11 F  px        
   230     -0.326423  12 F  px              189      0.243858  10 F  pz        
   209     -0.244702  11 F  pz              232     -0.244702  12 F  pz        
   210      0.227622  11 F  px              233     -0.227622  12 F  px        
   212     -0.168694  11 F  pz              235     -0.168694  12 F  pz        
 
 Vector   31  Occ=2.000000D+00  E=-6.319201D-01  Symmetry=a"
              MO Center=  1.3D-01,  1.8D+00,  8.1D-15, r^2= 4.6D+00
   Bfn.  Coefficient  Atom+Function         Bfn.  Coefficient  Atom+Function  
  ----- ------------  ---------------      ----- ------------  ---------------
   163      0.267832   9 C  pz                7      0.254850   1 O  pz        
    99      0.208749   5 O  pz               76      0.199574   4 C  pz        
    10      0.191409   1 O  pz              258      0.189897  14 H  s         
   267     -0.189897  15 H  s               102      0.167811   5 O  pz        
 
 Vector   32  Occ=2.000000D+00  E=-6.292294D-01  Symmetry=a'
              MO Center= -3.7D-01,  1.6D+00, -1.3D-13, r^2= 4.8D+00
   Bfn.  Coefficient  Atom+Function         Bfn.  Coefficient  Atom+Function  
  ----- ------------  ---------------      ----- ------------  ---------------
    74      0.254983   4 C  px               98      0.236149   5 O  py        
     6      0.232387   1 O  py                5      0.211382   1 O  px        
   161     -0.192130   9 C  px               75      0.188781   4 C  py        
   164     -0.182210   9 C  px              165     -0.173603   9 C  py        
   162     -0.167313   9 C  py               97     -0.166471   5 O  px        
 
 Vector   33  Occ=2.000000D+00  E=-6.195698D-01  Symmetry=a'
              MO Center=  1.3D-01, -2.0D-01,  2.5D-14, r^2= 5.8D+00
   Bfn.  Coefficient  Atom+Function         Bfn.  Coefficient  Atom+Function  
  ----- ------------  ---------------      ----- ------------  ---------------
    27      0.290382   2 C  s                50     -0.279521   3 C  s         
   208      0.241694  11 F  py              231      0.241694  12 F  py        
   130     -0.234044   7 C  py              127     -0.231079   7 C  s         
    29      0.223071   2 C  py              133     -0.215751   7 C  py        
   149      0.206061   8 H  s               211      0.176962  11 F  py        
 
 Vector   34  Occ=2.000000D+00  E=-6.026817D-01  Symmetry=a"
              MO Center= -3.8D-01,  9.8D-01,  1.1D-14, r^2= 5.4D+00
   Bfn.  Coefficient  Atom+Function         Bfn.  Coefficient  Atom+Function  
  ----- ------------  ---------------      ----- ------------  ---------------
     7      0.438960   1 O  pz               10      0.333554   1 O  pz        
   163     -0.246382   9 C  pz               30      0.188425   2 C  pz        
   258     -0.180942  14 H  s               267      0.180942  15 H  s         
 
 Vector   35  Occ=2.000000D+00  E=-5.783043D-01  Symmetry=a'
              MO Center= -2.5D-01,  8.5D-01, -3.3D-15, r^2= 4.1D+00
   Bfn.  Coefficient  Atom+Function         Bfn.  Coefficient  Atom+Function  
  ----- ------------  ---------------      ----- ------------  ---------------
   149      0.311624   8 H  s                51      0.289150   3 C  px        
    49     -0.281721   3 C  s                 6      0.253272   1 O  py        
   148      0.246494   8 H  s                 5      0.207593   1 O  px        
    97      0.204488   5 O  px               54      0.203202   3 C  px        
    27      0.177933   2 C  s                74     -0.168702   4 C  px        
 
 Vector   36  Occ=2.000000D+00  E=-5.632788D-01  Symmetry=a'
              MO Center=  7.0D-01,  2.8D+00, -9.3D-14, r^2= 4.2D+00
   Bfn.  Coefficient  Atom+Function         Bfn.  Coefficient  Atom+Function  
  ----- ------------  ---------------      ----- ------------  ---------------
    49      0.363103   3 C  s               249     -0.347025  13 H  s         
    54     -0.318867   3 C  px              160      0.316714   9 C  s         
   162     -0.289221   9 C  py              250     -0.258188  13 H  s         
   161      0.248829   9 C  px               81     -0.203476   4 C  py        
    50     -0.196363   3 C  s                78      0.195677   4 C  py        
 
 Vector   37  Occ=2.000000D+00  E=-5.244583D-01  Symmetry=a"
              MO Center= -2.4D-01,  2.4D+00,  1.4D-14, r^2= 2.8D+00
   Bfn.  Coefficient  Atom+Function         Bfn.  Coefficient  Atom+Function  
  ----- ------------  ---------------      ----- ------------  ---------------
    99      0.424262   5 O  pz              102      0.320656   5 O  pz        
    76      0.226958   4 C  pz              163     -0.221460   9 C  pz        
   258     -0.182416  14 H  s               267      0.182416  15 H  s         
     7     -0.165887   1 O  pz              259     -0.153137  14 H  s         
   268      0.153137  15 H  s         
 
 Vector   38  Occ=2.000000D+00  E=-4.495936D-01  Symmetry=a'
              MO Center= -5.1D-01,  2.1D+00,  2.0D-13, r^2= 2.6D+00
   Bfn.  Coefficient  Atom+Function         Bfn.  Coefficient  Atom+Function  
  ----- ------------  ---------------      ----- ------------  ---------------
    98      0.494728   5 O  py               50     -0.440186   3 C  s         
    27      0.419289   2 C  s               101      0.408135   5 O  py        
    81     -0.240966   4 C  py              160      0.224654   9 C  s         
    52      0.195841   3 C  py              128     -0.196024   7 C  s         
    75     -0.193896   4 C  py              161      0.185996   9 C  px        
 
 Vector   39  Occ=2.000000D+00  E=-3.890946D-01  Symmetry=a"
              MO Center= -9.6D-02,  6.3D-01,  1.4D-14, r^2= 2.5D+00
   Bfn.  Coefficient  Atom+Function         Bfn.  Coefficient  Atom+Function  
  ----- ------------  ---------------      ----- ------------  ---------------
    53      0.398957   3 C  pz               56      0.313236   3 C  pz        
     7     -0.269567   1 O  pz               30      0.262625   2 C  pz        
    10     -0.214338   1 O  pz               99     -0.214333   5 O  pz        
    33      0.175958   2 C  pz              102     -0.170499   5 O  pz        
 
 Vector   40  Occ=0.000000D+00  E= 2.819954D-02  Symmetry=a'
              MO Center=  2.2D+00,  2.9D+00,  6.6D-16, r^2= 1.9D+01
   Bfn.  Coefficient  Atom+Function         Bfn.  Coefficient  Atom+Function  
  ----- ------------  ---------------      ----- ------------  ---------------
   128      7.399804   7 C  s                35      4.831639   2 C  py        
    81      3.059099   4 C  py               73      1.600851   4 C  s         
    57      1.587066   3 C  px              260     -1.572562  14 H  s         
   269     -1.572562  15 H  s                27      1.529492   2 C  s         
    50     -1.489178   3 C  s               160     -1.483563   9 C  s         
 
 Vector   41  Occ=0.000000D+00  E= 4.568280D-02  Symmetry=a'
              MO Center=  2.0D+00,  3.0D+00, -1.0D-13, r^2= 2.6D+01
   Bfn.  Coefficient  Atom+Function         Bfn.  Coefficient  Atom+Function  
  ----- ------------  ---------------      ----- ------------  ---------------
    50     14.476118   3 C  s                73    -11.573625   4 C  s         
   150      6.401434   8 H  s                81      5.328773   4 C  py        
    58      5.175513   3 C  py               57     -4.965625   3 C  px        
   251     -4.044230  13 H  s                27     -3.078594   2 C  s         
    35     -2.640550   2 C  py              168      1.873312   9 C  py        
 
 Vector   42  Occ=0.000000D+00  E= 4.831096D-02  Symmetry=a"
              MO Center=  2.3D+00,  3.0D+00,  3.1D-13, r^2= 1.9D+01
   Bfn.  Coefficient  Atom+Function         Bfn.  Coefficient  Atom+Function  
  ----- ------------  ---------------      ----- ------------  ---------------
   260      4.546419  14 H  s               269     -4.546419  15 H  s         
   169     -2.288610   9 C  pz               82      0.951932   4 C  pz        
    59     -0.805306   3 C  pz              259      0.570718  14 H  s         
   268     -0.570718  15 H  s               137      0.494539   7 C  pz        
   166     -0.437682   9 C  pz              257      0.152629  13 H  pz        
 
 Vector   43  Occ=0.000000D+00  E= 5.507804D-02  Symmetry=a'
              MO Center= -1.8D+00,  1.5D+00,  1.0D-12, r^2= 2.4D+01
   Bfn.  Coefficient  Atom+Function         Bfn.  Coefficient  Atom+Function  
  ----- ------------  ---------------      ----- ------------  ---------------
   128      7.340310   7 C  s                73      6.411283   4 C  s         
    50     -5.627265   3 C  s                35      4.431053   2 C  py        
   118     -3.946174   6 H  s               160     -3.640427   9 C  s         
    57      3.092718   3 C  px               27      2.577182   2 C  s         
    34     -2.481273   2 C  px              251     -2.258792  13 H  s         
 
 Vector   44  Occ=0.000000D+00  E= 5.625609D-02  Symmetry=a"
              MO Center=  2.3D-02,  9.1D-01, -6.8D-13, r^2= 4.7D+00
   Bfn.  Coefficient  Atom+Function         Bfn.  Coefficient  Atom+Function  
  ----- ------------  ---------------      ----- ------------  ---------------
   260      0.860589  14 H  s               269     -0.860589  15 H  s         
   169     -0.726334   9 C  pz               36     -0.646903   2 C  pz        
    82      0.610006   4 C  pz               33     -0.399440   2 C  pz        
    30     -0.370388   2 C  pz               79      0.307179   4 C  pz        
   105     -0.289423   5 O  pz               59      0.284909   3 C  pz        
 
 Vector   45  Occ=0.000000D+00  E= 7.082653D-02  Symmetry=a'
              MO Center=  2.9D-01,  1.3D+00,  4.2D-14, r^2= 3.3D+01
   Bfn.  Coefficient  Atom+Function         Bfn.  Coefficient  Atom+Function  
  ----- ------------  ---------------      ----- ------------  ---------------
   128     13.788183   7 C  s                27     -6.773787   2 C  s         
    35      6.464279   2 C  py              160     -6.453094   9 C  s         
   251     -5.010287  13 H  s                81      4.628951   4 C  py        
    50      3.397129   3 C  s                73     -3.144892   4 C  s         
   136      2.928300   7 C  py              118      2.389564   6 H  s         
 
 Vector   46  Occ=0.000000D+00  E= 8.039580D-02  Symmetry=a'
              MO Center=  5.6D-01, -6.7D-01, -1.5D-14, r^2= 3.1D+01
   Bfn.  Coefficient  Atom+Function         Bfn.  Coefficient  Atom+Function  
  ----- ------------  ---------------      ----- ------------  ---------------
   128     23.707959   7 C  s                27    -13.487969   2 C  s         
    35     11.863885   2 C  py               81     10.014546   4 C  py        
    73     -9.773420   4 C  s               160     -8.250603   9 C  s         
    50      5.718358   3 C  s               150      5.473026   8 H  s         
   136      4.988273   7 C  py               80      4.050588   4 C  px        
 
 Vector   47  Occ=0.000000D+00  E= 9.367562D-02  Symmetry=a'
              MO Center=  1.0D+00,  2.3D+00, -1.0D-13, r^2= 2.1D+01
   Bfn.  Coefficient  Atom+Function         Bfn.  Coefficient  Atom+Function  
  ----- ------------  ---------------      ----- ------------  ---------------
   160     29.540560   9 C  s                73    -22.904397   4 C  s         
    81    -15.923919   4 C  py               80     -9.703774   4 C  px        
   167     -8.009597   9 C  px               35     -7.313097   2 C  py        
   128     -7.211917   7 C  s               168     -5.643574   9 C  py        
    27     -4.477181   2 C  s               260      3.817427  14 H  s         
 
 Vector   48  Occ=0.000000D+00  E= 1.030307D-01  Symmetry=a"
              MO Center=  6.3D-01, -1.3D+00,  5.3D-14, r^2= 1.9D+01
   Bfn.  Coefficient  Atom+Function         Bfn.  Coefficient  Atom+Function  
  ----- ------------  ---------------      ----- ------------  ---------------
   137      2.975118   7 C  pz               82      1.548546   4 C  pz        
   206      1.170800  11 F  s               229     -1.170800  12 F  s         
    36     -1.080297   2 C  pz              169     -0.721728   9 C  pz        
   260     -0.676576  14 H  s               269      0.676576  15 H  s         
   134      0.518430   7 C  pz              192     -0.449363  10 F  pz        
 
 Vector   49  Occ=0.000000D+00  E= 1.152852D-01  Symmetry=a'
              MO Center= -6.4D-01, -2.6D-01,  1.1D-14, r^2= 2.5D+01
   Bfn.  Coefficient  Atom+Function         Bfn.  Coefficient  Atom+Function  
  ----- ------------  ---------------      ----- ------------  ---------------
    27     21.212215   2 C  s                73    -13.929754   4 C  s         
    58      9.875625   3 C  py              128     -9.186482   7 C  s         
    81      4.251484   4 C  py               50      4.197170   3 C  s         
    80     -3.829800   4 C  px               34      3.314758   2 C  px        
   135      3.125901   7 C  px               35     -2.709001   2 C  py        
 
 Vector   50  Occ=0.000000D+00  E= 1.165069D-01  Symmetry=a"
              MO Center=  1.7D-01,  1.3D+00, -6.0D-13, r^2= 1.6D+01
   Bfn.  Coefficient  Atom+Function         Bfn.  Coefficient  Atom+Function  
  ----- ------------  ---------------      ----- ------------  ---------------
    59     -4.096404   3 C  pz               36      4.016401   2 C  pz        
    82      2.986776   4 C  pz              137     -1.497133   7 C  pz        
   259     -0.756050  14 H  s               268      0.756050  15 H  s         
   105     -0.747818   5 O  pz               13     -0.730554   1 O  pz        
   260     -0.593061  14 H  s               269      0.593061  15 H  s         
 
 Vector   51  Occ=0.000000D+00  E= 1.213443D-01  Symmetry=a'
              MO Center=  5.2D-01, -2.5D-01,  3.4D-14, r^2= 2.6D+01
   Bfn.  Coefficient  Atom+Function         Bfn.  Coefficient  Atom+Function  
  ----- ------------  ---------------      ----- ------------  ---------------
    50     11.952203   3 C  s                81      8.294459   4 C  py        
    73     -7.635771   4 C  s                27     -6.619490   2 C  s         
    35      6.267663   2 C  py               58     -4.414086   3 C  py        
   128      4.152633   7 C  s               135     -3.875999   7 C  px        
   168     -2.746541   9 C  py              167      1.717094   9 C  px        
 
 Vector   52  Occ=0.000000D+00  E= 1.419147D-01  Symmetry=a'
              MO Center=  1.2D+00,  1.2D+00, -6.2D-14, r^2= 2.1D+01
   Bfn.  Coefficient  Atom+Function         Bfn.  Coefficient  Atom+Function  
  ----- ------------  ---------------      ----- ------------  ---------------
    50     36.271131   3 C  s                27    -25.012463   2 C  s         
    73    -23.611254   4 C  s                35    -14.454255   2 C  py        
   128    -11.469648   7 C  s                57    -10.812289   3 C  px        
   150      5.397644   8 H  s                 4      4.845855   1 O  s         
   160      4.433722   9 C  s                80     -3.667180   4 C  px        
 
 Vector   53  Occ=0.000000D+00  E= 1.512845D-01  Symmetry=a"
              MO Center=  4.9D-01,  9.4D-01, -3.7D-13, r^2= 1.8D+01
   Bfn.  Coefficient  Atom+Function         Bfn.  Coefficient  Atom+Function  
  ----- ------------  ---------------      ----- ------------  ---------------
   137      2.150753   7 C  pz               59     -1.748241   3 C  pz        
   169      1.732636   9 C  pz              259     -0.679458  14 H  s         
   268      0.679458  15 H  s                36     -0.597201   2 C  pz        
   206      0.573697  11 F  s               229     -0.573697  12 F  s         
   260     -0.379469  14 H  s               269      0.379469  15 H  s         
 
 Vector   54  Occ=0.000000D+00  E= 1.531802D-01  Symmetry=a'
              MO Center=  4.8D-01,  2.4D+00,  2.0D-13, r^2= 2.3D+01
   Bfn.  Coefficient  Atom+Function         Bfn.  Coefficient  Atom+Function  
  ----- ------------  ---------------      ----- ------------  ---------------
    50     40.613571   3 C  s                27    -30.031526   2 C  s         
   128     15.317085   7 C  s                73    -14.751501   4 C  s         
    81     13.594570   4 C  py               57    -10.812216   3 C  px        
   150      7.662609   8 H  s                34     -7.064536   2 C  px        
   160     -4.557628   9 C  s               167      4.002106   9 C  px        
 
 Vector   55  Occ=0.000000D+00  E= 1.572626D-01  Symmetry=a'
              MO Center= -8.2D-02,  3.0D+00, -4.3D-13, r^2= 2.0D+01
   Bfn.  Coefficient  Atom+Function         Bfn.  Coefficient  Atom+Function  
  ----- ------------  ---------------      ----- ------------  ---------------
   160     12.437409   9 C  s                81    -10.155132   4 C  py        
    50    -10.094001   3 C  s                80     -7.972710   4 C  px        
    58     -6.054356   3 C  py              168     -5.366285   9 C  py        
   251      5.271114  13 H  s                73      4.251995   4 C  s         
   128     -3.904128   7 C  s                27     -3.598334   2 C  s         
 
 Vector   56  Occ=0.000000D+00  E= 1.621162D-01  Symmetry=a"
              MO Center=  1.1D+00,  2.8D+00,  2.5D-13, r^2= 1.7D+01
   Bfn.  Coefficient  Atom+Function         Bfn.  Coefficient  Atom+Function  
  ----- ------------  ---------------      ----- ------------  ---------------
   260      5.733775  14 H  s               269     -5.733775  15 H  s         
   169     -4.780017   9 C  pz              259      2.704369  14 H  s         
   268     -2.704369  15 H  s                36      2.307366   2 C  pz        
    59     -2.275181   3 C  pz              166     -1.405587   9 C  pz        
    82      1.241922   4 C  pz              137     -0.815600   7 C  pz        
 
 Vector   57  Occ=0.000000D+00  E= 1.646214D-01  Symmetry=a'
              MO Center= -3.2D-01,  1.9D-01,  1.1D-11, r^2= 2.6D+01
   Bfn.  Coefficient  Atom+Function         Bfn.  Coefficient  Atom+Function  
  ----- ------------  ---------------      ----- ------------  ---------------
    50     15.392736   3 C  s                34    -11.736847   2 C  px        
    27     -8.122850   2 C  s                58     -6.112761   3 C  py        
   160      5.928541   9 C  s               150     -5.719444   8 H  s         
     4     -5.230277   1 O  s               168     -4.695726   9 C  py        
   135      4.514737   7 C  px              118     -4.429405   6 H  s         
 
 Vector   58  Occ=0.000000D+00  E= 1.780711D-01  Symmetry=a"
              MO Center=  2.7D-02,  1.4D+00, -8.4D-12, r^2= 1.9D+01
   Bfn.  Coefficient  Atom+Function         Bfn.  Coefficient  Atom+Function  
  ----- ------------  ---------------      ----- ------------  ---------------
    82     -5.501492   4 C  pz               36      5.163611   2 C  pz        
   169      4.639231   9 C  pz              260     -2.737836  14 H  s         
   269      2.737836  15 H  s               137     -2.676488   7 C  pz        
   105      0.844384   5 O  pz              206      0.825587  11 F  s         
   229     -0.825587  12 F  s               214      0.486321  11 F  py        
 
 Vector   59  Occ=0.000000D+00  E= 1.795711D-01  Symmetry=a'
              MO Center=  1.5D-01,  4.2D-03, -5.4D-13, r^2= 2.1D+01
   Bfn.  Coefficient  Atom+Function         Bfn.  Coefficient  Atom+Function  
  ----- ------------  ---------------      ----- ------------  ---------------
    35     19.830224   2 C  py              128     14.927328   7 C  s         
    50    -12.616934   3 C  s                58     -7.259820   3 C  py        
   160     -6.851853   9 C  s                80      5.547661   4 C  px        
    73      4.981685   4 C  s                34     -4.953241   2 C  px        
     4     -4.847578   1 O  s               150      4.300832   8 H  s         
 
 Vector   60  Occ=0.000000D+00  E= 1.838941D-01  Symmetry=a'
              MO Center=  1.3D+00,  2.1D+00,  5.6D-14, r^2= 2.0D+01
   Bfn.  Coefficient  Atom+Function         Bfn.  Coefficient  Atom+Function  
  ----- ------------  ---------------      ----- ------------  ---------------
    73    -20.218801   4 C  s                50     19.676116   3 C  s         
    27    -14.485707   2 C  s                57    -12.360153   3 C  px        
    81      8.942967   4 C  py              150      6.226890   8 H  s         
    80      5.954597   4 C  px               96      5.828478   5 O  s         
   251      5.314311  13 H  s               168     -4.576567   9 C  py        
 
 Vector   61  Occ=0.000000D+00  E= 2.118074D-01  Symmetry=a"
              MO Center=  4.6D-02,  1.1D+00, -3.1D-12, r^2= 9.7D+00
   Bfn.  Coefficient  Atom+Function         Bfn.  Coefficient  Atom+Function  
  ----- ------------  ---------------      ----- ------------  ---------------
    82      2.148734   4 C  pz              169     -2.092407   9 C  pz        
    36     -1.662278   2 C  pz              137      1.597003   7 C  pz        
   260      1.590369  14 H  s               269     -1.590369  15 H  s         
    59     -1.491849   3 C  pz              259      0.759650  14 H  s         
   268     -0.759650  15 H  s                13      0.669980   1 O  pz        
 
 Vector   62  Occ=0.000000D+00  E= 2.133099D-01  Symmetry=a'
              MO Center=  8.0D-01,  1.0D+00, -1.3D-13, r^2= 2.2D+01
   Bfn.  Coefficient  Atom+Function         Bfn.  Coefficient  Atom+Function  
  ----- ------------  ---------------      ----- ------------  ---------------
    27     52.512117   2 C  s               128    -38.752526   7 C  s         
   160     37.025926   9 C  s                73    -36.196639   4 C  s         
    35    -33.963762   2 C  py               58     32.968733   3 C  py        
    81    -30.154748   4 C  py               80    -22.435370   4 C  px        
    50    -12.561442   3 C  s                57     10.247068   3 C  px        
 
 Vector   63  Occ=0.000000D+00  E= 2.230699D-01  Symmetry=a'
              MO Center= -1.1D-01,  8.5D-01,  1.1D-13, r^2= 2.1D+01
   Bfn.  Coefficient  Atom+Function         Bfn.  Coefficient  Atom+Function  
  ----- ------------  ---------------      ----- ------------  ---------------
   128     43.480279   7 C  s                73    -35.551863   4 C  s         
    27    -26.682046   2 C  s                35     23.709791   2 C  py        
    50     17.400058   3 C  s                81     11.008708   4 C  py        
    96      6.348414   5 O  s               136      5.083985   7 C  py        
    34     -4.865797   2 C  px              206     -2.801663  11 F  s         
 
 Vector   64  Occ=0.000000D+00  E= 2.399850D-01  Symmetry=a'
              MO Center= -6.6D-01,  5.6D-01, -2.9D-14, r^2= 1.7D+01
   Bfn.  Coefficient  Atom+Function         Bfn.  Coefficient  Atom+Function  
  ----- ------------  ---------------      ----- ------------  ---------------
   160     39.865580   9 C  s                81    -22.453272   4 C  py        
    73    -20.948636   4 C  s                27    -18.128207   2 C  s         
    80    -15.479931   4 C  px              128    -15.156204   7 C  s         
    35    -14.537127   2 C  py               50     10.684414   3 C  s         
   167     -6.308398   9 C  px              168     -5.619550   9 C  py        
 
 Vector   65  Occ=0.000000D+00  E= 2.443565D-01  Symmetry=a'
              MO Center=  5.2D-02,  1.0D-01,  3.1D-14, r^2= 1.9D+01
   Bfn.  Coefficient  Atom+Function         Bfn.  Coefficient  Atom+Function  
  ----- ------------  ---------------      ----- ------------  ---------------
   128     31.432609   7 C  s                50    -24.837797   3 C  s         
    35     12.435895   2 C  py               27     -9.080085   2 C  s         
    73      7.908401   4 C  s               136      5.601573   7 C  py        
   149      4.430021   8 H  s                80      3.985764   4 C  px        
   160     -3.990121   9 C  s                32     -3.004270   2 C  py        
 
 Vector   66  Occ=0.000000D+00  E= 2.522630D-01  Symmetry=a'
              MO Center=  4.2D-01,  1.6D+00, -1.9D-12, r^2= 2.2D+01
   Bfn.  Coefficient  Atom+Function         Bfn.  Coefficient  Atom+Function  
  ----- ------------  ---------------      ----- ------------  ---------------
   160     41.051961   9 C  s                27    -23.064688   2 C  s         
    73    -22.180311   4 C  s                58    -20.299134   3 C  py        
   128    -14.559309   7 C  s                50     12.972465   3 C  s         
    81    -11.466833   4 C  py              168    -10.351858   9 C  py        
    80     -7.996486   4 C  px              167     -5.903974   9 C  px        
 
 Vector   67  Occ=0.000000D+00  E= 2.535235D-01  Symmetry=a"
              MO Center=  5.8D-01, -1.8D-01,  4.4D-12, r^2= 1.5D+01
   Bfn.  Coefficient  Atom+Function         Bfn.  Coefficient  Atom+Function  
  ----- ------------  ---------------      ----- ------------  ---------------
    36      1.836969   2 C  pz               82     -1.163744   4 C  pz        
   215     -0.994758  11 F  pz              238     -0.994758  12 F  pz        
    59     -0.957359   3 C  pz              206     -0.862057  11 F  s         
   229      0.862057  12 F  s               260      0.825464  14 H  s         
   269     -0.825464  15 H  s                13     -0.667277   1 O  pz        
 
 Vector   68  Occ=0.000000D+00  E= 2.672228D-01  Symmetry=a'
              MO Center= -3.1D-01, -5.6D-01, -2.7D-13, r^2= 1.6D+01
   Bfn.  Coefficient  Atom+Function         Bfn.  Coefficient  Atom+Function  
  ----- ------------  ---------------      ----- ------------  ---------------
    73     32.801525   4 C  s                50    -21.606546   3 C  s         
    58    -19.011332   3 C  py              128    -13.444602   7 C  s         
    27      7.681220   2 C  s                80      6.949935   4 C  px        
   160     -6.372408   9 C  s                35      4.554175   2 C  py        
   136     -3.764898   7 C  py               57      3.623363   3 C  px        
 
 Vector   69  Occ=0.000000D+00  E= 2.810953D-01  Symmetry=a"
              MO Center= -9.4D-01,  5.8D-01,  4.4D-13, r^2= 1.2D+01
   Bfn.  Coefficient  Atom+Function         Bfn.  Coefficient  Atom+Function  
  ----- ------------  ---------------      ----- ------------  ---------------
    59     -3.284735   3 C  pz               36      3.181337   2 C  pz        
    82      2.944774   4 C  pz               13     -2.450767   1 O  pz        
   105     -1.526518   5 O  pz              169     -0.972275   9 C  pz        
   192     -0.642330  10 F  pz               56      0.536015   3 C  pz        
   124      0.500902   6 H  pz               45      0.427551   2 C  d  1      
 
 Vector   70  Occ=0.000000D+00  E= 2.914628D-01  Symmetry=a'
              MO Center=  2.7D-01,  6.3D-01,  1.7D-13, r^2= 1.3D+01
   Bfn.  Coefficient  Atom+Function         Bfn.  Coefficient  Atom+Function  
  ----- ------------  ---------------      ----- ------------  ---------------
    27     53.975508   2 C  s                50    -33.181617   3 C  s         
    73     13.714993   4 C  s               128    -13.562165   7 C  s         
    57     12.327956   3 C  px               58     11.844355   3 C  py        
   160    -11.165968   9 C  s                 4     -6.231451   1 O  s         
   150     -3.487615   8 H  s               168      3.455195   9 C  py        
 
 Vector   71  Occ=0.000000D+00  E= 2.969735D-01  Symmetry=a'
              MO Center= -2.8D-01,  1.7D+00, -4.3D-14, r^2= 1.6D+01
   Bfn.  Coefficient  Atom+Function         Bfn.  Coefficient  Atom+Function  
  ----- ------------  ---------------      ----- ------------  ---------------
    27     36.382895   2 C  s                73    -31.085199   4 C  s         
   128    -20.458134   7 C  s                58     17.405935   3 C  py        
    80    -11.905685   4 C  px              160     11.000492   9 C  s         
    35    -10.815938   2 C  py               50      6.902055   3 C  s         
    34      6.510797   2 C  px               57      5.366998   3 C  px        
 
 Vector   72  Occ=0.000000D+00  E= 3.037976D-01  Symmetry=a"
              MO Center=  6.2D-01,  6.1D-01, -2.1D-12, r^2= 1.5D+01
   Bfn.  Coefficient  Atom+Function         Bfn.  Coefficient  Atom+Function  
  ----- ------------  ---------------      ----- ------------  ---------------
    59      1.200262   3 C  pz               82     -0.983314   4 C  pz        
   213      0.883480  11 F  px              236     -0.883480  12 F  px        
    56      0.834082   3 C  pz              260      0.729212  14 H  s         
   269     -0.729212  15 H  s               259     -0.710613  14 H  s         
   268      0.710613  15 H  s               215      0.655549  11 F  pz        
 
 Vector   73  Occ=0.000000D+00  E= 3.115626D-01  Symmetry=a'
              MO Center= -4.5D-01,  1.2D+00,  8.8D-15, r^2= 1.4D+01
   Bfn.  Coefficient  Atom+Function         Bfn.  Coefficient  Atom+Function  
  ----- ------------  ---------------      ----- ------------  ---------------
    27     40.285107   2 C  s                50    -35.395095   3 C  s         
    73     16.070014   4 C  s               128    -15.817376   7 C  s         
    34     10.353737   2 C  px               35     -8.973898   2 C  py        
    58      7.966558   3 C  py               57      7.785971   3 C  px        
    81     -5.166946   4 C  py               80     -4.060504   4 C  px        
 
 Vector   74  Occ=0.000000D+00  E= 3.186236D-01  Symmetry=a'
              MO Center=  2.0D-01, -4.0D-01, -7.0D-15, r^2= 1.5D+01
   Bfn.  Coefficient  Atom+Function         Bfn.  Coefficient  Atom+Function  
  ----- ------------  ---------------      ----- ------------  ---------------
    27     26.908238   2 C  s                58     15.510579   3 C  py        
    73    -14.582701   4 C  s               128    -12.559583   7 C  s         
   160    -11.574433   9 C  s                34     10.171380   2 C  px        
    81      9.723576   4 C  py               35     -7.898989   2 C  py        
    50      4.589173   3 C  s                57     -4.038524   3 C  px        
 
 Vector   75  Occ=0.000000D+00  E= 3.313359D-01  Symmetry=a"
              MO Center= -7.1D-01,  1.0D+00,  1.3D-13, r^2= 1.4D+01
   Bfn.  Coefficient  Atom+Function         Bfn.  Coefficient  Atom+Function  
  ----- ------------  ---------------      ----- ------------  ---------------
    82      4.205880   4 C  pz              105     -2.710076   5 O  pz        
    59     -1.583913   3 C  pz               36     -1.476828   2 C  pz        
    13      1.311296   1 O  pz              259     -1.124519  14 H  s         
   268      1.124519  15 H  s               169     -1.085614   9 C  pz        
   192      0.987993  10 F  pz               91      0.661028   4 C  d  1      
 
 Vector   76  Occ=0.000000D+00  E= 3.393967D-01  Symmetry=a'
              MO Center= -6.8D-01, -4.1D-02,  3.2D-14, r^2= 1.4D+01
   Bfn.  Coefficient  Atom+Function         Bfn.  Coefficient  Atom+Function  
  ----- ------------  ---------------      ----- ------------  ---------------
    27     53.798595   2 C  s                50    -51.322648   3 C  s         
    73     15.887223   4 C  s                34     10.400926   2 C  px        
   128    -10.104062   7 C  s                 4     -7.978002   1 O  s         
    58      7.852288   3 C  py               35      6.035540   2 C  py        
    81     -5.733332   4 C  py               57      5.479014   3 C  px        
 
 Vector   77  Occ=0.000000D+00  E= 3.455043D-01  Symmetry=a'
              MO Center= -3.0D-01,  9.3D-02,  5.2D-13, r^2= 1.6D+01
   Bfn.  Coefficient  Atom+Function         Bfn.  Coefficient  Atom+Function  
  ----- ------------  ---------------      ----- ------------  ---------------
    50     76.438335   3 C  s                27    -64.315440   2 C  s         
    73    -34.692541   4 C  s               128     26.210474   7 C  s         
    81     17.112690   4 C  py               57    -15.794110   3 C  px        
    34    -11.987188   2 C  px              160     -8.686905   9 C  s         
   150      6.605646   8 H  s                 4      5.404335   1 O  s         
 
 Vector   78  Occ=0.000000D+00  E= 3.471365D-01  Symmetry=a"
              MO Center=  6.1D-01,  6.1D-02,  2.2D-13, r^2= 1.2D+01
   Bfn.  Coefficient  Atom+Function         Bfn.  Coefficient  Atom+Function  
  ----- ------------  ---------------      ----- ------------  ---------------
    36      2.795815   2 C  pz               59     -2.702734   3 C  pz        
   137     -1.848337   7 C  pz              192      1.208367  10 F  pz        
    13     -1.091424   1 O  pz              156      0.757230   8 H  pz        
    82      0.685440   4 C  pz              176      0.616108   9 C  d -1      
   215      0.598057  11 F  pz              238      0.598057  12 F  pz        
 
 Vector   79  Occ=0.000000D+00  E= 3.619314D-01  Symmetry=a'
              MO Center=  6.6D-01,  1.1D-01, -2.6D-12, r^2= 1.3D+01
   Bfn.  Coefficient  Atom+Function         Bfn.  Coefficient  Atom+Function  
  ----- ------------  ---------------      ----- ------------  ---------------
    58     15.071960   3 C  py               73    -11.724529   4 C  s         
    27     11.364227   2 C  s                35    -11.099947   2 C  py        
   128     -6.032657   7 C  s                34      5.416727   2 C  px        
   150      5.341128   8 H  s                57     -5.121546   3 C  px        
    96      5.103499   5 O  s               160     -4.579955   9 C  s         
 
 Vector   80  Occ=0.000000D+00  E= 3.632323D-01  Symmetry=a"
              MO Center= -1.4D-01, -2.1D+00, -2.3D-12, r^2= 1.1D+01
   Bfn.  Coefficient  Atom+Function         Bfn.  Coefficient  Atom+Function  
  ----- ------------  ---------------      ----- ------------  ---------------
   137     -3.975063   7 C  pz               36      3.626355   2 C  pz        
   214      1.380641  11 F  py              237     -1.380641  12 F  py        
    82     -0.918677   4 C  pz              213     -0.887743  11 F  px        
   236      0.887743  12 F  px              144      0.878071   7 C  d -1      
   206     -0.800089  11 F  s               229      0.800089  12 F  s         
 
 Vector   81  Occ=0.000000D+00  E= 3.690127D-01  Symmetry=a'
              MO Center=  5.0D-01,  1.7D+00,  8.4D-14, r^2= 1.2D+01
   Bfn.  Coefficient  Atom+Function         Bfn.  Coefficient  Atom+Function  
  ----- ------------  ---------------      ----- ------------  ---------------
    50     26.200248   3 C  s                27    -21.496698   2 C  s         
    73    -18.326312   4 C  s               128      8.702086   7 C  s         
    80     -6.053559   4 C  px               57     -5.151236   3 C  px        
   150      4.301317   8 H  s                 4      3.618654   1 O  s         
    58      3.615701   3 C  py              160      3.571189   9 C  s         
 
 Vector   82  Occ=0.000000D+00  E= 3.816616D-01  Symmetry=a'
              MO Center=  5.0D-02,  5.6D-01,  3.3D-13, r^2= 1.6D+01
   Bfn.  Coefficient  Atom+Function         Bfn.  Coefficient  Atom+Function  
  ----- ------------  ---------------      ----- ------------  ---------------
    73     47.392268   4 C  s                50    -26.302172   3 C  s         
    58    -20.328752   3 C  py              160    -15.700934   9 C  s         
    35     13.901960   2 C  py               80     12.047145   4 C  px        
    81      8.128380   4 C  py               96     -6.174702   5 O  s         
   128      5.580483   7 C  s                 4     -5.239904   1 O  s         
 
 Vector   83  Occ=0.000000D+00  E= 3.822119D-01  Symmetry=a'
              MO Center=  4.7D-01, -3.1D-01, -1.5D-15, r^2= 1.8D+01
   Bfn.  Coefficient  Atom+Function         Bfn.  Coefficient  Atom+Function  
  ----- ------------  ---------------      ----- ------------  ---------------
    73     31.634287   4 C  s                27    -26.959712   2 C  s         
   160    -20.854731   9 C  s                58    -17.130462   3 C  py        
    80     15.804614   4 C  px               81     14.883569   4 C  py        
   128     13.066574   7 C  s                35      9.986416   2 C  py        
    34     -9.435512   2 C  px               57     -7.774511   3 C  px        
 
 Vector   84  Occ=0.000000D+00  E= 3.851635D-01  Symmetry=a"
              MO Center=  2.4D-01, -8.4D-01, -9.7D-13, r^2= 1.4D+01
   Bfn.  Coefficient  Atom+Function         Bfn.  Coefficient  Atom+Function  
  ----- ------------  ---------------      ----- ------------  ---------------
    36      4.001411   2 C  pz               13     -1.783781   1 O  pz        
   259      1.547416  14 H  s               268     -1.547416  15 H  s         
   192      1.382014  10 F  pz               59     -1.345288   3 C  pz        
   137     -1.282996   7 C  pz              213      1.009127  11 F  px        
   236     -1.009127  12 F  px              214      0.935842  11 F  py        
 
 Vector   85  Occ=0.000000D+00  E= 3.972604D-01  Symmetry=a"
              MO Center=  3.9D-01, -1.0D+00,  1.3D-12, r^2= 1.4D+01
   Bfn.  Coefficient  Atom+Function         Bfn.  Coefficient  Atom+Function  
  ----- ------------  ---------------      ----- ------------  ---------------
   137      2.723583   7 C  pz              215     -2.723194  11 F  pz        
   238     -2.723194  12 F  pz               36      2.098550   2 C  pz        
    59     -2.107245   3 C  pz              192     -1.770820  10 F  pz        
   206     -1.511117  11 F  s               229      1.511117  12 F  s         
   169      1.500726   9 C  pz               82     -0.984408   4 C  pz        
 
 Vector   86  Occ=0.000000D+00  E= 3.988650D-01  Symmetry=a'
              MO Center=  7.1D-01,  1.3D+00, -1.7D-15, r^2= 1.5D+01
   Bfn.  Coefficient  Atom+Function         Bfn.  Coefficient  Atom+Function  
  ----- ------------  ---------------      ----- ------------  ---------------
    27     16.389483   2 C  s               160      9.073344   9 C  s         
    57      8.158306   3 C  px               50     -7.702220   3 C  s         
    73     -7.224788   4 C  s                58      6.195914   3 C  py        
    81     -6.055012   4 C  py              250     -5.336646  13 H  s         
    26      4.984548   2 C  s                80     -4.793387   4 C  px        
 
 Vector   87  Occ=0.000000D+00  E= 4.166979D-01  Symmetry=a'
              MO Center=  3.7D-01,  6.7D-01, -1.9D-14, r^2= 1.6D+01
   Bfn.  Coefficient  Atom+Function         Bfn.  Coefficient  Atom+Function  
  ----- ------------  ---------------      ----- ------------  ---------------
    35     12.583621   2 C  py              128     11.459859   7 C  s         
    81      8.574654   4 C  py               27     -7.295731   2 C  s         
    58     -7.063199   3 C  py               50      6.434430   3 C  s         
     4     -6.255516   1 O  s                73     -3.554403   4 C  s         
   259     -3.261788  14 H  s               268     -3.261788  15 H  s         
 
 Vector   88  Occ=0.000000D+00  E= 4.195514D-01  Symmetry=a'
              MO Center=  5.3D-01, -9.3D-01,  1.1D-14, r^2= 1.2D+01
   Bfn.  Coefficient  Atom+Function         Bfn.  Coefficient  Atom+Function  
  ----- ------------  ---------------      ----- ------------  ---------------
[...]
          32    -0.02470    -0.01364     0.01961    -0.00453    -0.00408     0.00230
          33    -0.02876    -0.01015     0.01512    -0.00334    -0.00348     0.00189
          34    -0.02652    -0.00062     0.00310    -0.00020    -0.00106     0.00042
          35    -0.02470    -0.01364     0.01961    -0.00453    -0.00408     0.00230
          36     0.02876     0.01015    -0.01512     0.00334     0.00348    -0.00189
          37     0.04463     0.26387     0.20005     0.33682     0.14321     0.38506
          38     0.03656     0.21922     0.12772     0.13718     0.03613     0.17108
          39     0.00000    -0.00000     0.00000    -0.00000    -0.00000     0.00000
          40     0.01241     0.08847     0.12747     0.25152    -0.03025    -0.43080
          41     0.00142    -0.00501     0.10767     0.33151     0.19243     0.21698
          42    -0.00874    -0.07390    -0.09510    -0.19873     0.02910     0.34225
          43     0.01241     0.08847     0.12747     0.25152    -0.03025    -0.43080
          44     0.00142    -0.00501     0.10767     0.33151     0.19243     0.21698
          45     0.00874     0.07390     0.09510     0.19873    -0.02910    -0.34225

                   37          38          39          40          41          42
 
 P.Frequency     1466.16     1471.05     1653.14     1704.54     3066.80     3091.03
 
           1    -0.00000     0.08665    -0.00521     0.03637    -0.00078     0.00943
           2    -0.00000    -0.01212     0.02235     0.01871     0.00562    -0.05796
           3     0.00005     0.00000    -0.00000     0.00000    -0.00000    -0.00000
           4     0.00000    -0.18190     0.03274    -0.11163    -0.00129     0.01205
           5     0.00000     0.03752    -0.07436    -0.15717     0.00005    -0.00226
           6     0.00063    -0.00000    -0.00000    -0.00000    -0.00000    -0.00000
           7    -0.00000     0.04022    -0.01481     0.08111     0.00026    -0.00095
           8     0.00000    -0.06973     0.04154     0.13790     0.00067    -0.00737
           9     0.00512    -0.00000     0.00000     0.00000     0.00000     0.00000
          10    -0.00000     0.05789     0.20018    -0.07385     0.00213    -0.01008
          11     0.00000     0.09274    -0.03780    -0.01979     0.00133     0.00930
          12    -0.02270    -0.00000     0.00000    -0.00000     0.00000     0.00000
          13     0.00000    -0.03089    -0.11228     0.04413    -0.00056     0.00797
          14     0.00000    -0.00272     0.02015    -0.00419    -0.00020     0.00009
          15     0.00141     0.00000     0.00000     0.00000     0.00000    -0.00000
          16     0.00000    -0.11097    -0.35977    -0.24427     0.02728    -0.27751
          17     0.00000    -0.03127    -0.04174    -0.04902    -0.08803     0.91919
          18     0.00140     0.00000    -0.00000     0.00000    -0.00000     0.00000
          19     0.00000     0.03012    -0.00650    -0.00034    -0.00000    -0.00034
          20     0.00000    -0.05572     0.03347     0.04263    -0.00018     0.00127
          21    -0.00157    -0.00000     0.00000    -0.00000    -0.00000     0.00000
          22    -0.00000     0.12102    -0.01791     0.04241    -0.00296    -0.01301
          23     0.00000     0.31870     0.00970    -0.16613     0.00133    -0.00580
          24    -0.00707    -0.00000     0.00000     0.00000     0.00000     0.00000
          25     0.00000    -0.02655    -0.02071     0.00925    -0.04321    -0.00122
          26    -0.00000    -0.03719    -0.00771     0.00465    -0.02542    -0.00463
          27    -0.05204     0.00000     0.00000    -0.00000     0.00000    -0.00000
          28     0.00000    -0.00332     0.00234     0.00449     0.00004    -0.00044
          29    -0.00000     0.00023    -0.00198    -0.00441    -0.00002     0.00023
          30     0.00009     0.00000    -0.00000    -0.00000     0.00000    -0.00000
          31     0.00004     0.00026    -0.00067    -0.00090     0.00001    -0.00011
          32    -0.00004     0.00812    -0.00262    -0.00016     0.00001    -0.00005
          33     0.00017     0.00616    -0.00199    -0.00012     0.00001    -0.00006
          34    -0.00004     0.00026    -0.00067    -0.00090     0.00001    -0.00011
          35     0.00004     0.00812    -0.00262    -0.00016     0.00001    -0.00005
          36     0.00017    -0.00616     0.00199     0.00012    -0.00001     0.00006
          37     0.00000    -0.01638     0.10491    -0.03327    -0.21314    -0.03317
          38    -0.00000    -0.03481     0.05340    -0.01522     0.37454     0.05072
          39     0.70440     0.00000     0.00000     0.00000     0.00000     0.00000
          40    -0.06627     0.06467    -0.07725     0.02171     0.35498     0.03326
          41     0.47032     0.02889    -0.01278    -0.00440    -0.04666    -0.00208
          42     0.05508    -0.06126     0.04151    -0.00977     0.50552     0.04180
          43     0.06627     0.06467    -0.07725     0.02171     0.35498     0.03326
          44    -0.47032     0.02889    -0.01278    -0.00440    -0.04666    -0.00208
          45     0.05508     0.06126    -0.04151     0.00977    -0.50552    -0.04180

                   43          44          45
 
 P.Frequency     3152.65     3202.56     3278.62
 
           1    -0.00000    -0.00037     0.00088
           2    -0.00000     0.00135    -0.00060
           3     0.00005    -0.00000    -0.00000
           4    -0.00000     0.00006     0.00252
           5     0.00000     0.00020     0.00414
           6    -0.00011    -0.00000     0.00000
           7    -0.00000    -0.00094    -0.08309
           8     0.00000     0.00039     0.01316
           9    -0.00015     0.00000    -0.00000
          10     0.00000     0.00235     0.00018
          11     0.00000    -0.00077    -0.00282
          12     0.00117    -0.00000     0.00000
          13     0.00000    -0.00069     0.00065
          14    -0.00000     0.00029    -0.00021
          15     0.00011    -0.00000    -0.00000
          16    -0.00000     0.00544    -0.00041
          17    -0.00000    -0.02177     0.01129
          18     0.00021    -0.00000    -0.00000
          19     0.00000     0.00001    -0.00066
          20     0.00000     0.00006    -0.00029
          21     0.00001     0.00000    -0.00000
          22    -0.00000     0.00879     0.93595
          23    -0.00000    -0.00006    -0.17696
          24     0.00113     0.00000    -0.00000
          25     0.00000     0.06026    -0.00070
          26     0.00000    -0.06506     0.00072
          27     0.08688     0.00000     0.00000
          28     0.00000     0.00001     0.00015
          29    -0.00000    -0.00001     0.00038
          30    -0.00000     0.00000     0.00000
          31    -0.00000    -0.00000     0.00003
          32    -0.00000    -0.00002    -0.00006
          33    -0.00000    -0.00001    -0.00003
          34     0.00000    -0.00000     0.00003
          35     0.00000    -0.00002    -0.00006
          36    -0.00000     0.00001     0.00003
          37     0.00000    -0.40819     0.00389
          38     0.00000     0.75040    -0.00432
          39     0.01877     0.00000    -0.00000
          40    -0.40433    -0.16214     0.00291
          41     0.04909     0.01117     0.00023
          42    -0.53396    -0.24015     0.00451
          43     0.40433    -0.16214     0.00291
          44    -0.04909     0.01117     0.00023
          45    -0.53396     0.24015    -0.00451



 ----------------------------------------------------------------------------
 Normal Eigenvalue ||    Projected Derivative Dipole Moments (debye/angs)
  Mode   [cm**-1]  ||      [d/dqX]             [d/dqY]           [d/dqZ]
 ------ ---------- || ------------------ ------------------ -----------------
    1        0.000 ||      -0.016               0.016            -0.112
    2        0.000 ||       0.054              -0.056            -0.007
    3        0.000 ||      -0.036               0.037             0.153
    4        0.000 ||       0.005              -0.006             0.044
    5        0.000 ||       0.015              -0.015            -0.000
    6        0.000 ||      -0.055               0.058            -0.070
    7       40.086 ||      -0.000               0.000             0.126
    8       93.099 ||      -0.000               0.000             0.116
    9      121.623 ||       0.000               0.000             0.178
   10      134.262 ||      -0.000               0.000            -0.129
   11      158.059 ||       0.102               0.242            -0.000
   12      282.502 ||      -0.079              -0.184            -0.000
   13      295.951 ||      -0.000               0.000            -0.012
   14      303.743 ||      -0.074               0.143             0.000
   15      372.083 ||      -0.279               0.007            -0.000
   16      422.854 ||      -0.089               0.076             0.000
   17      499.741 ||      -0.000               0.000            -0.155
   18      567.838 ||       0.169               0.879             0.000
   19      577.694 ||       0.012               0.653             0.000
   20      592.009 ||       0.000               0.000            -0.003
   21      708.689 ||       0.283              -0.317            -0.000
   22      718.756 ||       0.000               0.000            -0.205
   23      796.491 ||      -0.000               0.000             0.960
   24      848.834 ||      -0.128               0.628            -0.000
   25      931.155 ||       0.020               0.338            -0.000
   26      946.445 ||      -0.000              -0.000             1.104
   27      993.643 ||      -0.267              -0.384            -0.000
   28     1031.099 ||       0.000               0.000            -0.121
   29     1112.086 ||       0.805              -0.874             0.000
   30     1158.058 ||       0.000               0.000            -2.547
   31     1185.463 ||       2.387               0.885             0.000
   32     1228.319 ||      -1.143              -0.085            -0.000
   33     1323.348 ||      -0.462              -3.057             0.000
   34     1376.318 ||       1.156               1.091            -0.000
   35     1415.220 ||      -0.591               1.817             0.000
   36     1456.287 ||       0.615               0.320             0.000
   37     1466.162 ||      -0.000               0.000             0.447
   38     1471.051 ||      -0.787              -0.333            -0.000
   39     1653.140 ||       0.758              -0.803             0.000
   40     1704.538 ||      -1.862              -1.514            -0.000
   41     3066.803 ||       0.096               0.231             0.000
   42     3091.033 ||      -0.398               2.644             0.000
   43     3152.649 ||      -0.000              -0.000            -0.261
   44     3202.562 ||       0.048              -0.412             0.000
   45     3278.623 ||       0.171               0.008            -0.000
 ----------------------------------------------------------------------------



  
  
 ----------------------------------------------------------------------------
 Normal Eigenvalue ||           Projected Infra Red Intensities
  Mode   [cm**-1]  || [atomic units] [(debye/angs)**2] [(KM/mol)] [arbitrary]
 ------ ---------- || -------------- ----------------- ---------- -----------
    1        0.000 ||    0.000570           0.013         0.555       0.114
    2        0.000 ||    0.000261           0.006         0.255       0.052
    3        0.000 ||    0.001137           0.026         1.109       0.227
    4        0.000 ||    0.000085           0.002         0.083       0.017
    5        0.000 ||    0.000020           0.000         0.019       0.004
    6        0.000 ||    0.000488           0.011         0.476       0.097
    7       40.086 ||    0.000688           0.016         0.670       0.137
    8       93.099 ||    0.000579           0.013         0.564       0.115
    9      121.623 ||    0.001371           0.032         1.336       0.273
   10      134.262 ||    0.000723           0.017         0.705       0.144
   11      158.059 ||    0.003004           0.069         2.928       0.599
   12      282.502 ||    0.001737           0.040         1.693       0.346
   13      295.951 ||    0.000007           0.000         0.006       0.001
   14      303.743 ||    0.001129           0.026         1.101       0.225
   15      372.083 ||    0.003387           0.078         3.302       0.676
   16      422.854 ||    0.000597           0.014         0.582       0.119
   17      499.741 ||    0.001048           0.024         1.021       0.209
   18      567.838 ||    0.034744           0.802        33.870       6.932
   19      577.694 ||    0.018493           0.427        18.028       3.690
   20      592.009 ||    0.000000           0.000         0.000       0.000
   21      708.689 ||    0.007836           0.181         7.639       1.563
   22      718.756 ||    0.001821           0.042         1.775       0.363
   23      796.491 ||    0.039944           0.922        38.939       7.969
   24      848.834 ||    0.017830           0.411        17.382       3.557
   25      931.155 ||    0.004958           0.114         4.833       0.989
   26      946.445 ||    0.052815           1.218        51.487      10.537
   27      993.643 ||    0.009466           0.218         9.228       1.889
   28     1031.099 ||    0.000632           0.015         0.616       0.126
   29     1112.086 ||    0.061189           1.412        59.650      12.208
   30     1158.058 ||    0.281096           6.485       274.027      56.082
   31     1185.463 ||    0.280886           6.480       273.822      56.040
   32     1228.319 ||    0.056898           1.313        55.467      11.352
   33     1323.348 ||    0.414312           9.559       403.892      82.660
   34     1376.318 ||    0.109483           2.526       106.729      21.843
   35     1415.220 ||    0.158326           3.653       154.344      31.588
   36     1456.287 ||    0.020869           0.481        20.344       4.164
   37     1466.162 ||    0.008653           0.200         8.435       1.726
   38     1471.051 ||    0.031646           0.730        30.850       6.314
   39     1653.140 ||    0.052856           1.219        51.527      10.545
   40     1704.538 ||    0.249614           5.759       243.336      49.801
   41     3066.803 ||    0.002710           0.063         2.641       0.541
   42     3091.033 ||    0.309940           7.151       302.144      61.837
   43     3152.649 ||    0.002946           0.068         2.872       0.588
   44     3202.562 ||    0.007444           0.172         7.257       1.485
   45     3278.623 ||    0.001267           0.029         1.235       0.253
 ----------------------------------------------------------------------------



 vib:animation  F

 Task  times  cpu:   102417.7s     wall:   102875.2s
 
 
                                NWChem Input Module
                                -------------------
 
 
 Summary of allocated global arrays
-----------------------------------
  No active global arrays



                         GA Statistics for process    0
                         ------------------------------

       create   destroy   get      put      acc     scatter   gather  read&inc
calls: 1.05e+05 1.05e+05 4.45e+07 4.80e+06 1.85e+07    0        0     6.02e+05 
number of processes/call 3.10e+01 1.18e+02 4.61e+01 0.00e+00 0.00e+00
bytes total:             4.53e+10 1.04e+11 1.40e+10 0.00e+00 0.00e+00 4.81e+06
bytes remote:            1.83e+10 7.26e+10 9.17e+09 0.00e+00 0.00e+00 0.00e+00
Max memory consumed for GA by this process: 157850008 bytes
 
MA_summarize_allocated_blocks: starting scan ...
MA_summarize_allocated_blocks: scan completed: 0 heap blocks, 0 stack blocks
MA usage statistics:

	allocation statistics:
					      heap	     stack
					      ----	     -----
	current number of blocks	         0	         0
	maximum number of blocks	        25	        39
	current total bytes		         0	         0
	maximum total bytes		  77601680	  26269720
	maximum total K-bytes		     77602	     26270
	maximum total M-bytes		        78	        27
 
 
                                     CITATION
                                     --------
                Please cite the following reference when publishing
                           results obtained with NWChem:
 
          E. Apr, E. J. Bylaska, W. A. de Jong, N. Govind, K. Kowalski,
       T. P. Straatsma, M. Valiev, H. J. J. van Dam, Y. Alexeev, J. Anchell,
       V. Anisimov, F. W. Aquino, R. Atta-Fynn, J. Autschbach, N. P. Bauman,
     J. C. Becca, D. E. Bernholdt, K. Bhaskaran-Nair, S. Bogatko, P. Borowski,
        J. Boschen, J. Brabec, A. Bruner, E. Caut, Y. Chen, G. N. Chuev,
      C. J. Cramer, J. Daily, M. J. O. Deegan, T. H. Dunning Jr., M. Dupuis,
   K. G. Dyall, G. I. Fann, S. A. Fischer, A. Fonari, H. Frchtl, L. Gagliardi,
      J. Garza, N. Gawande, S. Ghosh, K. Glaesemann, A. W. Gtz, J. Hammond,
       V. Helms, E. D. Hermes, K. Hirao, S. Hirata, M. Jacquelin, L. Jensen,
   B. G. Johnson, H. Jnsson, R. A. Kendall, M. Klemm, R. Kobayashi, V. Konkov,
      S. Krishnamoorthy, M. Krishnan, Z. Lin, R. D. Lins, R. J. Littlefield,
      A. J. Logsdail, K. Lopata, W. Ma, A. V. Marenich, J. Martin del Campo,
   D. Mejia-Rodriguez, J. E. Moore, J. M. Mullin, T. Nakajima, D. R. Nascimento,
    J. A. Nichols, P. J. Nichols, J. Nieplocha, A. Otero-de-la-Roza, B. Palmer,
    A. Panyala, T. Pirojsirikul, B. Peng, R. Peverati, J. Pittner, L. Pollack,
   R. M. Richard, P. Sadayappan, G. C. Schatz, W. A. Shelton, D. W. Silverstein,
   D. M. A. Smith, T. A. Soares, D. Song, M. Swart, H. L. Taylor, G. S. Thomas,
            V. Tipparaju, D. G. Truhlar, K. Tsemekhman, T. Van Voorhis,
     . Vzquez-Mayagoitia, P. Verma, O. Villa, A. Vishnu, K. D. Vogiatzis,
        D. Wang, J. H. Weare, M. J. Williamson, T. L. Windus, K. Woliski,
        A. T. Wong, Q. Wu, C. Yang, Q. Yu, M. Zacharias, Z. Zhang, Y. Zhao,
                                and R. J. Harrison
                        "NWChem: Past, present, and future
                         J. Chem. Phys. 152, 184102 (2020)
                               doi:10.1063/5.0004997
 
                                      AUTHORS
                                      -------
     E. Apra, E. J. Bylaska, N. Govind, K. Kowalski, M. Valiev, W. A. de Jong,
      T. P. Straatsma, H. J. J. van Dam, D. Wang, T. L. Windus, N. P. Bauman,
       A. Panyala, J. Hammond, J. Autschbach, K. Bhaskaran-Nair, J. Brabec,
    K. Lopata, S. A. Fischer, S. Krishnamoorthy, M. Jacquelin, W. Ma, M. Klemm,
       O. Villa, Y. Chen, V. Anisimov, F. Aquino, S. Hirata, M. T. Hackler,
           Eric Hermes, L. Jensen, J. E. Moore, J. C. Becca, V. Konjkov,
            D. Mejia-Rodriguez, T. Risthaus, M. Malagoli, A. Marenich,
   A. Otero-de-la-Roza, J. Mullin, P. Nichols, R. Peverati, J. Pittner, Y. Zhao,
        P.-D. Fan, A. Fonari, M. J. Williamson, R. J. Harrison, J. R. Rehr,
      M. Dupuis, D. Silverstein, D. M. A. Smith, J. Nieplocha, V. Tipparaju,
      M. Krishnan, B. E. Van Kuiken, A. Vazquez-Mayagoitia, M. Swart, Q. Wu,
   T. Van Voorhis, A. A. Auer, M. Nooijen, L. D. Crosby, E. Brown, G. Cisneros,
     G. I. Fann, H. Fruchtl, J. Garza, K. Hirao, R. A. Kendall, J. A. Nichols,
       K. Tsemekhman, K. Wolinski, J. Anchell, D. E. Bernholdt, P. Borowski,
       T. Clark, D. Clerc, H. Dachsel, M. J. O. Deegan, K. Dyall, D. Elwood,
      E. Glendening, M. Gutowski, A. C. Hess, J. Jaffe, B. G. Johnson, J. Ju,
        R. Kobayashi, R. Kutteh, Z. Lin, R. Littlefield, X. Long, B. Meng,
      T. Nakajima, S. Niu, L. Pollack, M. Rosing, K. Glaesemann, G. Sandrone,
      M. Stave, H. Taylor, G. Thomas, J. H. van Lenthe, A. T. Wong, Z. Zhang.

 Total times  cpu:   119578.9s     wall:   120150.7s
