 argument  1 = 6R2.nw
  NWChem w/ OpenMP: maximum threads =    1



============================== echo of input deck ==============================
echo
start 6R2
title "6 Ref Open"
memory stack 17500 mb heap 1000 mb global 4500 mb noverify
charge 0

geometry noautoz noautosym
O       -1.1539434206      1.4973086710     -0.2101809985
C        0.0849464894      0.9084084110     -0.2101809985
C        1.2224696594      1.6276297710     -0.2101809985
H       -1.8019031275      0.9101363014     -0.6589617003
C        0.0721753994     -0.5983179590     -0.2101809985
H        2.1843281394      1.1202054710     -0.2101809985
H        1.1772419794      2.7169869310     -0.2101809985
F        1.3026273294     -1.1430849690     -0.2101809985
F       -0.5982481906     -1.0752054890     -1.3003286485
F       -0.5982481906     -1.0752054890      0.8799666515
end

set lindep:n_dep 0

set cphf:maxsub 95
set cphf:maxiter 999
set int:acc_std 1d-16
set fock:densityscreen f

scf
 maxiter 99
 vectors input atomic
 thresh 1d-9
 tol2e 1d-15
end

mp2
 freeze atomic
 tight
end

driver
 clear
 maxiter 999
 tight
end

set "mp2:aotol2e fock" 1d-15
set mp2:aotol2e 1d-15
set mp2:backtol 1d-15

basis spherical
 * library aug-cc-pVDZ
end

task mp2 optimize
task mp2 frequencies


================================================================================


                                         
                                         


             Northwest Computational Chemistry Package (NWChem) 7.2.0
             --------------------------------------------------------


                    Environmental Molecular Sciences Laboratory
                       Pacific Northwest National Laboratory
                                Richland, WA 99352

                              Copyright (c) 1994-2022
                       Pacific Northwest National Laboratory
                            Battelle Memorial Institute

             NWChem is an open-source computational chemistry package
                        distributed under the terms of the
                      Educational Community License (ECL) 2.0
             A copy of the license is included with this distribution
                              in the LICENSE.TXT file

                                  ACKNOWLEDGMENT
                                  --------------

            This software and its documentation were developed at the
            EMSL at Pacific Northwest National Laboratory, a multiprogram
            national laboratory, operated for the U.S. Department of Energy
            by Battelle under Contract Number DE-AC05-76RL01830. Support
            for this work was provided by the Department of Energy Office
            of Biological and Environmental Research, Office of Basic
            Energy Sciences, and the Office of Advanced Scientific Computing.


           Job information
           ---------------

    hostname        = nid006398
    program         = nwchem
    date            = Wed Apr  2 12:54:46 2025

    compiled        = Fri_Sep_29_01:47:45_2023
    source          = /opt/nwchem
    nwchem branch   = 7.2.0
    nwchem revision = v7.2.0-beta1-323-g0ec4a55be4
    ga revision     = 5.8.0
    use scalapack   = T
    input           = 6R2.nw
    prefix          = 6R2.
    data base       = ./6R2.db
    status          = startup
    nproc           =       63
    time left       =     -1s



           Memory information
           ------------------

    heap     =  131071996 doubles =   1000.0 Mbytes
    stack    = 2293760001 doubles =  17500.0 Mbytes
    global   =  589824000 doubles =   4500.0 Mbytes (distinct from heap & stack)
    total    = 3014655997 doubles =  23000.0 Mbytes
    verify   = no 
    hardfail = no 


           Directory information
           ---------------------

  0 permanent = .
  0 scratch   = .




                                NWChem Input Module
                                -------------------


                                    6 Ref Open
                                    ----------

 Scaling coordinates for geometry "geometry" by  1.889725989
 (inverse scale =  0.529177249)



                             Geometry "geometry" -> ""
                             -------------------------

 Output coordinates in angstroms (scale by  1.889725989 to convert to a.u.)

  No.       Tag          Charge          X              Y              Z
 ---- ---------------- ---------- -------------- -------------- --------------
    1 O                    8.0000    -1.18181570     1.52033267     0.00801394
    2 C                    6.0000     0.05707421     0.93143241     0.00801394
    3 C                    6.0000     1.19459738     1.65065377     0.00801394
    4 H                    1.0000    -1.82977540     0.93316030    -0.44076676
    5 C                    6.0000     0.04430312    -0.57529396     0.00801394
    6 H                    1.0000     2.15645586     1.14322947     0.00801394
    7 H                    1.0000     1.14936970     2.74001093     0.00801394
    8 F                    9.0000     1.27475505    -1.12006097     0.00801394
    9 F                    9.0000    -0.62612047    -1.05218149    -1.08213371
   10 F                    9.0000    -0.62612047    -1.05218149     1.09816159

      Atomic Mass 
      ----------- 

      O                 15.994910
      C                 12.000000
      H                  1.007825
      F                 18.998400


 Effective nuclear repulsion energy (a.u.)     331.8209712935

            Nuclear Dipole moment (a.u.) 
            ----------------------------
        X                 Y               Z
 ---------------- ---------------- ----------------
     0.0000000000     0.0000000000    -0.0000000000


            XYZ format geometry
            -------------------
    10
 geometry
 O                    -1.18181570     1.52033267     0.00801394
 C                     0.05707421     0.93143241     0.00801394
 C                     1.19459738     1.65065377     0.00801394
 H                    -1.82977540     0.93316030    -0.44076676
 C                     0.04430312    -0.57529396     0.00801394
 H                     2.15645586     1.14322947     0.00801394
 H                     1.14936970     2.74001093     0.00801394
 F                     1.27475505    -1.12006097     0.00801394
 F                    -0.62612047    -1.05218149    -1.08213371
 F                    -0.62612047    -1.05218149     1.09816159

 ==============================================================================
                                internuclear distances
 ------------------------------------------------------------------------------
       center one      |      center two      | atomic units |  angstroms
 ------------------------------------------------------------------------------
    2 C                |   1 O                |     2.59220  |     1.37173
    3 C                |   2 C                |     2.54324  |     1.34582
    4 H                |   1 O                |     1.85735  |     0.98287
    5 C                |   2 C                |     2.84740  |     1.50678
    6 H                |   3 C                |     2.05507  |     1.08750
    7 H                |   3 C                |     2.06036  |     1.09030
    8 F                |   5 C                |     2.54292  |     1.34565
    9 F                |   5 C                |     2.58092  |     1.36576
   10 F                |   5 C                |     2.58092  |     1.36576
 ------------------------------------------------------------------------------
                         number of included internuclear distances:          9
 ==============================================================================



 ==============================================================================
                                 internuclear angles
 ------------------------------------------------------------------------------
        center 1       |       center 2       |       center 3       |  degrees
 ------------------------------------------------------------------------------
    2 C                |   1 O                |   4 H                |   109.81
    1 O                |   2 C                |   3 C                |   122.27
    1 O                |   2 C                |   5 C                |   114.94
    3 C                |   2 C                |   5 C                |   122.79
    2 C                |   3 C                |   6 H                |   119.88
    2 C                |   3 C                |   7 H                |   119.93
    6 H                |   3 C                |   7 H                |   120.19
    2 C                |   5 C                |   8 F                |   113.40
    2 C                |   5 C                |   9 F                |   110.69
    2 C                |   5 C                |  10 F                |   110.69
    8 F                |   5 C                |   9 F                |   107.91
    8 F                |   5 C                |  10 F                |   107.91
    9 F                |   5 C                |  10 F                |   105.92
 ------------------------------------------------------------------------------
                            number of included internuclear angles:         13
 ==============================================================================




  Deleted DRIVER restart files 



 Summary of "ao basis" -> "" (spherical)
 ------------------------------------------------------------------------------
       Tag                 Description            Shells   Functions and Types
 ---------------- ------------------------------  ------  ---------------------
 *                        aug-cc-pVDZ                 on all atoms 




                           NWChem Geometry Optimization
                           ----------------------------




                                    6 Ref Open


 maximum gradient threshold         (gmax) =   0.000015
 rms gradient threshold             (grms) =   0.000010
 maximum cartesian step threshold   (xmax) =   0.000060
 rms cartesian step threshold       (xrms) =   0.000040
 fixed trust radius                (trust) =   0.300000
 maximum step size to saddle      (sadstp) =   0.100000
 energy precision                  (eprec) =   1.0D-07
 maximum number of steps          (nptopt) =  999
 initial hessian option           (inhess) =    0
 line search option               (linopt) =    1
 hessian update option            (modupd) =    1
 saddle point option              (modsad) =    0
 initial eigen-mode to follow     (moddir) =    0
 initial variable to follow       (vardir) =    0
 follow first negative mode     (firstneg) =    T
 apply conjugacy                    (opcg) =    F
 source of zmatrix                         =           


          -------------------
          Energy Minimization
          -------------------


 Using diagonal initial Hessian 

          --------
          Step   0
          --------


                         Geometry "geometry" -> "geometry"
                         ---------------------------------

 Output coordinates in angstroms (scale by  1.889725989 to convert to a.u.)

  No.       Tag          Charge          X              Y              Z
 ---- ---------------- ---------- -------------- -------------- --------------
    1 O                    8.0000    -1.18181570     1.52033267     0.00801394
    2 C                    6.0000     0.05707421     0.93143241     0.00801394
    3 C                    6.0000     1.19459738     1.65065377     0.00801394
    4 H                    1.0000    -1.82977540     0.93316030    -0.44076676
    5 C                    6.0000     0.04430312    -0.57529396     0.00801394
    6 H                    1.0000     2.15645586     1.14322947     0.00801394
    7 H                    1.0000     1.14936970     2.74001093     0.00801394
    8 F                    9.0000     1.27475505    -1.12006097     0.00801394
    9 F                    9.0000    -0.62612047    -1.05218149    -1.08213371
   10 F                    9.0000    -0.62612047    -1.05218149     1.09816159

      Atomic Mass 
      ----------- 

      O                 15.994910
      C                 12.000000
      H                  1.007825
      F                 18.998400


 Effective nuclear repulsion energy (a.u.)     331.8209712935

            Nuclear Dipole moment (a.u.) 
            ----------------------------
        X                 Y               Z
 ---------------- ---------------- ----------------
     0.0000000000     0.0000000000    -0.0000000000

                      Basis "ao basis" -> "ao basis" (spherical)
                      -----
  O (Oxygen)
  ----------
            Exponent  Coefficients 
       -------------- ---------------------------------------------------------
  1 S  1.17200000E+04  0.000710
  1 S  1.75900000E+03  0.005470
  1 S  4.00800000E+02  0.027837
  1 S  1.13700000E+02  0.104800
  1 S  3.70300000E+01  0.283062
  1 S  1.32700000E+01  0.448719
  1 S  5.02500000E+00  0.270952
  1 S  1.01300000E+00  0.015458

  2 S  1.17200000E+04 -0.000160
  2 S  1.75900000E+03 -0.001263
  2 S  4.00800000E+02 -0.006267
  2 S  1.13700000E+02 -0.025716
  2 S  3.70300000E+01 -0.070924
  2 S  1.32700000E+01 -0.165411
  2 S  5.02500000E+00 -0.116955
  2 S  1.01300000E+00  0.557368

  3 S  3.02300000E-01  1.000000

  4 S  7.89600000E-02  1.000000

  5 P  1.77000000E+01  0.043018
  5 P  3.85400000E+00  0.228913
  5 P  1.04600000E+00  0.508728

  6 P  2.75300000E-01  1.000000

  7 P  6.85600000E-02  1.000000

  8 D  1.18500000E+00  1.000000

  9 D  3.32000000E-01  1.000000

  C (Carbon)
  ----------
            Exponent  Coefficients 
       -------------- ---------------------------------------------------------
  1 S  6.66500000E+03  0.000692
  1 S  1.00000000E+03  0.005329
  1 S  2.28000000E+02  0.027077
  1 S  6.47100000E+01  0.101718
  1 S  2.10600000E+01  0.274740
  1 S  7.49500000E+00  0.448564
  1 S  2.79700000E+00  0.285074
  1 S  5.21500000E-01  0.015204

  2 S  6.66500000E+03 -0.000146
  2 S  1.00000000E+03 -0.001154
  2 S  2.28000000E+02 -0.005725
  2 S  6.47100000E+01 -0.023312
  2 S  2.10600000E+01 -0.063955
  2 S  7.49500000E+00 -0.149981
  2 S  2.79700000E+00 -0.127262
  2 S  5.21500000E-01  0.544529

  3 S  1.59600000E-01  1.000000

  4 S  4.69000000E-02  1.000000

  5 P  9.43900000E+00  0.038109
  5 P  2.00200000E+00  0.209480
  5 P  5.45600000E-01  0.508557

  6 P  1.51700000E-01  1.000000

  7 P  4.04100000E-02  1.000000

  8 D  5.50000000E-01  1.000000

  9 D  1.51000000E-01  1.000000

  H (Hydrogen)
  ------------
            Exponent  Coefficients 
       -------------- ---------------------------------------------------------
  1 S  1.30100000E+01  0.019685
  1 S  1.96200000E+00  0.137977
  1 S  4.44600000E-01  0.478148

  2 S  1.22000000E-01  1.000000

  3 S  2.97400000E-02  1.000000

  4 P  7.27000000E-01  1.000000

  5 P  1.41000000E-01  1.000000

  F (Fluorine)
  ------------
            Exponent  Coefficients 
       -------------- ---------------------------------------------------------
  1 S  1.47100000E+04  0.000721
  1 S  2.20700000E+03  0.005553
  1 S  5.02800000E+02  0.028267
  1 S  1.42600000E+02  0.106444
  1 S  4.64700000E+01  0.286814
  1 S  1.67000000E+01  0.448641
  1 S  6.35600000E+00  0.264761
  1 S  1.31600000E+00  0.015333

  2 S  1.47100000E+04 -0.000165
  2 S  2.20700000E+03 -0.001308
  2 S  5.02800000E+02 -0.006495
  2 S  1.42600000E+02 -0.026691
  2 S  4.64700000E+01 -0.073690
  2 S  1.67000000E+01 -0.170776
  2 S  6.35600000E+00 -0.112327
  2 S  1.31600000E+00  0.562814

  3 S  3.89700000E-01  1.000000

  4 S  9.86300000E-02  1.000000

  5 P  2.26700000E+01  0.044878
  5 P  4.97700000E+00  0.235718
  5 P  1.34700000E+00  0.508521

  6 P  3.47100000E-01  1.000000

  7 P  8.50200000E-02  1.000000

  8 D  1.64000000E+00  1.000000

  9 D  4.64000000E-01  1.000000



 Summary of "ao basis" -> "ao basis" (spherical)
 ------------------------------------------------------------------------------
       Tag                 Description            Shells   Functions and Types
 ---------------- ------------------------------  ------  ---------------------
 O                        aug-cc-pVDZ                9       23   4s3p2d
 C                        aug-cc-pVDZ                9       23   4s3p2d
 H                        aug-cc-pVDZ                5        9   3s2p
 F                        aug-cc-pVDZ                9       23   4s3p2d


                                 NWChem SCF Module
                                 -----------------


                                    6 Ref Open



  ao basis        = "ao basis"
  functions       =   188
  atoms           =    10
  closed shells   =    28
  open shells     =     0
  charge          =   0.00
  wavefunction    = RHF 
  input vectors   = atomic
  output vectors  = ./6R2.movecs
  use symmetry    = F
  symmetry adapt  = F


 Summary of "ao basis" -> "ao basis" (spherical)
 ------------------------------------------------------------------------------
       Tag                 Description            Shells   Functions and Types
 ---------------- ------------------------------  ------  ---------------------
 O                        aug-cc-pVDZ                9       23   4s3p2d
 C                        aug-cc-pVDZ                9       23   4s3p2d
 H                        aug-cc-pVDZ                5        9   3s2p
 F                        aug-cc-pVDZ                9       23   4s3p2d



int_init: setting std/high accuracies to  1.0D-16  1.0D-32

 Forming initial guess at       0.7s


 Forcing the number of linearly dependent vectors to be  0

      Superposition of Atomic Density Guess
      -------------------------------------

 Sum of atomic energies:        -487.43163791

      Non-variational initial energy
      ------------------------------

 Total energy =    -490.105774
 1-e energy   =   -1333.700104
 2-e energy   =     511.773359
 HOMO         =      -0.291600
 LUMO         =       0.014767


 Starting SCF solution at       1.1s



 ----------------------------------------------
         Quadratically convergent ROHF

 Convergence threshold     :          1.000E-09
 Maximum no. of iterations :           99
 Final Fock-matrix accuracy:          1.000E-15
 ----------------------------------------------


              iter       energy          gnorm     gmax       time
             ----- ------------------- --------- --------- --------
                 1     -488.3847491431  1.83D+00  2.17D-01      0.9
                 2     -488.5534489845  4.43D-01  5.17D-02      1.7
                 3     -488.5722842619  3.66D-02  4.51D-03      2.5
                 4     -488.5724418001  5.49D-04  1.35D-04      3.8
                 5     -488.5724418578  2.13D-07  2.37D-08      5.8
                 6     -488.5724418578  3.51D-11  4.53D-12      7.9


       Final RHF  results 
       ------------------ 

         Total SCF energy =   -488.572441857792
      One-electron energy =  -1335.466318228743
      Two-electron energy =    515.072905077432
 Nuclear repulsion energy =    331.820971293519

        Time for solution =      7.4s


             Final eigenvalues
             -----------------

              1      
    1  -26.3695
    2  -26.3662
    3  -26.3587
    4  -20.6263
    5  -11.5395
    6  -11.3454
    7  -11.2657
    8   -1.7390
    9   -1.6525
   10   -1.6421
   11   -1.4280
   12   -1.0914
   13   -0.9876
   14   -0.8713
   15   -0.8315
   16   -0.8289
   17   -0.8012
   18   -0.7224
   19   -0.7192
   20   -0.6874
   21   -0.6796
   22   -0.6719
   23   -0.6598
   24   -0.6457
   25   -0.6181
   26   -0.5817
   27   -0.5456
   28   -0.3843
   29    0.0353
   30    0.0456
   31    0.0553
   32    0.0845
   33    0.0915
   34    0.1042
   35    0.1076
   36    0.1255
   37    0.1390
   38    0.1457

                       ROHF Final Molecular Orbital Analysis
                       -------------------------------------

 Vector   11  Occ=2.000000D+00  E=-1.428016D+00
              MO Center= -1.0D+00,  1.3D+00, -4.4D-02, r^2= 6.3D-01
   Bfn.  Coefficient  Atom+Function         Bfn.  Coefficient  Atom+Function  
  ----- ------------  ---------------      ----- ------------  ---------------
     3      0.491419   1 O  s                 2      0.413300   1 O  s         
    27     -0.227838   2 C  s                70      0.180612   4 H  s         

 Vector   12  Occ=2.000000D+00  E=-1.091410D+00
              MO Center=  3.1D-01,  6.9D-01, -3.8D-03, r^2= 2.1D+00
   Bfn.  Coefficient  Atom+Function         Bfn.  Coefficient  Atom+Function  
  ----- ------------  ---------------      ----- ------------  ---------------
    25      0.269719   2 C  s                48      0.225999   3 C  s         
    26      0.208995   2 C  s                80      0.201787   5 C  s         
    49      0.151065   3 C  s         

 Vector   13  Occ=2.000000D+00  E=-9.875929D-01
              MO Center=  2.8D-01,  2.0D-02, -9.4D-03, r^2= 3.2D+00
   Bfn.  Coefficient  Atom+Function         Bfn.  Coefficient  Atom+Function  
  ----- ------------  ---------------      ----- ------------  ---------------
    82      0.361166   5 C  s                80     -0.291431   5 C  s         
    49      0.244182   3 C  s                50     -0.238138   3 C  s         
    48      0.215635   3 C  s               124      0.178753   8 F  px        
    29      0.172709   2 C  py              149     -0.164082   9 F  pz        
    54     -0.157537   3 C  px              172      0.156702  10 F  pz        

 Vector   14  Occ=2.000000D+00  E=-8.712986D-01
              MO Center=  2.3D-01, -2.1D-01, -1.5D-02, r^2= 2.9D+00
   Bfn.  Coefficient  Atom+Function         Bfn.  Coefficient  Atom+Function  
  ----- ------------  ---------------      ----- ------------  ---------------
    84      0.304920   5 C  py              124      0.271960   8 F  px        
    26      0.257428   2 C  s               127      0.179355   8 F  px        
    29     -0.158222   2 C  py               49     -0.155469   3 C  s         
    82      0.155250   5 C  s               148      0.151048   9 F  py        

 Vector   15  Occ=2.000000D+00  E=-8.315238D-01
              MO Center=  1.6D-01, -9.2D-01, -1.4D-01, r^2= 2.1D+00
   Bfn.  Coefficient  Atom+Function         Bfn.  Coefficient  Atom+Function  
  ----- ------------  ---------------      ----- ------------  ---------------
   149     -0.318918   9 F  pz               83      0.294894   5 C  px        
   124     -0.251711   8 F  px              125      0.232314   8 F  py        
   172      0.216863  10 F  pz              152     -0.202034   9 F  pz        
    32     -0.168518   2 C  py        

 Vector   16  Occ=2.000000D+00  E=-8.289092D-01
              MO Center= -1.3D-01, -9.6D-01,  1.3D-01, r^2= 1.9D+00
   Bfn.  Coefficient  Atom+Function         Bfn.  Coefficient  Atom+Function  
  ----- ------------  ---------------      ----- ------------  ---------------
    85      0.293897   5 C  pz              126      0.279794   8 F  pz        
   147     -0.273924   9 F  px              172     -0.232864  10 F  pz        
   170      0.224475  10 F  px              129      0.189624   8 F  pz        
   150     -0.178777   9 F  px        

 Vector   17  Occ=2.000000D+00  E=-8.011636D-01
              MO Center= -3.3D-01,  1.1D+00, -7.2D-02, r^2= 3.0D+00
   Bfn.  Coefficient  Atom+Function         Bfn.  Coefficient  Atom+Function  
  ----- ------------  ---------------      ----- ------------  ---------------
     5      0.369990   1 O  px               50      0.334761   3 C  s         
    27     -0.299897   2 C  s                70     -0.274664   4 H  s         
    49     -0.264834   3 C  s                26      0.228961   2 C  s         
     8      0.200564   1 O  px              102     -0.167131   6 H  s         
    32      0.164988   2 C  py               25      0.150069   2 C  s         

 Vector   18  Occ=2.000000D+00  E=-7.223646D-01
              MO Center=  5.4D-02, -9.7D-01, -1.8D-01, r^2= 2.3D+00
   Bfn.  Coefficient  Atom+Function         Bfn.  Coefficient  Atom+Function  
  ----- ------------  ---------------      ----- ------------  ---------------
   148      0.381460   9 F  py              125     -0.336043   8 F  py        
   151      0.267189   9 F  py              170      0.254068  10 F  px        
   128     -0.233554   8 F  py              126      0.192872   8 F  pz        
   173      0.178961  10 F  px              172      0.155083  10 F  pz        

 Vector   19  Occ=2.000000D+00  E=-7.191754D-01
              MO Center= -9.4D-02, -9.5D-01,  1.8D-01, r^2= 2.3D+00
   Bfn.  Coefficient  Atom+Function         Bfn.  Coefficient  Atom+Function  
  ----- ------------  ---------------      ----- ------------  ---------------
   171      0.427504  10 F  py              174      0.296506  10 F  py        
   126     -0.264652   8 F  pz              147      0.248048   9 F  px        
   125     -0.196554   8 F  py              129     -0.184034   8 F  pz        
   150      0.178014   9 F  px              149     -0.164571   9 F  pz        
   148     -0.160034   9 F  py        

 Vector   20  Occ=2.000000D+00  E=-6.874079D-01
              MO Center=  1.4D-01,  2.3D-01, -6.5D-02, r^2= 3.8D+00
   Bfn.  Coefficient  Atom+Function         Bfn.  Coefficient  Atom+Function  
  ----- ------------  ---------------      ----- ------------  ---------------
   125      0.330070   8 F  py               27      0.318331   2 C  s         
   128      0.240064   8 F  py               50     -0.230815   3 C  s         
   148      0.209818   9 F  py                6      0.189910   1 O  py        
    70     -0.188419   4 H  s                81     -0.179310   5 C  s         
    87     -0.170390   5 C  py              171      0.167621  10 F  py        

 Vector   21  Occ=2.000000D+00  E=-6.795593D-01
              MO Center=  1.2D-01, -7.4D-01, -1.6D-01, r^2= 2.8D+00
   Bfn.  Coefficient  Atom+Function         Bfn.  Coefficient  Atom+Function  
  ----- ------------  ---------------      ----- ------------  ---------------
   147      0.348186   9 F  px              124      0.343479   8 F  px        
   170      0.260620  10 F  px              150      0.242512   9 F  px        
   127      0.222745   8 F  px              148     -0.210412   9 F  py        
   173      0.183546  10 F  px              151     -0.155595   9 F  py        
   171     -0.152963  10 F  py        

 Vector   22  Occ=2.000000D+00  E=-6.719222D-01
              MO Center= -3.5D-02, -9.9D-01,  1.4D-01, r^2= 2.2D+00
   Bfn.  Coefficient  Atom+Function         Bfn.  Coefficient  Atom+Function  
  ----- ------------  ---------------      ----- ------------  ---------------
   126      0.356611   8 F  pz              172      0.323130  10 F  pz        
   149      0.291297   9 F  pz              129      0.251029   8 F  pz        
   171      0.218091  10 F  py              175      0.214035  10 F  pz        
   148     -0.198124   9 F  py              152      0.195093   9 F  pz        
   170     -0.169418  10 F  px              174      0.161258  10 F  py        

 Vector   23  Occ=2.000000D+00  E=-6.597611D-01
              MO Center= -2.4D-01, -1.1D+00,  1.5D-01, r^2= 2.0D+00
   Bfn.  Coefficient  Atom+Function         Bfn.  Coefficient  Atom+Function  
  ----- ------------  ---------------      ----- ------------  ---------------
   170      0.378131  10 F  px              126     -0.308735   8 F  pz        
   147     -0.292800   9 F  px              172      0.285997  10 F  pz        
   149      0.274703   9 F  pz              173      0.265694  10 F  px        
   129     -0.214945   8 F  pz              150     -0.206695   9 F  px        
   175      0.198584  10 F  pz              152      0.189236   9 F  pz        

 Vector   24  Occ=2.000000D+00  E=-6.456655D-01
              MO Center=  1.4D-02,  1.2D+00,  1.5D-02, r^2= 3.0D+00
   Bfn.  Coefficient  Atom+Function         Bfn.  Coefficient  Atom+Function  
  ----- ------------  ---------------      ----- ------------  ---------------
     6      0.316895   1 O  py               28      0.304664   2 C  px        
    51     -0.265830   3 C  px               50      0.241819   3 C  s         
     9      0.223510   1 O  py              171      0.176728  10 F  py        
   102     -0.161689   6 H  s               148      0.162196   9 F  py        
     5     -0.158694   1 O  px              103     -0.156353   6 H  s         

 Vector   25  Occ=2.000000D+00  E=-6.181182D-01
              MO Center= -1.3D-01,  1.2D+00,  6.1D-02, r^2= 3.0D+00
   Bfn.  Coefficient  Atom+Function         Bfn.  Coefficient  Atom+Function  
  ----- ------------  ---------------      ----- ------------  ---------------
     7      0.402443   1 O  pz               10      0.281361   1 O  pz        
   102      0.197758   6 H  s                51      0.173490   3 C  px        
    52     -0.172689   3 C  py              103      0.166036   6 H  s         
   112     -0.157712   7 H  s               125     -0.152886   8 F  py        

 Vector   26  Occ=2.000000D+00  E=-5.816907D-01
              MO Center=  3.9D-01,  1.5D+00,  4.4D-02, r^2= 2.9D+00
   Bfn.  Coefficient  Atom+Function         Bfn.  Coefficient  Atom+Function  
  ----- ------------  ---------------      ----- ------------  ---------------
     7      0.283614   1 O  pz              102     -0.271484   6 H  s         
   103     -0.258371   6 H  s                52      0.243152   3 C  py        
   111      0.229150   7 H  s                10      0.220895   1 O  pz        
    51     -0.218579   3 C  px              112      0.204299   7 H  s         
     5     -0.197110   1 O  px        

 Vector   27  Occ=2.000000D+00  E=-5.455914D-01
              MO Center= -3.2D-01,  9.1D-01, -4.1D-02, r^2= 2.8D+00
   Bfn.  Coefficient  Atom+Function         Bfn.  Coefficient  Atom+Function  
  ----- ------------  ---------------      ----- ------------  ---------------
     6      0.383186   1 O  py               81      0.298655   5 C  s         
     9      0.278108   1 O  py               29     -0.266904   2 C  py        
    84      0.268064   5 C  py               87      0.203765   5 C  py        
   112      0.188211   7 H  s                52      0.178221   3 C  py        
   148     -0.164634   9 F  py               49     -0.158817   3 C  s         

 Vector   28  Occ=2.000000D+00  E=-3.842678D-01
              MO Center=  4.2D-01,  1.3D+00,  1.2D-02, r^2= 2.0D+00
   Bfn.  Coefficient  Atom+Function         Bfn.  Coefficient  Atom+Function  
  ----- ------------  ---------------      ----- ------------  ---------------
    53      0.380095   3 C  pz               30      0.349535   2 C  pz        
     7     -0.268455   1 O  pz               56      0.256828   3 C  pz        
    33      0.242213   2 C  pz               10     -0.207087   1 O  pz        

 Vector   29  Occ=0.000000D+00  E= 3.532525D-02
              MO Center=  1.0D-01,  1.9D+00, -5.1D-01, r^2= 2.1D+01
   Bfn.  Coefficient  Atom+Function         Bfn.  Coefficient  Atom+Function  
  ----- ------------  ---------------      ----- ------------  ---------------
    82      6.446038   5 C  s                27     -2.882036   2 C  s         
    35      2.185022   2 C  py               50      2.038895   3 C  s         
   113     -1.980456   7 H  s                72     -1.607620   4 H  s         
    90      1.313330   5 C  py              104     -1.192003   6 H  s         
    34     -0.820986   2 C  px               57      0.719974   3 C  px        

 Vector   30  Occ=0.000000D+00  E= 4.556851D-02
              MO Center= -4.7D-01,  1.3D+00, -4.5D-01, r^2= 2.4D+01
   Bfn.  Coefficient  Atom+Function         Bfn.  Coefficient  Atom+Function  
  ----- ------------  ---------------      ----- ------------  ---------------
    82      6.138119   5 C  s                50     -4.160274   3 C  s         
    35      3.845877   2 C  py               34      3.537170   2 C  px        
    72      2.969071   4 H  s               104     -2.799760   6 H  s         
    57      1.910822   3 C  px              113     -1.271018   7 H  s         
     4      1.215399   1 O  s                90      0.821687   5 C  py        

 Vector   31  Occ=0.000000D+00  E= 5.529378D-02
              MO Center=  1.7D+00,  2.3D+00, -3.2D-02, r^2= 2.2D+01
   Bfn.  Coefficient  Atom+Function         Bfn.  Coefficient  Atom+Function  
  ----- ------------  ---------------      ----- ------------  ---------------
   113     -5.430881   7 H  s               104      5.202250   6 H  s         
    82     -3.763187   5 C  s                58      3.278416   3 C  py        
    27      2.727414   2 C  s                35     -2.376151   2 C  py        
    57     -2.080439   3 C  px              112     -1.392304   7 H  s         
   103      1.020156   6 H  s                90     -0.901203   5 C  py        

 Vector   32  Occ=0.000000D+00  E= 8.453787D-02
              MO Center=  6.6D-01, -1.4D+00,  2.5D-02, r^2= 1.9D+01
   Bfn.  Coefficient  Atom+Function         Bfn.  Coefficient  Atom+Function  
  ----- ------------  ---------------      ----- ------------  ---------------
    82    -16.373800   5 C  s                50     15.912588   3 C  s         
    35     -8.377070   2 C  py               34     -6.059419   2 C  px        
    90     -4.946583   5 C  py              113      3.800183   7 H  s         
    57     -3.409633   3 C  px               58     -2.817090   3 C  py        
    72     -1.602183   4 H  s               103     -1.410870   6 H  s         

 Vector   33  Occ=0.000000D+00  E= 9.147999D-02
              MO Center=  1.4D+00,  1.4D+00,  5.3D-02, r^2= 1.0D+01
   Bfn.  Coefficient  Atom+Function         Bfn.  Coefficient  Atom+Function  
  ----- ------------  ---------------      ----- ------------  ---------------
    82      4.266978   5 C  s                27     -2.337046   2 C  s         
    59      1.717993   3 C  pz               35      1.706947   2 C  py        
    36     -1.672853   2 C  pz               90      1.516159   5 C  py        
    50     -1.467757   3 C  s               113     -0.903779   7 H  s         
    91      0.821781   5 C  pz              104      0.521588   6 H  s         

 Vector   34  Occ=0.000000D+00  E= 1.042312D-01
              MO Center=  1.7D-02, -3.1D-01,  3.7D-01, r^2= 1.6D+01
   Bfn.  Coefficient  Atom+Function         Bfn.  Coefficient  Atom+Function  
  ----- ------------  ---------------      ----- ------------  ---------------
    27      9.330827   2 C  s                50     -7.116525   3 C  s         
    34      3.302134   2 C  px               91     -2.432117   5 C  pz        
    82     -2.349160   5 C  s                57      1.813837   3 C  px        
    58      1.620728   3 C  py              146     -1.092128   9 F  s         
     4      1.066148   1 O  s               169      0.985206  10 F  s         

 Vector   35  Occ=0.000000D+00  E= 1.075945D-01
              MO Center=  7.2D-01,  5.6D-01, -2.9D-01, r^2= 1.9D+01
   Bfn.  Coefficient  Atom+Function         Bfn.  Coefficient  Atom+Function  
  ----- ------------  ---------------      ----- ------------  ---------------
    27     15.734031   2 C  s                50    -11.093476   3 C  s         
    34      4.970509   2 C  px               82     -4.354316   5 C  s         
    57      3.300744   3 C  px               58      2.661623   3 C  py        
    89     -2.320239   5 C  px               91      1.462879   5 C  pz        
    72      1.189664   4 H  s                90     -1.162678   5 C  py        

 Vector   36  Occ=0.000000D+00  E= 1.254807D-01
              MO Center= -7.7D-01, -1.8D-01,  3.9D-01, r^2= 1.8D+01
   Bfn.  Coefficient  Atom+Function         Bfn.  Coefficient  Atom+Function  
  ----- ------------  ---------------      ----- ------------  ---------------
    27     15.652858   2 C  s                50    -13.242758   3 C  s         
    57      3.864996   3 C  px               34      3.837286   2 C  px        
    89      3.023831   5 C  px               35      2.876032   2 C  py        
    58      2.761819   3 C  py               72      2.714580   4 H  s         
    82     -2.195903   5 C  s               104     -2.071493   6 H  s         

 Vector   37  Occ=0.000000D+00  E= 1.390058D-01
              MO Center= -5.7D-02,  1.1D+00, -2.8D-01, r^2= 1.6D+01
   Bfn.  Coefficient  Atom+Function         Bfn.  Coefficient  Atom+Function  
  ----- ------------  ---------------      ----- ------------  ---------------
    27      7.067557   2 C  s                36      4.513338   2 C  pz        
    50     -3.607042   3 C  s                57      3.254802   3 C  px        
    35      2.986122   2 C  py               91     -2.692282   5 C  pz        
     4     -2.321610   1 O  s                34     -1.950723   2 C  px        
    59     -1.679921   3 C  pz              104     -1.584278   6 H  s         

 Vector   38  Occ=0.000000D+00  E= 1.457436D-01
              MO Center= -9.2D-02,  7.4D-01, -1.6D-01, r^2= 2.0D+01
   Bfn.  Coefficient  Atom+Function         Bfn.  Coefficient  Atom+Function  
  ----- ------------  ---------------      ----- ------------  ---------------
    82     18.080106   5 C  s                50    -17.088727   3 C  s         
    35     15.705348   2 C  py               27      6.716529   2 C  s         
    34      6.569704   2 C  px               57      4.989902   3 C  px        
    89     -3.429356   5 C  px              113     -2.043713   7 H  s         
     4     -1.709560   1 O  s                58     -1.510926   3 C  py        

 Vector   39  Occ=0.000000D+00  E= 1.545407D-01
              MO Center= -4.2D-01,  1.2D+00, -5.4D-01, r^2= 1.8D+01
   Bfn.  Coefficient  Atom+Function         Bfn.  Coefficient  Atom+Function  
  ----- ------------  ---------------      ----- ------------  ---------------
    50     -9.145644   3 C  s                34      8.728386   2 C  px        
    27     -5.929575   2 C  s                35      5.041125   2 C  py        
     4      4.964297   1 O  s                89     -3.120470   5 C  px        
    82      3.045609   5 C  s                72      2.881725   4 H  s         
    36      2.167656   2 C  pz               58     -1.800091   3 C  py        

 Vector   40  Occ=0.000000D+00  E= 1.657293D-01
              MO Center=  1.1D+00,  1.5D+00,  3.3D-01, r^2= 1.6D+01
   Bfn.  Coefficient  Atom+Function         Bfn.  Coefficient  Atom+Function  
  ----- ------------  ---------------      ----- ------------  ---------------
    82     14.862279   5 C  s                50     -8.857353   3 C  s         
    34      8.533181   2 C  px               35      6.653570   2 C  py        
   113     -3.773419   7 H  s                 4      3.345313   1 O  s         
    58      3.006272   3 C  py               57      2.845232   3 C  px        
   104     -2.775100   6 H  s                72      2.721771   4 H  s         

 Vector   41  Occ=0.000000D+00  E= 1.692539D-01
              MO Center=  8.8D-01,  1.4D+00,  1.4D-01, r^2= 9.0D+00
   Bfn.  Coefficient  Atom+Function         Bfn.  Coefficient  Atom+Function  
  ----- ------------  ---------------      ----- ------------  ---------------
    27      1.703727   2 C  s                59     -1.629728   3 C  pz        
    82     -1.555807   5 C  s                50      1.406853   3 C  s         
     4     -1.244400   1 O  s                35     -1.167599   2 C  py        
    34     -1.115919   2 C  px               91      0.929878   5 C  pz        
   146      0.661260   9 F  s               169     -0.660943  10 F  s         

 Vector   42  Occ=0.000000D+00  E= 1.823575D-01
              MO Center=  1.9D+00,  2.3D+00,  1.5D-02, r^2= 1.4D+01
   Bfn.  Coefficient  Atom+Function         Bfn.  Coefficient  Atom+Function  
  ----- ------------  ---------------      ----- ------------  ---------------
    58      7.445472   3 C  py              104      7.400512   6 H  s         
   113     -7.332911   7 H  s                57     -4.409659   3 C  px        
    27      4.091642   2 C  s               103      3.439087   6 H  s         
    82     -3.071022   5 C  s               112     -3.069118   7 H  s         
    35     -3.029367   2 C  py               34      2.240391   2 C  px        

 Vector   43  Occ=0.000000D+00  E= 2.015594D-01
              MO Center=  2.9D-01,  7.0D-01,  1.9D-02, r^2= 1.2D+01
   Bfn.  Coefficient  Atom+Function         Bfn.  Coefficient  Atom+Function  
  ----- ------------  ---------------      ----- ------------  ---------------
    27     32.872384   2 C  s                82    -21.145345   5 C  s         
    50    -11.317554   3 C  s                 4     -5.022348   1 O  s         
    90     -4.193005   5 C  py               35     -3.965370   2 C  py        
    57      2.299059   3 C  px              123      2.203449   8 F  s         
    34      1.910642   2 C  px               58      1.437958   3 C  py        

 Vector   44  Occ=0.000000D+00  E= 2.192152D-01
              MO Center= -8.8D-01,  7.8D-01, -1.4D-01, r^2= 1.4D+01
   Bfn.  Coefficient  Atom+Function         Bfn.  Coefficient  Atom+Function  
  ----- ------------  ---------------      ----- ------------  ---------------
    82     14.347004   5 C  s                27     -4.653403   2 C  s         
     4     -4.540899   1 O  s                35      3.581852   2 C  py        
    50     -3.553264   3 C  s                34     -3.439700   2 C  px        
    90      3.270038   5 C  py               71      3.228026   4 H  s         
    57      3.054258   3 C  px              146     -2.156308   9 F  s         

 Vector   45  Occ=0.000000D+00  E= 2.349996D-01
              MO Center=  6.4D-02,  1.4D-01,  3.5D-02, r^2= 1.5D+01
   Bfn.  Coefficient  Atom+Function         Bfn.  Coefficient  Atom+Function  
  ----- ------------  ---------------      ----- ------------  ---------------
    50     30.121016   3 C  s                82    -19.841638   5 C  s         
    27    -13.482755   2 C  s                34    -10.377653   2 C  px        
    35     -9.802204   2 C  py               57     -5.250156   3 C  px        
    58     -4.340817   3 C  py               90     -3.851437   5 C  py        
   112     -3.060262   7 H  s                36     -3.020140   2 C  pz        

 Vector   46  Occ=0.000000D+00  E= 2.511302D-01
              MO Center= -8.1D-01,  6.6D-01, -1.0D-01, r^2= 1.3D+01
   Bfn.  Coefficient  Atom+Function         Bfn.  Coefficient  Atom+Function  
  ----- ------------  ---------------      ----- ------------  ---------------
    50     14.510300   3 C  s                82    -10.192555   5 C  s         
    34     -8.175644   2 C  px               27     -5.983199   2 C  s         
    58     -3.189944   3 C  py               11      3.173552   1 O  px        
    35     -3.139547   2 C  py              112     -2.752371   7 H  s         
    90     -2.390529   5 C  py              113      2.023590   7 H  s         

 Vector   47  Occ=0.000000D+00  E= 2.649396D-01
              MO Center=  4.5D-01, -1.2D-01, -4.1D-01, r^2= 1.3D+01
   Bfn.  Coefficient  Atom+Function         Bfn.  Coefficient  Atom+Function  
  ----- ------------  ---------------      ----- ------------  ---------------
    50     28.442845   3 C  s                27    -17.520905   2 C  s         
    82    -15.593472   5 C  s                35    -10.242747   2 C  py        
    34     -8.075843   2 C  px               57     -6.137970   3 C  px        
    58     -2.869960   3 C  py               90     -2.802972   5 C  py        
    49      2.651454   3 C  s               103     -2.317211   6 H  s         

 Vector   48  Occ=0.000000D+00  E= 2.727278D-01
              MO Center= -3.2D-01,  1.1D-01,  3.8D-01, r^2= 1.2D+01
   Bfn.  Coefficient  Atom+Function         Bfn.  Coefficient  Atom+Function  
  ----- ------------  ---------------      ----- ------------  ---------------
    27     14.179826   2 C  s                50     -5.895029   3 C  s         
     4     -5.846492   1 O  s                82     -4.639119   5 C  s         
    36     -2.255166   2 C  pz               12      2.103449   1 O  py        
    35     -2.007042   2 C  py               11     -1.777216   1 O  px        
   112      1.715113   7 H  s                89     -1.645139   5 C  px        

 Vector   49  Occ=0.000000D+00  E= 2.830398D-01
              MO Center= -6.1D-01,  9.3D-01, -7.7D-03, r^2= 1.1D+01
   Bfn.  Coefficient  Atom+Function         Bfn.  Coefficient  Atom+Function  
  ----- ------------  ---------------      ----- ------------  ---------------
    50     12.687770   3 C  s                82     -7.489624   5 C  s         
    34     -5.549771   2 C  px               27     -5.167273   2 C  s         
    35     -4.379884   2 C  py               58     -2.580741   3 C  py        
    57     -2.062703   3 C  px               13     -2.035024   1 O  pz        
    72     -1.969381   4 H  s               113      1.833409   7 H  s         

 Vector   50  Occ=0.000000D+00  E= 2.914467D-01
              MO Center=  3.8D-01,  8.5D-01, -2.7D-02, r^2= 1.3D+01
   Bfn.  Coefficient  Atom+Function         Bfn.  Coefficient  Atom+Function  
  ----- ------------  ---------------      ----- ------------  ---------------
    27     26.328727   2 C  s                82    -20.440169   5 C  s         
    50     -7.960138   3 C  s                35     -7.809709   2 C  py        
    90     -3.979332   5 C  py                4     -3.132568   1 O  s         
    12      2.682546   1 O  py               34      1.943684   2 C  px        
    58      1.816488   3 C  py              146      1.688883   9 F  s         

 Vector   51  Occ=0.000000D+00  E= 3.055360D-01
              MO Center=  3.0D-01,  7.2D-01,  3.4D-02, r^2= 1.1D+01
   Bfn.  Coefficient  Atom+Function         Bfn.  Coefficient  Atom+Function  
  ----- ------------  ---------------      ----- ------------  ---------------
    27     22.098907   2 C  s                50    -17.870711   3 C  s         
    34      7.189084   2 C  px               58      5.422937   3 C  py        
    82     -4.240231   5 C  s               103      2.447825   6 H  s         
   113     -2.274252   7 H  s                57      2.110582   3 C  px        
    72      1.861425   4 H  s               123     -1.488713   8 F  s         

 Vector   52  Occ=0.000000D+00  E= 3.194612D-01
              MO Center=  5.5D-01,  2.2D-01,  3.3D-02, r^2= 1.2D+01
   Bfn.  Coefficient  Atom+Function         Bfn.  Coefficient  Atom+Function  
  ----- ------------  ---------------      ----- ------------  ---------------
    50      7.208773   3 C  s                35     -5.339053   2 C  py        
    82     -5.144445   5 C  s                 4     -2.808684   1 O  s         
    12      2.481190   1 O  py               57     -1.883942   3 C  px        
   123     -1.811699   8 F  s                81      1.793490   5 C  s         
   130      1.774557   8 F  px              112     -1.558198   7 H  s         

 Vector   53  Occ=0.000000D+00  E= 3.362006D-01
              MO Center= -3.8D-01,  2.8D-01,  2.5D-01, r^2= 1.2D+01
   Bfn.  Coefficient  Atom+Function         Bfn.  Coefficient  Atom+Function  
  ----- ------------  ---------------      ----- ------------  ---------------
    50     20.123181   3 C  s                27    -16.308951   2 C  s         
    35     -8.607526   2 C  py               34     -8.038415   2 C  px        
    82     -4.705299   5 C  s                32      3.948045   2 C  py        
    49     -3.764842   3 C  s                12      3.277642   1 O  py        
    87      2.970391   5 C  py               11      2.852433   1 O  px        

 Vector   54  Occ=0.000000D+00  E= 3.496172D-01
              MO Center=  4.8D-01, -6.0D-01, -1.0D-01, r^2= 9.4D+00
   Bfn.  Coefficient  Atom+Function         Bfn.  Coefficient  Atom+Function  
  ----- ------------  ---------------      ----- ------------  ---------------
    91     -3.943851   5 C  pz               36      3.792359   2 C  pz        
    27     -3.294468   2 C  s                82      1.902511   5 C  s         
   132      1.533411   8 F  pz                4      1.494734   1 O  s         
   154      1.252876   9 F  py               59     -1.230008   3 C  pz        
    50      1.085314   3 C  s               178      0.895583  10 F  pz        

 Vector   55  Occ=0.000000D+00  E= 3.604663D-01
              MO Center=  2.7D-01, -2.0D-01, -1.7D-01, r^2= 9.6D+00
   Bfn.  Coefficient  Atom+Function         Bfn.  Coefficient  Atom+Function  
  ----- ------------  ---------------      ----- ------------  ---------------
    27      5.743358   2 C  s                50     -5.221563   3 C  s         
    34      4.548970   2 C  px               89     -2.698478   5 C  px        
   103      2.564874   6 H  s                31     -2.074457   2 C  px        
    82     -1.599782   5 C  s               131     -1.564829   8 F  py        
    58      1.286380   3 C  py               46     -1.214365   2 C  d  2      

 Vector   56  Occ=0.000000D+00  E= 3.689110D-01
              MO Center= -3.9D-01, -4.6D-01,  2.4D-01, r^2= 1.1D+01
   Bfn.  Coefficient  Atom+Function         Bfn.  Coefficient  Atom+Function  
  ----- ------------  ---------------      ----- ------------  ---------------
    27     14.797496   2 C  s                50    -11.607101   3 C  s         
    35      5.531557   2 C  py               57      4.536593   3 C  px        
    34      3.610822   2 C  px              104     -3.148769   6 H  s         
   103     -2.770061   6 H  s                90     -2.387527   5 C  py        
    89      2.024010   5 C  px               82     -1.757596   5 C  s         

 Vector   57  Occ=0.000000D+00  E= 3.712666D-01
              MO Center= -1.3D-01, -3.9D-01,  1.0D-01, r^2= 1.1D+01
   Bfn.  Coefficient  Atom+Function         Bfn.  Coefficient  Atom+Function  
  ----- ------------  ---------------      ----- ------------  ---------------
    27      7.427234   2 C  s                50     -5.770330   3 C  s         
    35      3.043359   2 C  py               57      2.686444   3 C  px        
   103     -2.289321   6 H  s               104     -1.864424   6 H  s         
   155     -1.767753   9 F  pz               34      1.692970   2 C  px        
    91      1.435999   5 C  pz              178     -1.415329  10 F  pz        

 Vector   58  Occ=0.000000D+00  E= 3.819483D-01
              MO Center=  1.8D-01,  4.8D-01, -5.2D-02, r^2= 1.1D+01
   Bfn.  Coefficient  Atom+Function         Bfn.  Coefficient  Atom+Function  
  ----- ------------  ---------------      ----- ------------  ---------------
    82     14.948960   5 C  s                50    -12.793005   3 C  s         
    35      8.605618   2 C  py               34      6.899137   2 C  px        
    27     -4.138123   2 C  s                89     -2.694352   5 C  px        
   103      2.555810   6 H  s                81     -2.513115   5 C  s         
   123     -2.444094   8 F  s                32     -2.257354   2 C  py        

 Vector   59  Occ=0.000000D+00  E= 3.887827D-01
              MO Center=  6.1D-01, -4.0D-01, -1.1D-02, r^2= 9.9D+00
   Bfn.  Coefficient  Atom+Function         Bfn.  Coefficient  Atom+Function  
  ----- ------------  ---------------      ----- ------------  ---------------
    50      5.079792   3 C  s                34     -3.704433   2 C  px        
    82     -3.632237   5 C  s                35     -3.139627   2 C  py        
    91     -2.338117   5 C  pz              132      2.237654   8 F  pz        
    89      2.100295   5 C  px               36      1.749736   2 C  pz        
   169     -1.689973  10 F  s               103     -1.569438   6 H  s         

 Vector   60  Occ=0.000000D+00  E= 3.924363D-01
              MO Center=  7.6D-01, -1.7D-01,  8.5D-02, r^2= 1.0D+01
   Bfn.  Coefficient  Atom+Function         Bfn.  Coefficient  Atom+Function  
  ----- ------------  ---------------      ----- ------------  ---------------
    27      5.562985   2 C  s                58      4.884123   3 C  py        
    89      3.800260   5 C  px              113     -3.203838   7 H  s         
     4     -2.918186   1 O  s                82      2.465374   5 C  s         
    50     -2.385957   3 C  s               112     -2.312323   7 H  s         
    34     -2.266262   2 C  px              131      2.220339   8 F  py        

 Vector   61  Occ=0.000000D+00  E= 4.096054D-01
              MO Center=  1.6D-02, -3.4D-02,  1.6D-01, r^2= 1.1D+01
   Bfn.  Coefficient  Atom+Function         Bfn.  Coefficient  Atom+Function  
  ----- ------------  ---------------      ----- ------------  ---------------
    50     15.322224   3 C  s                27    -10.687940   2 C  s         
    34     -7.182370   2 C  px               35     -3.450450   2 C  py        
   103     -3.436305   6 H  s                58     -3.046406   3 C  py        
    26      2.309038   2 C  s               130      1.945927   8 F  px        
     4     -1.831147   1 O  s                31      1.827162   2 C  px        

 Vector   62  Occ=0.000000D+00  E= 4.144699D-01
              MO Center=  1.3D-01,  8.0D-02,  3.4D-02, r^2= 1.2D+01
   Bfn.  Coefficient  Atom+Function         Bfn.  Coefficient  Atom+Function  
  ----- ------------  ---------------      ----- ------------  ---------------
    82    -12.236076   5 C  s                27     11.325215   2 C  s         
    35     -5.074617   2 C  py               50     -4.873316   3 C  s         
    26     -2.715564   2 C  s                54     -2.316523   3 C  px        
   146      2.211167   9 F  s               112      2.120796   7 H  s         
    34      1.960674   2 C  px               89      1.960824   5 C  px        

 Vector   63  Occ=0.000000D+00  E= 4.245012D-01
              MO Center=  3.1D-02,  3.5D-01, -3.1D-01, r^2= 1.0D+01
   Bfn.  Coefficient  Atom+Function         Bfn.  Coefficient  Atom+Function  
  ----- ------------  ---------------      ----- ------------  ---------------
    27      6.601011   2 C  s                50     -5.198597   3 C  s         
     4     -4.263836   1 O  s                82      3.628565   5 C  s         
    35      2.995161   2 C  py               32      2.253001   2 C  py        
    91     -2.255286   5 C  pz              113     -1.991019   7 H  s         
    58      1.829223   3 C  py              154      1.715521   9 F  py        

 Vector   64  Occ=0.000000D+00  E= 4.275564D-01
              MO Center=  2.2D-01,  8.0D-01,  7.4D-02, r^2= 9.4D+00
   Bfn.  Coefficient  Atom+Function         Bfn.  Coefficient  Atom+Function  
  ----- ------------  ---------------      ----- ------------  ---------------
    27     36.958056   2 C  s                50    -25.028487   3 C  s         
     4    -11.722253   1 O  s                34      5.961895   2 C  px        
    49      5.256217   3 C  s                32     -5.067319   2 C  py        
    57      4.722613   3 C  px               31     -4.345140   2 C  px        
    54     -4.362015   3 C  px              123     -3.548297   8 F  s         

 Vector   65  Occ=0.000000D+00  E= 4.402269D-01
              MO Center= -1.5D-01, -2.6D-01,  2.5D-01, r^2= 8.9D+00
   Bfn.  Coefficient  Atom+Function         Bfn.  Coefficient  Atom+Function  
  ----- ------------  ---------------      ----- ------------  ---------------
    82     14.726893   5 C  s                50    -11.684095   3 C  s         
     4      8.094435   1 O  s                35      7.712484   2 C  py        
    34      5.485054   2 C  px               32     -3.898581   2 C  py        
    87     -3.904272   5 C  py              146     -3.860035   9 F  s         
    57      3.603566   3 C  px              104     -2.990328   6 H  s         

 Vector   66  Occ=0.000000D+00  E= 4.654419D-01
              MO Center=  1.9D-02,  3.1D-01, -1.2D-02, r^2= 9.3D+00
   Bfn.  Coefficient  Atom+Function         Bfn.  Coefficient  Atom+Function  
  ----- ------------  ---------------      ----- ------------  ---------------
    82     15.893544   5 C  s                35      6.415456   2 C  py        
    27     -5.773064   2 C  s                50     -5.100810   3 C  s         
   169     -4.650463  10 F  s                34      3.138612   2 C  px        
   113     -3.118353   7 H  s               112     -2.677431   7 H  s         
    58      2.533023   3 C  py               26      2.243474   2 C  s         

 Vector   67  Occ=0.000000D+00  E= 4.869533D-01
              MO Center= -5.1D-01,  1.3D+00, -2.5D-02, r^2= 7.8D+00
   Bfn.  Coefficient  Atom+Function         Bfn.  Coefficient  Atom+Function  
  ----- ------------  ---------------      ----- ------------  ---------------
     4      7.278991   1 O  s                27     -6.237551   2 C  s         
    34      4.065004   2 C  px               50      3.697335   3 C  s         
    31      2.956944   2 C  px               57     -2.854921   3 C  px        
    54      2.614228   3 C  px              112     -2.611091   7 H  s         
   103     -2.465878   6 H  s                71     -1.969176   4 H  s         

 Vector   68  Occ=0.000000D+00  E= 4.944196D-01
              MO Center=  1.2D-01,  5.9D-01, -2.9D-01, r^2= 9.3D+00
   Bfn.  Coefficient  Atom+Function         Bfn.  Coefficient  Atom+Function  
  ----- ------------  ---------------      ----- ------------  ---------------
    82     12.023862   5 C  s                27     -7.541800   2 C  s         
   146     -4.197078   9 F  s               103     -4.093095   6 H  s         
     4      3.882688   1 O  s                31      3.882314   2 C  px        
    35      3.826988   2 C  py               54      3.578477   3 C  px        
    55      3.320322   3 C  py               26      3.275004   2 C  s         

 Vector   69  Occ=0.000000D+00  E= 5.017798D-01
              MO Center=  8.7D-01,  6.4D-01, -2.3D-01, r^2= 1.0D+01
   Bfn.  Coefficient  Atom+Function         Bfn.  Coefficient  Atom+Function  
  ----- ------------  ---------------      ----- ------------  ---------------
    82      6.425382   5 C  s               123     -5.496788   8 F  s         
    27     -5.298402   2 C  s               146      3.923818   9 F  s         
     4      3.901993   1 O  s                86      3.280787   5 C  px        
    54      2.945181   3 C  px               71     -2.515504   4 H  s         
    55     -2.200166   3 C  py               32      2.125379   2 C  py        


 center of mass
 --------------
 x =  -0.02422616 y =  -0.13506048 z =   0.00751375

 moments of inertia (a.u.)
 ------------------
         730.266195279681          10.725059396010          -2.934683405075
          10.725059396010         500.044724476715           1.622645503385
          -2.934683405075           1.622645503385         906.362656132966

  Mulliken analysis of the total density
  --------------------------------------

    Atom       Charge   Shell Charges
 -----------   ------   -------------------------------------------------------
    1 O    8     8.84   2.00  0.82  1.03  0.19  2.82  1.83  0.11  0.02  0.02
    2 C    6     5.63   2.01  0.66  0.47 -0.05  1.95  0.32  0.20  0.15 -0.07
    3 C    6     5.32   2.01  0.65  0.60 -0.28  1.99  0.36  0.05  0.06 -0.11
    4 H    1     0.83   0.70  0.03  0.00  0.08  0.02
    5 C    6     3.94   2.01  0.68 -0.18 -0.19  1.70 -0.21 -0.01  0.29 -0.16
    6 H    1     1.25   0.76  0.49  0.01  0.03 -0.04
    7 H    1     1.24   0.76  0.49  0.00  0.03 -0.05
    8 F    9     9.67   2.00  0.89  1.09  0.18  3.31  2.08  0.10  0.01  0.02
    9 F    9     9.65   2.00  0.89  1.09  0.15  3.31  2.09  0.09  0.01  0.02
   10 F    9     9.64   2.00  0.89  1.09  0.15  3.31  2.08  0.09  0.01  0.02

       Multipole analysis of the density wrt the origin
       ------------------------------------------------

     L   x y z        total         open         nuclear
     -   - - -        -----         ----         -------
     0   0 0 0     -0.000000      0.000000     56.000000

     1   1 0 0      0.094153      0.000000      0.000000
     1   0 1 0      0.401461      0.000000      0.000000
     1   0 0 1     -0.291635      0.000000     -0.000000

     2   2 0 0    -26.048048      0.000000    181.296233
     2   1 1 0      1.862756      0.000000      1.922606
     2   1 0 1      1.287542      0.000000      2.932443
     2   0 2 0    -30.029323      0.000000    296.163406
     2   0 1 1     -0.427838      0.000000     -1.495506
     2   0 0 2    -30.581812      0.000000     77.097142

                   NWChem MP2 Semi-direct Energy/Gradient Module
                   ---------------------------------------------


                                    6 Ref Open



int_init: setting std/high accuracies to  1.0D-16  1.0D-32
  Basis functions       =    188
  Molecular orbitals    =    188
  Frozen core           =      7
  Frozen virtuals       =      0
  Active alpha occupied =     21
  Active beta occupied  =     21
  Active alpha virtual  =    160
  Active beta virtual   =    160
  Use MO symmetry       = F
  Use skeleton AO sym   = F

  AO/Fock/Back tols     =   1.0D-15  1.0D-15  1.0D-15

 GA uses MA = F    GA memory limited = T

 Available: 
  local mem=  2.12D+09
 global mem=  5.90D+08
 local disk=  0.00D+00

int_init: setting std/high accuracies to  1.0D-16  1.0D-32
  mp2_memr nvloc                     3
  nvloc new                     3
   1 passes of  21:        5242880                      89113                   4731990.
   1 passes of  21: M   2121721563           G      589820386           F    2116478683.

 Semi-direct pass number   1 of   1  for RHF alpha+beta  at        9.3s

int_init: setting std/high accuracies to  1.0D-16  1.0D-32
  vrange nnbf                 17759
  mp2_eaftype                    14  avail_ma_in_mb                 18499
 EAF : mp2_eaftype filesize          14    1932194.
  mp2_eaf for mointskh                     14
Node 0 wrote      9.0 Mb in      0.0 s     Agg I/O rate: 28042.4 Mb/s
 Done moints_semi at       10.3s
  mp2_eaftype                    14  avail_ma_in_mb                 18485
 EAF : mp2_eaftype filesize          14    1932194.
  mp2_eaf for kh                    14
  mp2_eaftype                    10  avail_ma_in_mb                 18485
 EAF : mp2_eaftype filesize          10     423360.
  mp2_eaf for ta tb                    10
  mp2_eaf for ta                     10
  mp2_eaf for tb                     10
 Done maket at       10.3s
 Done pijab at       10.3s
 Done wijab at       10.3s
 Done lai at       10.5s

int_init: setting std/high accuracies to  1.0D-16  1.0D-32
  mp2_eaftype                    13  avail_ma_in_mb                 18464
 EAF : mp2_eaftype filesize          13    1765151.
  mp2_eaf for 2pdm                     13
 Done nonsep at       12.6s
 Done multipass loop at       12.6s


          -------------------------------------------
          SCF energy                -488.572441857792
          Correlation energy          -1.216287211050
          Singlet pairs               -0.722636441204
          Triplet pairs               -0.493650769847
          Total MP2 energy          -489.788729068843
          -------------------------------------------



          ---------------------------------------------------
                    Spin Component Scaled (SCS) MP2
          Same spin pairs                     -0.329100513231
          Same spin scaling factor             0.333333333333
          Opposite spin pairs                 -0.887186697819
          Opposite spin scaling fact.          1.200000000000
          SCS-MP2 correlation energy          -1.174324208460
          Total SCS-MP2 energy              -489.746766066253
          ---------------------------------------------------

 Start laifock at       12.6s

int_init: setting std/high accuracies to  1.0D-16  1.0D-32
 Done laifock at       13.0s
                                NWChem CPHF Module
                                ------------------



int_init: setting std/high accuracies to  1.0D-16  1.0D-32
    scftype = RHF 
    nclosed =   28
      nopen =    0
  variables =     4480
  tolerance =   1.0D-06
  max. iter =  999

 SCF residual:    3.5512885898709576E-011

            ----- linear solve (tol: 1.0E-06 prod-acc: 3.3E-14) -----

               iter nbas    rnorm     rnorm-scal   ratio     time
               ---- ---- ----------- ----------- --------- -------
                  1    1  8.9483E-02  4.0956E-01    0.0000    12.3
                  2    2  1.5592E-02  7.1363E-02    0.1742    12.5
                  3    3  4.3905E-03  2.0096E-02    0.2816    12.8
                  4    4  1.6638E-03  7.6152E-03    0.3790    13.0
                  5    5  4.2082E-04  1.9261E-03    0.2529    13.3
                  6    6  1.3015E-04  5.9571E-04    0.3093    13.5
                  7    7  4.5529E-05  2.0839E-04    0.3498    13.8
                  8    8  1.5215E-05  6.9641E-05    0.3342    14.0
                  9    9  5.3060E-06  2.4286E-05    0.3487    14.3
                 10   10  1.7087E-06  7.8209E-06    0.3220    14.5
                 11   11  5.3804E-07  2.4626E-06    0.3149    14.8
                 12   12  1.3456E-07  6.1590E-07    0.2501    15.0

 CPHF converged to   6.2D-07 in   12 iters

 Start make_tot_dens at       16.9s
 Done make_tot_dens at       16.9s

int_init: setting std/high accuracies to  1.0D-16  1.0D-32
                Dipole Moments (a.u.)
                --------------
         Nuclear       SCF       SCF+MP2
       ----------- ----------- -----------
 X       0.000000    0.094153    0.025260
 Y       0.000000    0.401461    0.321674
 Z      -0.000000   -0.291635   -0.275510


 MP2 RHF      natural orbital occupation numbers


              1      
    1    2.0000
    2    2.0000
    3    2.0000
    4    2.0000
    5    2.0000
    6    2.0000
    7    2.0000
    8    1.9900
    9    1.9890
   10    1.9889
   11    1.9860
   12    1.9810
   13    1.9766
   14    1.9751
   15    1.9750
   16    1.9736
   17    1.9729
   18    1.9726
   19    1.9696
   20    1.9677
   21    1.9664
   22    1.9659
   23    1.9634
   24    1.9591
   25    1.9582
   26    1.9568
   27    1.9549
   28    1.9313
   29    0.0525
   30    0.0383
   31    0.0364
   32    0.0328
   33    0.0298
   34    0.0257
   35    0.0238
   36    0.0206
   37    0.0184
   38    0.0180
   39    0.0171
   40    0.0155
   41    0.0154
   42    0.0148
   43    0.0143
   44    0.0137
   45    0.0122
   46    0.0121
   47    0.0099
   48    0.0095
   49    0.0090
   50    0.0087
   51    0.0085
   52    0.0079
   53    0.0076
   54    0.0073
   55    0.0062
   56    0.0059
   57    0.0057
   58    0.0057
   59    0.0057
   60    0.0055
   61    0.0054
   62    0.0052
   63    0.0051
   64    0.0050
   65    0.0048
   66    0.0047
   67    0.0046
   68    0.0045
   69    0.0044
   70    0.0044
   71    0.0044
   72    0.0041
   73    0.0040
   74    0.0040
   75    0.0035
   76    0.0028
   77    0.0027
   78    0.0024
   79    0.0020
   80    0.0017
   81    0.0017
   82    0.0016
   83    0.0016
   84    0.0015
   85    0.0014
   86    0.0014
   87    0.0012
   88    0.0011
   89    0.0011
   90    0.0010
   91    0.0010
   92    0.0010
   93    0.0008
   94    0.0008
   95    0.0007
   96    0.0007
   97    0.0006
   98    0.0006
   99    0.0006
  100    0.0006
  101    0.0005
  102    0.0005
  103    0.0005
  104    0.0005
  105    0.0005
  106    0.0004
  107    0.0004
  108    0.0004
  109    0.0004
  110    0.0004
  111    0.0004
  112    0.0004
  113    0.0003
  114    0.0003
  115    0.0003
  116    0.0003
  117    0.0003
  118    0.0003
  119    0.0003
  120    0.0003
  121    0.0003
  122    0.0003
  123    0.0002
  124    0.0002
  125    0.0002
  126    0.0002
  127    0.0002
  128    0.0002
  129    0.0002
  130    0.0002
  131    0.0001
  132    0.0001
  133    0.0001
  134    0.0001
  135    0.0001
  136    0.0001
  137    0.0001
  138    0.0001
  139    0.0001
  140    0.0001
  141    0.0001
  142    0.0001
  143    0.0001
  144    0.0001
  145    0.0001
  146    0.0001
  147    0.0001
  148    0.0001
  149    0.0000
  150    0.0000
  151    0.0000
  152    0.0000
  153    0.0000
  154    0.0000
  155    0.0000
  156    0.0000
  157    0.0000
  158    0.0000
  159    0.0000
  160    0.0000
  161    0.0000
  162    0.0000
  163    0.0000
  164    0.0000
  165    0.0000
  166    0.0000
  167    0.0000
  168    0.0000
  169    0.0000
  170    0.0000
  171    0.0000
  172    0.0000
  173    0.0000
  174    0.0000
  175    0.0000
  176   -0.0000
  177   -0.0000
  178   -0.0000
  179   -0.0000
  180   -0.0000
  181   -0.0000
  182   -0.0000
  183   -0.0000
  184   -0.0001
  185   -0.0001
  186   -0.0002
  187   -0.0002
  188   -0.0003

  MP2 natural orbitals output to ./6R2.mp2nos


int_init: setting std/high accuracies to  1.0D-16  1.0D-32

int_init: setting std/high accuracies to  1.0D-16  1.0D-32


                         mp2 ENERGY GRADIENTS

    atom               coordinates                        gradient
                 x          y          z           x          y          z
   1 O      -2.233308   2.873012   0.015144    0.010094   0.006245   0.004161
   2 C       0.107855   1.760152   0.015144   -0.001866  -0.000475   0.006107
   3 C       2.257462   3.119283   0.015144    0.000064   0.000453  -0.000750
   4 H      -3.457774   1.763417  -0.832928   -0.008680  -0.006386  -0.006577
   5 C       0.083721  -1.087148   0.015144    0.002284   0.000115  -0.006157
   6 H       4.075111   2.160390   0.015144   -0.000440   0.000010  -0.002394
   7 H       2.171994   5.177870   0.015144    0.000046   0.000026   0.000834
   8 F       2.408938  -2.116608   0.015144   -0.000568   0.000354   0.000796
   9 F      -1.183196  -1.988335  -2.044936    0.001038  -0.000072   0.002113
  10 F      -1.183196  -1.988335   2.075224   -0.001972  -0.000271   0.001868

                 ----------------------------------------
                 |  Time  |  1-e(secs)   |  2-e(secs)   |
                 ----------------------------------------
                 |  CPU   |       0.00   |       0.86   |
                 ----------------------------------------
                 |  WALL  |       0.00   |       0.86   |
                 ----------------------------------------
 -----------------------
 Performance information
 -----------------------

 Timer overhead =  0.00D+00 seconds/call

               Nr. of calls         CPU time (s)                 Wall time (s)                GFlops
             ---------------    -------------------     ------------------------------   -------------------
Name         Min   Avg   Max    Min     Avg     Max     Min     Avg     Max   Mx/calls   Min     Max     Sum
mp2: moin     1     1     1   0.71    0.75    0.80     0.96    0.96    0.96    0.96      0.0     0.0     0.0   
mp2: make     1     1     1   5.61E-2 6.29E-2 6.99E-2  6.97E-2 7.00E-2 7.06E-2 7.06E-2   0.0     0.0     0.0   
mp2: pija     1     1     1   3.55E-3 6.57E-3 7.88E-3  7.49E-3 7.50E-3 7.88E-3 7.88E-3   0.0     0.0     0.0   
mp2: wija     1     1     1   4.11E-3 7.05E-3 8.17E-3  8.13E-3 8.13E-3 8.18E-3 8.18E-3   0.0     0.0     0.0   
mp2: lai      1     1     1   0.11    0.11    0.11     0.11    0.11    0.11    0.11      0.0     0.0     0.0   
mp2: back     1     1     1   0.10    0.10    0.11     0.11    0.11    0.11    0.11      0.0     0.0     0.0   
mp2: nons     1     1     1    1.3     1.6     2.0      1.3     1.6     2.0     2.0      0.0     0.0     0.0   
mp2: laif     1     1     1   0.37    0.37    0.38     0.40    0.40    0.40    0.40      0.0     0.0     0.0   
mp2: cphf     1     1     1    3.4     3.5     3.5      3.9     3.9     3.9     3.9      0.0     0.0     0.0   
mp2: wijf     1     1     1   0.36    0.37    0.38     0.39    0.39    0.39    0.39      0.0     0.0     0.0   
mp2: sep      1     1     1   0.89    0.91    0.92     0.94    0.94    0.94    0.94      0.0     0.0     0.0   
mp2: tota     1     1     1    8.2     8.3     8.4      9.1     9.1     9.1     9.1      0.0     0.0     0.0   

 The average no. of pstat calls per process was 1.20D+01
 with a timing overhead of 0.00D+00s


@ Step       Energy      Delta E   Gmax     Grms     Xrms     Xmax   Walltime
@ ---- ---------------- -------- -------- -------- -------- -------- --------
@    0    -489.78872907  0.0D+00  0.01009  0.00376  0.00000  0.00000     18.3
                                                                    

                                 NWChem SCF Module
                                 -----------------


                                    6 Ref Open



  ao basis        = "ao basis"
  functions       =   188
  atoms           =    10
  closed shells   =    28
  open shells     =     0
  charge          =   0.00
  wavefunction    = RHF 
  input vectors   = ./6R2.movecs
  output vectors  = ./6R2.movecs
  use symmetry    = F
  symmetry adapt  = F


 Summary of "ao basis" -> "ao basis" (spherical)
 ------------------------------------------------------------------------------
       Tag                 Description            Shells   Functions and Types
 ---------------- ------------------------------  ------  ---------------------
 O                        aug-cc-pVDZ                9       23   4s3p2d
 C                        aug-cc-pVDZ                9       23   4s3p2d
 H                        aug-cc-pVDZ                5        9   3s2p
 F                        aug-cc-pVDZ                9       23   4s3p2d



int_init: setting std/high accuracies to  1.0D-16  1.0D-32

 Forming initial guess at      18.4s


 Forcing the number of linearly dependent vectors to be  0

 Loading old vectors from job with title :

6 Ref Open


 Starting SCF solution at      18.4s



 ----------------------------------------------
         Quadratically convergent ROHF

 Convergence threshold     :          1.000E-09
 Maximum no. of iterations :           99
 Final Fock-matrix accuracy:          1.000E-15
 ----------------------------------------------


              iter       energy          gnorm     gmax       time
             ----- ------------------- --------- --------- --------
                 1     -488.5728856008  8.95D-02  1.30D-02     16.8
                 2     -488.5734546557  5.92D-03  6.41D-04     17.6
                 3     -488.5734588152  1.72D-05  3.35D-06     19.1
                 4     -488.5734588152  1.95D-10  3.00D-11     21.9


       Final RHF  results 
       ------------------ 

         Total SCF energy =   -488.573458815228
      One-electron energy =  -1335.536179672449
      Two-electron energy =    515.099975268947
 Nuclear repulsion energy =    331.862745588273

        Time for solution =      5.5s


             Final eigenvalues
             -----------------

              1      
    1  -26.3682
    2  -26.3637
    3  -26.3621
    4  -20.6250
    5  -11.5394
    6  -11.3459
    7  -11.2666
    8   -1.7385
    9   -1.6507
   10   -1.6437
   11   -1.4303
   12   -1.0924
   13   -0.9878
   14   -0.8711
   15   -0.8308
   16   -0.8293
   17   -0.8034
   18   -0.7215
   19   -0.7201
   20   -0.6877
   21   -0.6786
   22   -0.6726
   23   -0.6602
   24   -0.6461
   25   -0.6195
   26   -0.5823
   27   -0.5448
   28   -0.3858
   29    0.0354
   30    0.0457
   31    0.0553
   32    0.0845
   33    0.0912
   34    0.1046
   35    0.1072
   36    0.1261
   37    0.1386
   38    0.1457

                       ROHF Final Molecular Orbital Analysis
                       -------------------------------------

 Vector   11  Occ=2.000000D+00  E=-1.430296D+00
              MO Center= -1.0D+00,  1.3D+00, -4.8D-02, r^2= 6.3D-01
   Bfn.  Coefficient  Atom+Function         Bfn.  Coefficient  Atom+Function  
  ----- ------------  ---------------      ----- ------------  ---------------
     3      0.485738   1 O  s                 2      0.413544   1 O  s         
    27     -0.228531   2 C  s                70      0.190390   4 H  s         

 Vector   12  Occ=2.000000D+00  E=-1.092402D+00
              MO Center=  3.1D-01,  7.0D-01, -6.3D-03, r^2= 2.1D+00
   Bfn.  Coefficient  Atom+Function         Bfn.  Coefficient  Atom+Function  
  ----- ------------  ---------------      ----- ------------  ---------------
    25      0.271564   2 C  s                48      0.227407   3 C  s         
    26      0.210089   2 C  s                80      0.199467   5 C  s         
    49      0.150409   3 C  s         

 Vector   13  Occ=2.000000D+00  E=-9.877590D-01
              MO Center=  2.7D-01,  9.5D-03,  1.7D-03, r^2= 3.2D+00
   Bfn.  Coefficient  Atom+Function         Bfn.  Coefficient  Atom+Function  
  ----- ------------  ---------------      ----- ------------  ---------------
    82      0.361078   5 C  s                80     -0.293009   5 C  s         
    49      0.245152   3 C  s                50     -0.242766   3 C  s         
    48      0.214043   3 C  s               124      0.178077   8 F  px        
    29      0.173111   2 C  py              149     -0.162266   9 F  pz        
   172      0.160636  10 F  pz               54     -0.157882   3 C  px        

 Vector   14  Occ=2.000000D+00  E=-8.710716D-01
              MO Center=  2.2D-01, -2.0D-01,  9.4D-03, r^2= 2.9D+00
   Bfn.  Coefficient  Atom+Function         Bfn.  Coefficient  Atom+Function  
  ----- ------------  ---------------      ----- ------------  ---------------
    84      0.304253   5 C  py              124      0.268338   8 F  px        
    26      0.261053   2 C  s               127      0.177275   8 F  px        
    49     -0.158036   3 C  s                29     -0.156477   2 C  py        
    82      0.155843   5 C  s               148      0.151292   9 F  py        

 Vector   15  Occ=2.000000D+00  E=-8.307709D-01
              MO Center=  1.6D-01, -9.0D-01,  9.7D-02, r^2= 2.1D+00
   Bfn.  Coefficient  Atom+Function         Bfn.  Coefficient  Atom+Function  
  ----- ------------  ---------------      ----- ------------  ---------------
   172      0.305032  10 F  pz               83      0.299509   5 C  px        
   124     -0.253545   8 F  px              149     -0.241033   9 F  pz        
   125      0.236816   8 F  py              175      0.192162  10 F  pz        
    32     -0.180501   2 C  py              152     -0.157032   9 F  pz        
   127     -0.150843   8 F  px        

 Vector   16  Occ=2.000000D+00  E=-8.292814D-01
              MO Center= -1.4D-01, -9.7D-01, -7.6D-02, r^2= 1.9D+00
   Bfn.  Coefficient  Atom+Function         Bfn.  Coefficient  Atom+Function  
  ----- ------------  ---------------      ----- ------------  ---------------
    85      0.300823   5 C  pz              126      0.282290   8 F  pz        
   170      0.271975  10 F  px              147     -0.235816   9 F  px        
   149     -0.215825   9 F  pz              129      0.191227   8 F  pz        
   173      0.174946  10 F  px              150     -0.150114   9 F  px        

 Vector   17  Occ=2.000000D+00  E=-8.033501D-01
              MO Center= -3.4D-01,  1.0D+00, -6.6D-02, r^2= 3.0D+00
   Bfn.  Coefficient  Atom+Function         Bfn.  Coefficient  Atom+Function  
  ----- ------------  ---------------      ----- ------------  ---------------
     5      0.370096   1 O  px               50      0.332425   3 C  s         
    27     -0.301737   2 C  s                70     -0.280912   4 H  s         
    49     -0.253209   3 C  s                26      0.218466   2 C  s         
     8      0.198932   1 O  px              102     -0.165014   6 H  s         
    32      0.155129   2 C  py               28     -0.151174   2 C  px        

 Vector   18  Occ=2.000000D+00  E=-7.215319D-01
[...]
           6    -0.00165     0.05112    -0.02151    -0.02089    -0.00366    -0.00047
           7    -0.00933     0.00984     0.01589     0.00608    -0.05225    -0.04522
           8    -0.00102    -0.02766    -0.08957    -0.02016     0.13936    -0.05211
           9     0.14114    -0.07651     0.03646    -0.02583     0.00113    -0.00178
          10     0.05394    -0.00978    -0.09835     0.19235    -0.00831    -0.10497
          11     0.00559     0.02894     0.12125     0.33831     0.17064     0.11437
          12    -0.21994     0.00652     0.18865    -0.83757     0.01002     0.02118
          13    -0.00165    -0.01808    -0.03475    -0.01532    -0.00061     0.00109
          14     0.00022    -0.00195    -0.00351    -0.00151    -0.03026    -0.00086
          15     0.00205     0.05893    -0.03117     0.01002    -0.00543    -0.00036
          16    -0.02102    -0.00596    -0.02367    -0.00489     0.03870    -0.09097
          17    -0.00449    -0.04502    -0.16868    -0.02840     0.31273    -0.14025
          18     0.23988    -0.02003    -0.00886     0.05201     0.01664    -0.00883
          19    -0.00515     0.04722     0.10176     0.02334    -0.25846     0.05592
          20    -0.00068    -0.02851    -0.08529    -0.02000     0.13353    -0.04937
          21     0.15620    -0.22766     0.11883    -0.06393    -0.01528     0.00095
          22    -0.00882     0.00826     0.01697     0.00257    -0.01406    -0.03370
          23     0.00055     0.06063     0.09874     0.02283    -0.07311    -0.09498
          24    -0.07351     0.02672    -0.01204     0.00689    -0.00118     0.02062
          25    -0.06280    -0.00987     0.01112     0.00271     0.00128     0.07155
          26    -0.00070     0.06607    -0.12794    -0.01961    -0.07074     0.03514
          27     0.04951     0.01823     0.00370    -0.00245     0.01458    -0.06602
          28     0.07308     0.00812    -0.00287     0.00542    -0.00453     0.09618
          29    -0.00149    -0.15501     0.00143    -0.01000    -0.05522     0.01680
          30     0.03535     0.00993    -0.01025     0.00301    -0.01459     0.05170

                   13          14          15          16          17          18
 
 P.Frequency      482.38      565.59      603.53      671.53      739.58      770.75
 
           1    -0.00126    -0.08630    -0.03260    -0.00339    -0.00141    -0.05304
           2    -0.00041     0.03128    -0.04333     0.00959     0.00596     0.01789
           3    -0.01955    -0.00409    -0.00084    -0.02666    -0.03594     0.00318
           4    -0.00383    -0.03045     0.03914    -0.01568    -0.00046     0.01315
           5     0.00430     0.08584     0.10229    -0.00157    -0.00114     0.06034
           6     0.10437    -0.00060     0.01041     0.21964     0.04519    -0.02183
           7     0.00681     0.02703     0.09662     0.00174    -0.00062     0.05476
           8     0.00233     0.00550     0.06788    -0.00333     0.00400     0.05842
           9    -0.01991     0.00095     0.00422    -0.02110    -0.00246     0.00540
          10     0.03480    -0.02530     0.07827     0.06593     0.06361    -0.00651
          11    -0.02272    -0.01343    -0.15846    -0.03397     0.00235    -0.04161
          12    -0.04402    -0.03846    -0.00017    -0.07186    -0.13767     0.01789
          13    -0.00473     0.06394    -0.04497     0.00513    -0.00114     0.00449
          14     0.00150     0.03563     0.05432    -0.01070    -0.00957    -0.05171
          15     0.05891     0.00012    -0.00589    -0.03964     0.00106     0.00824
          16     0.00286    -0.06848     0.04271     0.01207     0.07433    -0.00559
          17     0.00378    -0.18666    -0.04765     0.01594    -0.00114    -0.05104
          18     0.03166    -0.03368    -0.03208    -0.02179    -0.76900     0.06924
          19     0.02059     0.25787     0.24434    -0.00014    -0.06081     0.21621
          20     0.00071     0.01309     0.07466    -0.00637     0.01044     0.06511
          21    -0.16249     0.03469     0.03302    -0.22404     0.54983    -0.02251
          22    -0.03080     0.05396    -0.11903     0.02844     0.00979     0.10340
          23    -0.00126    -0.07426     0.01248    -0.00954     0.00048    -0.01817
          24    -0.13336    -0.01365     0.02597     0.03059    -0.00120    -0.01391
          25     0.10883     0.00743     0.01898    -0.06244     0.00100    -0.06689
          26    -0.02398    -0.00526    -0.06529    -0.04417     0.00683    -0.01965
          27     0.01136     0.10966    -0.02842    -0.03880    -0.00275    -0.09199
          28    -0.07896    -0.03566     0.05076     0.03829    -0.01230    -0.04842
          29     0.02143    -0.01708    -0.04554     0.05678    -0.00871    -0.01814
          30     0.05718    -0.09088    -0.00240    -0.05286     0.02548     0.10497

                   19          20          21          22          23          24
 
 P.Frequency      879.49      967.43     1109.43     1142.10     1200.35     1282.25
 
           1     0.00145    -0.12188    -0.01731    -0.04729    -0.03764     0.00793
           2    -0.00206     0.04141    -0.00570     0.01764     0.02926    -0.06536
           3     0.00531    -0.00452    -0.00524    -0.00757    -0.00154    -0.02089
           4     0.00527     0.04014     0.01936     0.04813     0.01971    -0.01803
           5    -0.00195    -0.01950    -0.03387    -0.08719    -0.05287    -0.02438
           6    -0.04666    -0.00844     0.02999    -0.00533     0.00546     0.02290
           7    -0.01431     0.11948     0.01759     0.02153    -0.00413     0.04328
           8     0.00333    -0.06590     0.04387     0.07260     0.00861     0.01144
           9     0.14146     0.01348    -0.00111    -0.00077    -0.00012     0.00190
          10    -0.00893    -0.03013    -0.11268    -0.16052    -0.03506    -0.62461
          11     0.01658    -0.06535     0.10564     0.11456     0.03306     0.56726
          12    -0.00716     0.00273    -0.01762     0.02339    -0.02204     0.03501
          13    -0.00166    -0.01869    -0.07015    -0.05921     0.23558     0.01561
          14    -0.00040    -0.00903    -0.07680    -0.14637    -0.04755     0.09803
          15     0.00475    -0.00438    -0.21620     0.12321    -0.03437     0.01395
          16     0.04257     0.37235    -0.01959    -0.03506     0.00203     0.09911
          17    -0.01466     0.41098    -0.03123    -0.05557     0.01000     0.10155
          18    -0.52138     0.02965     0.02031    -0.01552     0.00488    -0.01889
          19     0.06561    -0.38473     0.16456     0.28649     0.10549     0.06841
          20    -0.00711    -0.07548     0.04940     0.08447     0.01154     0.01685
          21    -0.66744    -0.04201    -0.04476     0.06829    -0.00368     0.02215
          22    -0.00047     0.00361     0.00023    -0.01189    -0.08474     0.00829
          23     0.00113    -0.00129     0.01083     0.02318     0.04114    -0.01180
          24    -0.00073    -0.00027     0.01560    -0.00633     0.00922    -0.00211
          25    -0.00008     0.00863     0.04292     0.00948    -0.02320    -0.01204
          26    -0.00013     0.00803     0.03816     0.01614    -0.00440    -0.01379
          27    -0.00081     0.01020     0.06436     0.00011    -0.01015    -0.01349
          28     0.00083     0.00361    -0.00931     0.03080    -0.02285    -0.00450
          29     0.00040     0.00370    -0.00857     0.03989    -0.00629    -0.00950
          30    -0.00236    -0.00602     0.04499    -0.06542     0.02167     0.00668

                   25          26          27          28          29          30
 
 P.Frequency     1399.85     1440.72     1737.59     3220.01     3339.32     3793.99
 
           1     0.06029    -0.01130     0.02194     0.00028    -0.00070     0.04157
           2    -0.03553     0.02938     0.01047    -0.00023     0.00008     0.03739
           3     0.00188     0.00536     0.00601    -0.00008     0.00001     0.02308
           4    -0.14696    -0.00022    -0.18023     0.00765     0.00024     0.00011
           5     0.11268    -0.11341    -0.12002     0.00491    -0.00165     0.00192
           6    -0.01105    -0.00438    -0.01586     0.00054     0.00009     0.00064
           7     0.01164    -0.06064     0.13310    -0.04996     0.05622    -0.00070
           8    -0.03606    -0.00926     0.09116    -0.04379    -0.07631    -0.00024
           9     0.00188    -0.00457     0.01045    -0.00397     0.00622     0.00003
          10    -0.00680     0.17251     0.14667    -0.00218    -0.00034    -0.64719
          11     0.04019    -0.16007    -0.11604     0.00050     0.00068    -0.61340
          12     0.00552    -0.01237    -0.01557     0.00087    -0.00099    -0.37279
          13     0.01908    -0.02233     0.00819    -0.00027     0.00062    -0.00068
          14    -0.12104     0.10638     0.03339    -0.00000     0.00017    -0.00065
          15     0.00707    -0.00615    -0.00109    -0.00006     0.00000    -0.00049
          16     0.25392     0.17992     0.02241     0.53248    -0.64923    -0.00123
          17     0.41690     0.43268    -0.17857    -0.28974     0.33981     0.00037
          18     0.00729     0.01509     0.00376     0.05363    -0.06558    -0.00150
          19     0.22884     0.58865    -0.12159    -0.02876    -0.01388    -0.00040
          20    -0.01754     0.01646     0.11094     0.75310     0.58585    -0.00084
          21     0.02226     0.04980    -0.01690    -0.01215    -0.00846     0.00063
          22    -0.01206     0.01554     0.00260     0.00012    -0.00023     0.00004
          23     0.00925    -0.01359    -0.00494     0.00026    -0.00016     0.00013
          24     0.00096    -0.00129    -0.00037     0.00003    -0.00002     0.00005
          25     0.00574    -0.00150     0.00122    -0.00004    -0.00002     0.00014
          26     0.01295    -0.00764     0.00206    -0.00007     0.00005     0.00023
          27     0.00816    -0.00369     0.00149    -0.00004     0.00000     0.00017
          28     0.00373    -0.00190    -0.00022    -0.00001    -0.00002     0.00004
          29     0.01245    -0.00855     0.00095    -0.00005     0.00003     0.00007
          30    -0.01124     0.00721    -0.00056     0.00005     0.00000     0.00005



 ----------------------------------------------------------------------------
 Normal Eigenvalue ||    Projected Derivative Dipole Moments (debye/angs)
  Mode   [cm**-1]  ||      [d/dqX]             [d/dqY]           [d/dqZ]
 ------ ---------- || ------------------ ------------------ -----------------
    1       -0.000 ||      -0.035               0.005             0.003
    2       -0.000 ||       0.000              -0.031            -0.044
    3       -0.000 ||      -0.046               0.000            -0.005
    4       -0.000 ||       0.018              -0.001             0.001
    5        0.000 ||      -0.005              -0.017            -0.025
    6        0.000 ||       0.015              -0.004            -0.004
    7       64.790 ||       0.056              -0.006            -0.041
    8      241.133 ||      -0.078              -0.048             0.122
    9      247.907 ||      -0.385              -0.007             0.201
   10      291.864 ||       0.510               0.675            -1.279
   11      368.275 ||      -0.132               0.275            -0.011
   12      413.170 ||      -0.330               0.052             0.009
   13      482.382 ||       0.043              -0.038             0.058
   14      565.594 ||       0.236               0.356            -0.086
   15      603.534 ||       0.372               0.380             0.028
   16      671.527 ||       0.121              -0.191            -0.157
   17      739.583 ||       0.224              -0.047            -0.393
   18      770.747 ||       0.319               0.004             0.127
   19      879.486 ||      -0.089              -0.007             1.017
   20      967.428 ||       0.709              -0.184             0.047
   21     1109.429 ||      -0.705              -0.584            -2.250
   22     1142.102 ||      -0.345              -1.348             1.350
   23     1200.348 ||       2.586              -0.426            -0.373
   24     1282.247 ||      -0.995               1.819             0.030
   25     1399.849 ||      -1.243              -0.777            -0.043
   26     1440.725 ||       0.997               0.860             0.048
   27     1737.587 ||      -0.939              -0.052            -0.073
   28     3220.011 ||       0.211               0.001             0.016
   29     3339.320 ||      -0.073               0.022            -0.001
   30     3793.995 ||      -1.369              -0.703            -0.514
 ----------------------------------------------------------------------------



  
  
 ----------------------------------------------------------------------------
 Normal Eigenvalue ||           Projected Infra Red Intensities
  Mode   [cm**-1]  || [atomic units] [(debye/angs)**2] [(KM/mol)] [arbitrary]
 ------ ---------- || -------------- ----------------- ---------- -----------
    1       -0.000 ||    0.000055           0.001         0.053       0.011
    2       -0.000 ||    0.000123           0.003         0.120       0.025
    3       -0.000 ||    0.000092           0.002         0.089       0.019
    4       -0.000 ||    0.000014           0.000         0.013       0.003
    5        0.000 ||    0.000042           0.001         0.041       0.009
    6        0.000 ||    0.000011           0.000         0.010       0.002
    7       64.790 ||    0.000210           0.005         0.205       0.043
    8      241.133 ||    0.001016           0.023         0.990       0.209
    9      247.907 ||    0.008179           0.189         7.973       1.681
   10      291.864 ||    0.101891           2.351        99.329      20.945
   11      368.275 ||    0.004036           0.093         3.934       0.830
   12      413.170 ||    0.004829           0.111         4.708       0.993
   13      482.382 ||    0.000287           0.007         0.280       0.059
   14      565.594 ||    0.008251           0.190         8.044       1.696
   15      603.534 ||    0.012289           0.284        11.980       2.526
   16      671.527 ||    0.003270           0.075         3.188       0.672
   17      739.583 ||    0.008977           0.207         8.751       1.845
   18      770.747 ||    0.005108           0.118         4.980       1.050
   19      879.486 ||    0.045211           1.043        44.074       9.294
   20      967.428 ||    0.023368           0.539        22.781       4.804
   21     1109.429 ||    0.255716           5.900       249.285      52.567
   22     1142.102 ||    0.162909           3.758       158.812      33.489
   23     1200.348 ||    0.303716           7.007       296.077      62.434
   24     1282.247 ||    0.186407           4.301       181.718      38.319
   25     1399.849 ||    0.093259           2.152        90.914      19.171
   26     1440.725 ||    0.075291           1.737        73.397      15.477
   27     1737.587 ||    0.038528           0.889        37.559       7.920
   28     3220.011 ||    0.001934           0.045         1.885       0.398
   29     3339.320 ||    0.000249           0.006         0.243       0.051
   30     3793.995 ||    0.114112           2.633       111.242      23.458
 ----------------------------------------------------------------------------



 vib:animation  F

 Task  times  cpu:      833.4s     wall:      897.2s


                                NWChem Input Module
                                -------------------


 Summary of allocated global arrays
-----------------------------------
  No active global arrays


MA_summarize_allocated_blocks: starting scan ...
MA_summarize_allocated_blocks: scan completed: 0 heap blocks, 0 stack blocks
MA usage statistics:

	allocation statistics:
					      heap	     stack
					      ----	     -----
	current number of blocks	         0	         0
	maximum number of blocks	        22	        39
	current total bytes		         0	         0
	maximum total bytes		  35697336	  26337384
	maximum total K-bytes		     35698	     26338
	maximum total M-bytes		        36	        27


                                     CITATION
                                     --------
                Please cite the following reference when publishing
                           results obtained with NWChem:

          E. Apra, E. J. Bylaska, W. A. de Jong, N. Govind, K. Kowalski,
       T. P. Straatsma, M. Valiev, H. J. J. van Dam, Y. Alexeev, J. Anchell,
       V. Anisimov, F. W. Aquino, R. Atta-Fynn, J. Autschbach, N. P. Bauman,
     J. C. Becca, D. E. Bernholdt, K. Bhaskaran-Nair, S. Bogatko, P. Borowski,
         J. Boschen, J. Brabec, A. Bruner, E. Cauet, Y. Chen, G. N. Chuev,
      C. J. Cramer, J. Daily, M. J. O. Deegan, T. H. Dunning Jr., M. Dupuis,
   K. G. Dyall, G. I. Fann, S. A. Fischer, A. Fonari, H. Fruchtl, L. Gagliardi,
      J. Garza, N. Gawande, S. Ghosh, K. Glaesemann, A. W. Gotz, J. Hammond,
       V. Helms, E. D. Hermes, K. Hirao, S. Hirata, M. Jacquelin, L. Jensen,
   B. G. Johnson, H. Jonsson, R. A. Kendall, M. Klemm, R. Kobayashi, V. Konkov,
      S. Krishnamoorthy, M. Krishnan, Z. Lin, R. D. Lins, R. J. Littlefield,
      A. J. Logsdail, K. Lopata, W. Ma, A. V. Marenich, J. Martin del Campo,
   D. Mejia-Rodriguez, J. E. Moore, J. M. Mullin, T. Nakajima, D. R. Nascimento,
    J. A. Nichols, P. J. Nichols, J. Nieplocha, A. Otero-de-la-Roza, B. Palmer,
    A. Panyala, T. Pirojsirikul, B. Peng, R. Peverati, J. Pittner, L. Pollack,
   R. M. Richard, P. Sadayappan, G. C. Schatz, W. A. Shelton, D. W. Silverstein,
   D. M. A. Smith, T. A. Soares, D. Song, M. Swart, H. L. Taylor, G. S. Thomas,
            V. Tipparaju, D. G. Truhlar, K. Tsemekhman, T. Van Voorhis,
      A. Vazquez-Mayagoitia, P. Verma, O. Villa, A. Vishnu, K. D. Vogiatzis,
        D. Wang, J. H. Weare, M. J. Williamson, T. L. Windus, K. Wolinski,
        A. T. Wong, Q. Wu, C. Yang, Q. Yu, M. Zacharias, Z. Zhang, Y. Zhao,
                                and R. J. Harrison
                        "NWChem: Past, present, and future
                         J. Chem. Phys. 152, 184102 (2020)
                               doi:10.1063/5.0004997

                                      AUTHORS
                                      -------
  E. Apra, E. J. Bylaska, N. Govind, K. Kowalski, M. Valiev, D. Mejia-Rodriguez,
       A. Kunitsa, N. P. Bauman, A. Panyala, W. A. de Jong, T. P. Straatsma,
   H. J. J. van Dam, D. Wang, T. L. Windus, J. Hammond, J. Autschbach, A. Woods,
    K. Bhaskaran-Nair, J. Brabec, K. Lopata, S. A. Fischer, S. Krishnamoorthy,
     M. Jacquelin, W. Ma, M. Klemm, O. Villa, Y. Chen, V. Anisimov, F. Aquino,
     S. Hirata, M. T. Hackler, E. Hermes, L. Jensen, J. E. Moore, J. C. Becca,
      V. Konjkov, T. Risthaus, M. Malagoli, A. Marenich, A. Otero-de-la-Roza,
        J. Mullin, P. Nichols, R. Peverati, J. Pittner, Y. Zhao, P.-D. Fan,
        A. Fonari, M. J. Williamson, R. J. Harrison, J. R. Rehr, M. Dupuis,
     D. Silverstein, D. M. A. Smith, J. Nieplocha, V. Tipparaju, M. Krishnan,
     B. E. Van Kuiken, A. Vazquez-Mayagoitia, M. Swart, Q. Wu, T. Van Voorhis,
     A. A. Auer, M. Nooijen, L. D. Crosby, E. Brown, G. Cisneros, G. I. Fann,
   H. Fruchtl, J. Garza, K. Hirao, R. A. Kendall, J. A. Nichols, K. Tsemekhman,
    K. Wolinski, J. Anchell, D. E. Bernholdt, P. Borowski, T. Clark, D. Clerc,
   H. Dachsel, M. J. O. Deegan, K. Dyall, D. Elwood, E. Glendening, M. Gutowski,
   A. C. Hess, J. Jaffe, B. G. Johnson, J. Ju, R. Kobayashi, R. Kutteh, Z. Lin,
   R. Littlefield, X. Long, B. Meng, T. Nakajima, S. Niu, L. Pollack, M. Rosing,
   K. Glaesemann, G. Sandrone, M. Stave, H. Taylor, G. Thomas, J. H. van Lenthe,
                               A. T. Wong, Z. Zhang.

 Total times  cpu:     1350.0s     wall:     1458.2s
