 Entering Gaussian System, Link 0=g16
 Input=7.gjf
 Output=7.log
 Initial command:
 /sw/contrib/gaussian/g16/A03/g16/l1.exe "/gscratch/scrubbed/gds001/Gau-11770.inp" -scrdir="/gscratch/scrubbed/gds001/"
 Entering Link 1 = /sw/contrib/gaussian/g16/A03/g16/l1.exe PID=     11778.
  
 Copyright (c) 1988,1990,1992,1993,1995,1998,2003,2009,2016,
            Gaussian, Inc.  All Rights Reserved.
  
 This is part of the Gaussian(R) 16 program.  It is based on
 the Gaussian(R) 09 system (copyright 2009, Gaussian, Inc.),
 the Gaussian(R) 03 system (copyright 2003, Gaussian, Inc.),
 the Gaussian(R) 98 system (copyright 1998, Gaussian, Inc.),
 the Gaussian(R) 94 system (copyright 1995, Gaussian, Inc.),
 the Gaussian 92(TM) system (copyright 1992, Gaussian, Inc.),
 the Gaussian 90(TM) system (copyright 1990, Gaussian, Inc.),
 the Gaussian 88(TM) system (copyright 1988, Gaussian, Inc.),
 the Gaussian 86(TM) system (copyright 1986, Carnegie Mellon
 University), and the Gaussian 82(TM) system (copyright 1983,
 Carnegie Mellon University). Gaussian is a federally registered
 trademark of Gaussian, Inc.
  
 This software contains proprietary and confidential information,
 including trade secrets, belonging to Gaussian, Inc.
  
 This software is provided under written license and may be
 used, copied, transmitted, or stored only in accord with that
 written license.
  
 The following legend is applicable only to US Government
 contracts under FAR:
  
                    RESTRICTED RIGHTS LEGEND
  
 Use, reproduction and disclosure by the US Government is
 subject to restrictions as set forth in subparagraphs (a)
 and (c) of the Commercial Computer Software - Restricted
 Rights clause in FAR 52.227-19.
  
 Gaussian, Inc.
 340 Quinnipiac St., Bldg. 40, Wallingford CT 06492
  
  
 ---------------------------------------------------------------
 Warning -- This program may not be used in any manner that
 competes with the business of Gaussian, Inc. or will provide
 assistance to any competitor of Gaussian, Inc.  The licensee
 of this program is prohibited from giving any competitor of
 Gaussian, Inc. access to this program.  By using this program,
 the user acknowledges that Gaussian, Inc. is engaged in the
 business of creating and licensing software in the field of
 computational chemistry and represents and warrants to the
 licensee that it is not a competitor of Gaussian, Inc. and that
 it will not use this program in any manner prohibited above.
 ---------------------------------------------------------------
  

 Cite this work as:
 Gaussian 16, Revision A.03,
 M. J. Frisch, G. W. Trucks, H. B. Schlegel, G. E. Scuseria, 
 M. A. Robb, J. R. Cheeseman, G. Scalmani, V. Barone, 
 G. A. Petersson, H. Nakatsuji, X. Li, M. Caricato, A. V. Marenich, 
 J. Bloino, B. G. Janesko, R. Gomperts, B. Mennucci, H. P. Hratchian, 
 J. V. Ortiz, A. F. Izmaylov, J. L. Sonnenberg, D. Williams-Young, 
 F. Ding, F. Lipparini, F. Egidi, J. Goings, B. Peng, A. Petrone, 
 T. Henderson, D. Ranasinghe, V. G. Zakrzewski, J. Gao, N. Rega, 
 G. Zheng, W. Liang, M. Hada, M. Ehara, K. Toyota, R. Fukuda, 
 J. Hasegawa, M. Ishida, T. Nakajima, Y. Honda, O. Kitao, H. Nakai, 
 T. Vreven, K. Throssell, J. A. Montgomery, Jr., J. E. Peralta, 
 F. Ogliaro, M. J. Bearpark, J. J. Heyd, E. N. Brothers, K. N. Kudin, 
 V. N. Staroverov, T. A. Keith, R. Kobayashi, J. Normand, 
 K. Raghavachari, A. P. Rendell, J. C. Burant, S. S. Iyengar, 
 J. Tomasi, M. Cossi, J. M. Millam, M. Klene, C. Adamo, R. Cammi, 
 J. W. Ochterski, R. L. Martin, K. Morokuma, O. Farkas, 
 J. B. Foresman, and D. J. Fox, Gaussian, Inc., Wallingford CT, 2016.
 
 ******************************************
 Gaussian 16:  ES64L-G16RevA.03 25-Dec-2016
                27-Oct-2020 
 ******************************************
 %nprocshared=28
 Will use up to   28 processors via shared memory.
 %mem=41GB
 %chk=7.chk
 -------------------------------------------------------
 # MP2/6-31G** Opt=(Recalc=50) Freq=(vibrot, anharmonic)
 -------------------------------------------------------
 1/10=4,18=20,19=15,38=1,71=50,80=1/1,3;
 2/9=110,12=2,17=6,18=5,40=1/2;
 3/5=1,6=6,7=101,11=9,25=1,30=1,71=2,140=1/1,2,3;
 4//1;
 5/5=2,38=5/2;
 8/6=3,8=1,10=2,19=11,30=-1/1;
 9/15=3,16=-3/6;
 11/6=1,8=1,15=11,17=12,24=-1,27=1,28=-2,29=300,32=6,42=3/1,2,10;
 10/6=2,21=1/2;
 8/6=4,8=1,10=2,19=11,30=-1/11,4;
 10/5=1,20=4/2;
 11/12=2,14=11,16=1,17=2,28=-2,42=3/2,10,12;
 6/7=2,8=2,9=2,10=2/1;
 7/10=1,12=2,25=1,44=2/1,2,3,16;
 1/10=4,18=20,19=15,71=50,80=1/3(3);
 2/9=110/2;
 7/9=1,25=1,44=-1/16;
 99//99;
 2/9=110/2;
 3/5=1,6=6,7=101,11=9,25=1,30=1,71=2,140=1/1,2,3;
 4/5=5,16=3,69=1/1;
 5/5=2,38=5/2;
 8/6=3,8=1,10=2,19=11,30=-1/1;
 9/15=3,16=-3/6;
 11/6=1,8=1,15=11,17=12,24=-1,27=1,28=-2,29=300,32=6,42=3/1,2,10;
 10/6=2,21=1/2;
 8/6=4,8=1,10=2,19=11,30=-1/11,4;
 10/5=1,20=4/2;
 11/12=2,14=11,16=1,17=2,28=-2,42=3/2,10,12;
 7/10=1,12=2,25=1,44=2/1,2,3,16;
 1/18=20,19=15,71=50,80=1/3(-12);
 2/9=110/2;
 6/7=2,8=2,9=2,10=2/1;
 7/9=1,25=1,44=-1/16;
 99//99;
 ---------
 H,Fme,Fme
 ---------
 Symbolic Z-matrix:
 Charge =  0 Multiplicity = 1
 C                    -1.10734   2.34061  -0.17673 
 C                    -1.12665   1.01037   0.01418 
 C                     0.14633   0.28937   0.31704 
 O                    -0.0109    3.16013  -0.1038 
 O                     1.08864   0.94285   0.7863 
 H                    -1.99114   2.92827  -0.40869 
 C                    -2.36702   0.19527  -0.02329 
 C                     0.264    -1.19317  -0.04587 
 H                     0.75222   2.65621   0.25934 
 F                    -3.47762   0.94243  -0.24683 
 F                    -2.56652  -0.45223   1.14902 
 F                    -2.32832  -0.73899  -1.00084 
 F                    -0.65519  -1.95975   0.59581 
 F                     1.48036  -1.71704   0.26228 
 F                     0.08465  -1.39887  -1.37793 
 

 GradGradGradGradGradGradGradGradGradGradGradGradGradGradGradGradGradGrad
 Berny optimization.
 Initialization pass.
                           ----------------------------
                           !    Initial Parameters    !
                           ! (Angstroms and Degrees)  !
 --------------------------                            --------------------------
 ! Name  Definition              Value          Derivative Info.                !
 --------------------------------------------------------------------------------
 ! R1    R(1,2)                  1.344          calculate D2E/DX2 analytically  !
 ! R2    R(1,4)                  1.3708         calculate D2E/DX2 analytically  !
 ! R3    R(1,6)                  1.0864         calculate D2E/DX2 analytically  !
 ! R4    R(2,3)                  1.494          calculate D2E/DX2 analytically  !
 ! R5    R(2,7)                  1.4847         calculate D2E/DX2 analytically  !
 ! R6    R(3,5)                  1.239          calculate D2E/DX2 analytically  !
 ! R7    R(3,8)                  1.5308         calculate D2E/DX2 analytically  !
 ! R8    R(4,9)                  0.9839         calculate D2E/DX2 analytically  !
 ! R9    R(7,10)                 1.3571         calculate D2E/DX2 analytically  !
 ! R10   R(7,11)                 1.354          calculate D2E/DX2 analytically  !
 ! R11   R(7,12)                 1.3528         calculate D2E/DX2 analytically  !
 ! R12   R(8,13)                 1.358          calculate D2E/DX2 analytically  !
 ! R13   R(8,14)                 1.3598         calculate D2E/DX2 analytically  !
 ! R14   R(8,15)                 1.3597         calculate D2E/DX2 analytically  !
 ! A1    A(2,1,4)              126.5586         calculate D2E/DX2 analytically  !
 ! A2    A(2,1,6)              123.6437         calculate D2E/DX2 analytically  !
 ! A3    A(4,1,6)              109.7957         calculate D2E/DX2 analytically  !
 ! A4    A(1,2,3)              119.6172         calculate D2E/DX2 analytically  !
 ! A5    A(1,2,7)              123.4903         calculate D2E/DX2 analytically  !
 ! A6    A(3,2,7)              116.8732         calculate D2E/DX2 analytically  !
 ! A7    A(2,3,5)              118.0512         calculate D2E/DX2 analytically  !
 ! A8    A(2,3,8)              118.9998         calculate D2E/DX2 analytically  !
 ! A9    A(5,3,8)              122.8266         calculate D2E/DX2 analytically  !
 ! A10   A(1,4,9)              109.4998         calculate D2E/DX2 analytically  !
 ! A11   A(2,7,10)             112.6811         calculate D2E/DX2 analytically  !
 ! A12   A(2,7,11)             111.332          calculate D2E/DX2 analytically  !
 ! A13   A(2,7,12)             111.9316         calculate D2E/DX2 analytically  !
 ! A14   A(10,7,11)            106.578          calculate D2E/DX2 analytically  !
 ! A15   A(10,7,12)            106.5363         calculate D2E/DX2 analytically  !
 ! A16   A(11,7,12)            107.4342         calculate D2E/DX2 analytically  !
 ! A17   A(3,8,13)             112.4961         calculate D2E/DX2 analytically  !
 ! A18   A(3,8,14)             112.8394         calculate D2E/DX2 analytically  !
 ! A19   A(3,8,15)             111.6296         calculate D2E/DX2 analytically  !
 ! A20   A(13,8,14)            106.3153         calculate D2E/DX2 analytically  !
 ! A21   A(13,8,15)            106.7511         calculate D2E/DX2 analytically  !
 ! A22   A(14,8,15)            106.3626         calculate D2E/DX2 analytically  !
 ! D1    D(4,1,2,3)             -1.1225         calculate D2E/DX2 analytically  !
 ! D2    D(4,1,2,7)            177.2298         calculate D2E/DX2 analytically  !
 ! D3    D(6,1,2,3)            179.442          calculate D2E/DX2 analytically  !
 ! D4    D(6,1,2,7)             -2.2058         calculate D2E/DX2 analytically  !
 ! D5    D(2,1,4,9)             -9.4049         calculate D2E/DX2 analytically  !
 ! D6    D(6,1,4,9)            170.0957         calculate D2E/DX2 analytically  !
 ! D7    D(1,2,3,5)             21.9622         calculate D2E/DX2 analytically  !
 ! D8    D(1,2,3,8)           -154.1311         calculate D2E/DX2 analytically  !
 ! D9    D(7,2,3,5)           -156.4972         calculate D2E/DX2 analytically  !
 ! D10   D(7,2,3,8)             27.4095         calculate D2E/DX2 analytically  !
 ! D11   D(1,2,7,10)            -1.1091         calculate D2E/DX2 analytically  !
 ! D12   D(1,2,7,11)          -120.7913         calculate D2E/DX2 analytically  !
 ! D13   D(1,2,7,12)           118.9449         calculate D2E/DX2 analytically  !
 ! D14   D(3,2,7,10)           177.2851         calculate D2E/DX2 analytically  !
 ! D15   D(3,2,7,11)            57.6028         calculate D2E/DX2 analytically  !
 ! D16   D(3,2,7,12)           -62.661          calculate D2E/DX2 analytically  !
 ! D17   D(2,3,8,13)           -60.8168         calculate D2E/DX2 analytically  !
 ! D18   D(2,3,8,14)           178.8951         calculate D2E/DX2 analytically  !
 ! D19   D(2,3,8,15)            59.1698         calculate D2E/DX2 analytically  !
 ! D20   D(5,3,8,13)           123.2865         calculate D2E/DX2 analytically  !
 ! D21   D(5,3,8,14)             2.9984         calculate D2E/DX2 analytically  !
 ! D22   D(5,3,8,15)          -116.7269         calculate D2E/DX2 analytically  !
 --------------------------------------------------------------------------------
 Trust Radius=3.00D-01 FncErr=1.00D-07 GrdErr=1.00D-07 EigMax=2.50D+02 EigMin=1.00D-04
 Number of steps in this run=     68 maximum allowed number of steps=    100.
 GradGradGradGradGradGradGradGradGradGradGradGradGradGradGradGradGradGrad

                          Input orientation:                          
 ---------------------------------------------------------------------
 Center     Atomic      Atomic             Coordinates (Angstroms)
 Number     Number       Type             X           Y           Z
 ---------------------------------------------------------------------
      1          6           0       -1.107344    2.340614   -0.176728
      2          6           0       -1.126652    1.010366    0.014181
      3          6           0        0.146329    0.289371    0.317039
      4          8           0       -0.010901    3.160128   -0.103799
      5          8           0        1.088637    0.942852    0.786303
      6          1           0       -1.991138    2.928270   -0.408695
      7          6           0       -2.367019    0.195270   -0.023293
      8          6           0        0.264000   -1.193174   -0.045865
      9          1           0        0.752219    2.656213    0.259345
     10          9           0       -3.477618    0.942429   -0.246830
     11          9           0       -2.566516   -0.452228    1.149023
     12          9           0       -2.328317   -0.738989   -1.000839
     13          9           0       -0.655187   -1.959750    0.595814
     14          9           0        1.480363   -1.717040    0.262275
     15          9           0        0.084647   -1.398873   -1.377926
 ---------------------------------------------------------------------
                    Distance matrix (angstroms):
                    1          2          3          4          5
     1  C    0.000000
     2  C    1.344016   0.000000
     3  C    2.454200   1.494001   0.000000
     4  O    1.370806   2.424932   2.905697   0.000000
     5  O    2.775517   2.346963   1.239028   2.630129   0.000000
     6  H    1.086389   2.145814   3.472643   2.016943   3.854208
     7  C    2.492554   1.484687   2.538031   3.787896   3.627104
     8  C    3.792805   2.606360   1.530845   4.362358   2.436214
     9  H    1.935906   2.509796   2.443844   0.983949   1.823861
    10  F    2.752824   2.366386   3.725242   4.117861   4.681672
    11  F    3.418591   2.345262   2.932864   4.598896   3.929116
    12  F    3.413779   2.352553   2.986335   4.623658   4.206904
    13  F    4.392539   3.063033   2.403890   5.207468   3.391506
    14  F    4.832546   3.781114   2.410047   5.113183   2.739175
    15  F    4.104568   3.034739   2.393090   4.734661   3.342987
                    6          7          8          9         10
     6  H    0.000000
     7  C    2.785518   0.000000
     8  C    4.712070   2.974987   0.000000
     9  H    2.836600   3.983186   3.892209   0.000000
    10  F    2.485838   1.357073   4.312876   4.591818   0.000000
    11  F    3.766339   1.354023   3.160472   4.633350   2.173380
    12  F    3.730029   1.352750   2.799708   4.754488   2.171771
    13  F    5.165903   2.820953   1.358049   4.837471   4.135071
    14  F    5.837844   4.305906   1.359751   4.433457   5.649207
    15  F    4.896168   3.222885   1.359730   4.423802   4.410307
                   11         12         13         14         15
    11  F    0.000000
    12  F    2.181943   0.000000
    13  F    2.496366   2.615133   0.000000
    14  F    4.331662   4.130143   2.175024   0.000000
    15  F    3.782892   2.529829   2.181189   2.177042   0.000000
 Stoichiometry    C5H2F6O2
 Framework group  C1[X(C5H2F6O2)]
 Deg. of freedom    39
 Full point group                 C1      NOp   1
 Largest Abelian subgroup         C1      NOp   1
 Largest concise Abelian subgroup C1      NOp   1
                         Standard orientation:                         
 ---------------------------------------------------------------------
 Center     Atomic      Atomic             Coordinates (Angstroms)
 Number     Number       Type             X           Y           Z
 ---------------------------------------------------------------------
      1          6           0        1.913889    1.257944    0.231198
      2          6           0        0.911622    0.393186   -0.001249
      3          6           0       -0.468584    0.910737   -0.244585
      4          8           0        1.823684    2.625601    0.253237
      5          8           0       -0.592065    2.080886   -0.632777
      6          1           0        2.938730    0.953652    0.424457
      7          6           0        1.098004   -1.078258   -0.067661
      8          6           0       -1.665626    0.013192    0.079436
      9          1           0        0.938510    2.901725   -0.075971
     10          9           0        2.391234   -1.450362    0.107669
     11          9           0        0.714174   -1.569616   -1.269584
     12          9           0        0.380150   -1.721813    0.881262
     13          9           0       -1.663124   -1.137040   -0.642546
     14          9           0       -2.859286    0.616105   -0.166723
     15          9           0       -1.681595   -0.347061    1.390476
 ---------------------------------------------------------------------
 Rotational constants (GHZ):           0.9919700           0.7707323           0.5233896
 Standard basis: 6-31G(d,p) (6D, 7F)
 There are   205 symmetry adapted cartesian basis functions of A   symmetry.
 There are   205 symmetry adapted basis functions of A   symmetry.
   205 basis functions,   378 primitive gaussians,   205 cartesian basis functions
    51 alpha electrons       51 beta electrons
       nuclear repulsion energy       940.9159904257 Hartrees.
 NAtoms=   15 NActive=   15 NUniq=   15 SFac= 1.00D+00 NAtFMM=   60 NAOKFM=F Big=F
 Integral buffers will be    131072 words long.
 Raffenetti 1 integral format.
 Two-electron integral symmetry is turned on.
 One-electron integrals computed using PRISM.
 NBasis=   205 RedAO= T EigKep=  1.04D-03  NBF=   205
 NBsUse=   205 1.00D-06 EigRej= -1.00D+00 NBFU=   205
 ExpMin= 1.61D-01 ExpMax= 7.00D+03 ExpMxC= 1.05D+03 IAcc=3 IRadAn=         5 AccDes= 0.00D+00
 Harris functional with IExCor=  205 and IRadAn=       5 diagonalized for initial guess.
 HarFok:  IExCor=  205 AccDes= 0.00D+00 IRadAn=         5 IDoV= 1 UseB2=F ITyADJ=14
 ICtDFT=  3500011 ScaDFX=  1.000000  1.000000  1.000000  1.000000
 FoFCou: FMM=F IPFlag=           0 FMFlag=      100000 FMFlg1=           0
         NFxFlg=           0 DoJE=T BraDBF=F KetDBF=T FulRan=T
         wScrn=  0.000000 ICntrl=       500 IOpCl=  0 I1Cent=   200000004 NGrid=           0
         NMat0=    1 NMatS0=      1 NMatT0=    0 NMatD0=    1 NMtDS0=    0 NMtDT0=    0
 Petite list used in FoFCou.
 Requested convergence on RMS density matrix=1.00D-08 within 128 cycles.
 Requested convergence on MAX density matrix=1.00D-06.
 Requested convergence on             energy=1.00D-06.
 No special actions if energy rises.
 Integral accuracy reduced to 1.0D-05 until final iterations.
 Initial convergence to 1.0D-05 achieved.  Increase integral accuracy.
 SCF Done:  E(RHF) =  -936.839237018     A.U. after   15 cycles
            NFock= 15  Conv=0.93D-08     -V/T= 2.0030
 ExpMin= 1.61D-01 ExpMax= 7.00D+03 ExpMxC= 1.05D+03 IAcc=3 IRadAn=         5 AccDes= 0.00D+00
 HarFok:  IExCor=  205 AccDes= 0.00D+00 IRadAn=         5 IDoV=-2 UseB2=F ITyADJ=14
 ICtDFT= 12500011 ScaDFX=  1.000000  1.000000  1.000000  1.000000
 Range of M.O.s used for correlation:    14   205
 NBasis=   205 NAE=    51 NBE=    51 NFC=    13 NFV=     0
 NROrb=    192 NOA=    38 NOB=    38 NVA=   154 NVB=   154

 **** Warning!!: The largest alpha MO coefficient is  0.10444762D+02

 Disk-based method using ON**2 memory for 38 occupieds at a time.
 Permanent disk used for amplitudes=    76706091 words.
 Estimated scratch disk usage=   596830091 words.
 Actual    scratch disk usage=   559605643 words.
 JobTyp=1 Pass  1:  I=  14 to  51 NPSUse= 28 ParTrn=T ParDer=T DoDerP=T.
 (rs|ai) integrals will be sorted in core.
 Spin components of T(2) and E(2):
     alpha-alpha T2 =       0.7579234851D-01 E2=     -0.2834563313D+00
     alpha-beta  T2 =       0.3878006803D+00 E2=     -0.1459793397D+01
     beta-beta   T2 =       0.7579234851D-01 E2=     -0.2834563313D+00
 ANorm=    0.1240719701D+01
 E2 =    -0.2026706060D+01 EUMP2 =    -0.93886594307751D+03
 G2DrvN: will do    16 centers at a time, making    1 passes.
 Calling FoFCou, ICntrl=  3107 FMM=F I1Cent=   0 AccDes= 0.00D+00.
 End of G2Drv F.D. properties file   721 does not exist.
 End of G2Drv F.D. properties file   722 does not exist.
 End of G2Drv F.D. properties file   788 does not exist.
          IDoAtm=111111111111111
          Differentiating once with respect to electric field.
                with respect to dipole field.
          Differentiating once with respect to nuclear coordinates.
 Keep R1 ints in memory in canonical form, NReq=229009410.
          There are    48 degrees of freedom in the 1st order CPHF.  IDoFFX=6 NUNeed=    48.
     45 vectors produced by pass  0 Test12= 1.64D-14 2.08D-09 XBig12= 1.53D+01 2.36D+00.
 AX will form    45 AO Fock derivatives at one time.
     45 vectors produced by pass  1 Test12= 1.64D-14 2.08D-09 XBig12= 1.10D+00 1.65D-01.
     45 vectors produced by pass  2 Test12= 1.64D-14 2.08D-09 XBig12= 5.74D-02 5.59D-02.
     45 vectors produced by pass  3 Test12= 1.64D-14 2.08D-09 XBig12= 1.25D-03 6.07D-03.
     45 vectors produced by pass  4 Test12= 1.64D-14 2.08D-09 XBig12= 1.45D-05 5.12D-04.
     45 vectors produced by pass  5 Test12= 1.64D-14 2.08D-09 XBig12= 1.10D-07 4.89D-05.
     45 vectors produced by pass  6 Test12= 1.64D-14 2.08D-09 XBig12= 6.41D-10 2.52D-06.
     19 vectors produced by pass  7 Test12= 1.64D-14 2.08D-09 XBig12= 3.15D-12 1.31D-07.
      3 vectors produced by pass  8 Test12= 1.64D-14 2.08D-09 XBig12= 1.59D-14 1.58D-08.
 InvSVY:  IOpt=1 It=  1 EMax= 2.22D-15
 Solved reduced A of dimension   337 with    48 vectors.
 End of Minotr F.D. properties file   721 does not exist.
 End of Minotr F.D. properties file   722 does not exist.
 End of Minotr F.D. properties file   788 does not exist.
 MDV=  5502926848.
 Form MO integral derivatives with frozen-active canonical formalism.
 Discarding MO integrals.
 Reordered first order wavefunction length =    123370632
 In DefCFB: NBatch=  1 ICI= 51 ICA=154 LFMax= 52
            Large arrays: LIAPS=  1320257400 LIARS=   169057350 words.
 Semi-Direct transformation.
 ModeAB=           4 MOrb=            51 LenV=    5501886445
 LASXX=    180061365 LTotXX=   180061365 LenRXX=   363482661
 LTotAB=   183421296 MaxLAS=   204447525 LenRXY=           0
 NonZer=   543544026 LenScr=   815792128 LnRSAI=   204447525
 LnScr1=   306708480 LExtra=           0 Total=   1690430794
 MaxDsk=          -1 SrtSym=           T ITran=            4
 JobTyp=0 Pass  1:  I=   1 to  51.
 (rs|ai) integrals will be sorted in core.
 SymMOI:  orbitals are not symmetric.
 Spin components of T(2) and E(2):
     alpha-alpha T2 =       0.7579234851D-01 E2=     -0.2834563313D+00
     alpha-beta  T2 =       0.3878006803D+00 E2=     -0.1459793397D+01
     beta-beta   T2 =       0.7579234851D-01 E2=     -0.2834563313D+00
 ANorm=    0.1754642629D+01
 E2 =    -0.2026706060D+01 EUMP2 =    -0.93886594307751D+03
          IDoAtm=111111111111111
          Differentiating once with respect to electric field.
                with respect to dipole field.
          Differentiating once with respect to nuclear coordinates.
          There are     1 degrees of freedom in the 1st order CPHF.  IDoFFX=0 NUNeed=     1.
 LinEq1:  Iter=  0 NonCon=     1 RMS=4.89D-03 Max=1.59D-01 NDo=     1
 LinEq1:  Iter=  1 NonCon=     1 RMS=1.97D-03 Max=5.38D-02 NDo=     1
 LinEq1:  Iter=  2 NonCon=     1 RMS=6.07D-04 Max=2.73D-02 NDo=     1
 LinEq1:  Iter=  3 NonCon=     1 RMS=2.79D-04 Max=9.43D-03 NDo=     1
 LinEq1:  Iter=  4 NonCon=     1 RMS=8.69D-05 Max=2.84D-03 NDo=     1
 LinEq1:  Iter=  5 NonCon=     1 RMS=2.83D-05 Max=3.59D-04 NDo=     1
 LinEq1:  Iter=  6 NonCon=     1 RMS=1.20D-05 Max=6.70D-04 NDo=     1
 LinEq1:  Iter=  7 NonCon=     1 RMS=4.07D-06 Max=1.08D-04 NDo=     1
 LinEq1:  Iter=  8 NonCon=     1 RMS=1.32D-06 Max=3.61D-05 NDo=     1
 LinEq1:  Iter=  9 NonCon=     1 RMS=4.45D-07 Max=1.41D-05 NDo=     1
 LinEq1:  Iter= 10 NonCon=     1 RMS=1.81D-07 Max=7.41D-06 NDo=     1
 LinEq1:  Iter= 11 NonCon=     1 RMS=5.66D-08 Max=2.21D-06 NDo=     1
 LinEq1:  Iter= 12 NonCon=     1 RMS=2.02D-08 Max=5.46D-07 NDo=     1
 LinEq1:  Iter= 13 NonCon=     1 RMS=5.88D-09 Max=1.16D-07 NDo=     1
 LinEq1:  Iter= 14 NonCon=     1 RMS=1.53D-09 Max=3.28D-08 NDo=     1
 LinEq1:  Iter= 15 NonCon=     1 RMS=6.27D-10 Max=1.24D-08 NDo=     1
 LinEq1:  Iter= 16 NonCon=     1 RMS=1.53D-10 Max=3.54D-09 NDo=     1
 LinEq1:  Iter= 17 NonCon=     0 RMS=3.45D-11 Max=3.90D-10 NDo=     1
 Linear equations converged to 1.000D-10 1.000D-09 after    17 iterations.
 End of Minotr F.D. properties file   721 does not exist.
 End of Minotr F.D. properties file   722 does not exist.
 End of Minotr F.D. properties file   788 does not exist.
 Symmetrizing basis deriv contribution to polar:
 IMax=3 JMax=2 DiffMx= 0.00D+00
 G2DrvN: will do    16 centers at a time, making    1 passes.
 Calling FoFCou, ICntrl=  3107 FMM=F I1Cent=   0 AccDes= 0.00D+00.
 End of G2Drv F.D. properties file   721 does not exist.
 End of G2Drv F.D. properties file   722 does not exist.
 End of G2Drv F.D. properties file   788 does not exist.
 R2 and R3 integrals will be kept in memory, NReq=   450235145.
 DD1Dir will call FoFMem   1 times, MxPair=      2652
 NAB=  1326 NAA=     0 NBB=     0.
 Discarding MO integrals.

 **********************************************************************

            Population analysis using the SCF density.

 **********************************************************************

 Orbital symmetries:
       Occupied  (A) (A) (A) (A) (A) (A) (A) (A) (A) (A) (A) (A)
                 (A) (A) (A) (A) (A) (A) (A) (A) (A) (A) (A) (A)
                 (A) (A) (A) (A) (A) (A) (A) (A) (A) (A) (A) (A)
                 (A) (A) (A) (A) (A) (A) (A) (A) (A) (A) (A) (A)
                 (A) (A) (A)
       Virtual   (A) (A) (A) (A) (A) (A) (A) (A) (A) (A) (A) (A)
                 (A) (A) (A) (A) (A) (A) (A) (A) (A) (A) (A) (A)
                 (A) (A) (A) (A) (A) (A) (A) (A) (A) (A) (A) (A)
                 (A) (A) (A) (A) (A) (A) (A) (A) (A) (A) (A) (A)
                 (A) (A) (A) (A) (A) (A) (A) (A) (A) (A) (A) (A)
                 (A) (A) (A) (A) (A) (A) (A) (A) (A) (A) (A) (A)
                 (A) (A) (A) (A) (A) (A) (A) (A) (A) (A) (A) (A)
                 (A) (A) (A) (A) (A) (A) (A) (A) (A) (A) (A) (A)
                 (A) (A) (A) (A) (A) (A) (A) (A) (A) (A) (A) (A)
                 (A) (A) (A) (A) (A) (A) (A) (A) (A) (A) (A) (A)
                 (A) (A) (A) (A) (A) (A) (A) (A) (A) (A) (A) (A)
                 (A) (A) (A) (A) (A) (A) (A) (A) (A) (A) (A) (A)
                 (A) (A) (A) (A) (A) (A) (A) (A) (A) (A)
 The electronic state is 1-A.
 Alpha  occ. eigenvalues --  -26.36590 -26.36567 -26.36064 -26.35975 -26.35294
 Alpha  occ. eigenvalues --  -26.35196 -20.64615 -20.63524 -11.55198 -11.53920
 Alpha  occ. eigenvalues --  -11.42491 -11.39246 -11.29818  -1.74139  -1.73270
 Alpha  occ. eigenvalues --   -1.64865  -1.64442  -1.63932  -1.63833  -1.46155
 Alpha  occ. eigenvalues --   -1.43301  -1.15542  -1.04863  -0.98562  -0.93018
 Alpha  occ. eigenvalues --   -0.88072  -0.84349  -0.83856  -0.83397  -0.82520
 Alpha  occ. eigenvalues --   -0.82094  -0.78566  -0.73122  -0.72994  -0.71399
 Alpha  occ. eigenvalues --   -0.71207  -0.70222  -0.68671  -0.67891  -0.67683
 Alpha  occ. eigenvalues --   -0.66794  -0.65857  -0.65690  -0.65168  -0.65097
 Alpha  occ. eigenvalues --   -0.64071  -0.62433  -0.58720  -0.57779  -0.49489
 Alpha  occ. eigenvalues --   -0.41892
 Alpha virt. eigenvalues --    0.03862   0.15521   0.22896   0.25090   0.27826
 Alpha virt. eigenvalues --    0.32454   0.36461   0.37624   0.41529   0.42430
 Alpha virt. eigenvalues --    0.43485   0.43823   0.47805   0.53057   0.54190
 Alpha virt. eigenvalues --    0.58968   0.65292   0.66308   0.69146   0.71428
 Alpha virt. eigenvalues --    0.71656   0.72427   0.76053   0.77437   0.79882
 Alpha virt. eigenvalues --    0.82829   0.84952   0.88013   0.91482   0.94833
 Alpha virt. eigenvalues --    0.96681   1.01972   1.03907   1.09695   1.12616
 Alpha virt. eigenvalues --    1.15994   1.17340   1.18274   1.21323   1.25653
 Alpha virt. eigenvalues --    1.27140   1.28813   1.31244   1.33091   1.37755
 Alpha virt. eigenvalues --    1.38202   1.38997   1.40846   1.41828   1.44013
 Alpha virt. eigenvalues --    1.48270   1.51101   1.54671   1.56381   1.58592
 Alpha virt. eigenvalues --    1.59106   1.60944   1.62106   1.62617   1.63613
 Alpha virt. eigenvalues --    1.64151   1.65453   1.67198   1.68392   1.71136
 Alpha virt. eigenvalues --    1.74982   1.79822   1.80655   1.81081   1.84729
 Alpha virt. eigenvalues --    1.85474   1.87925   1.90568   1.92494   1.93881
 Alpha virt. eigenvalues --    1.94954   1.98423   2.01132   2.01879   2.02375
 Alpha virt. eigenvalues --    2.04628   2.07451   2.09378   2.09709   2.10797
 Alpha virt. eigenvalues --    2.12669   2.13432   2.15824   2.17159   2.20471
 Alpha virt. eigenvalues --    2.21214   2.23176   2.25930   2.26816   2.28665
 Alpha virt. eigenvalues --    2.30450   2.31672   2.32728   2.34661   2.36247
 Alpha virt. eigenvalues --    2.36595   2.37634   2.38053   2.41382   2.45135
 Alpha virt. eigenvalues --    2.46491   2.49925   2.52585   2.55824   2.65299
 Alpha virt. eigenvalues --    2.66323   2.66660   2.68870   2.71726   2.72703
 Alpha virt. eigenvalues --    2.76599   2.78817   2.82892   2.87734   2.89212
 Alpha virt. eigenvalues --    2.94507   2.97731   2.99221   3.05181   3.08118
 Alpha virt. eigenvalues --    3.11045   3.15735   3.17917   3.19606   3.27336
 Alpha virt. eigenvalues --    3.30218   3.36277   3.36597   3.37649   3.38713
 Alpha virt. eigenvalues --    3.42077   3.47882   3.50687   3.60074   3.77468
 Alpha virt. eigenvalues --    3.89915   4.30130   4.41111   4.48911   4.63505
 Alpha virt. eigenvalues --    4.67494   4.71388   4.81779   4.85873   5.04310
 Alpha virt. eigenvalues --    5.46305   5.61505   5.75159   6.26970
          Condensed to atoms (all electrons):
               1          2          3          4          5          6
     1  C    4.460741   0.530793  -0.032260   0.306828  -0.001039   0.415415
     2  C    0.530793   5.541094   0.312095  -0.044388  -0.077991  -0.054056
     3  C   -0.032260   0.312095   4.504398  -0.003627   0.496467   0.001248
     4  O    0.306828  -0.044388  -0.003627   8.113034  -0.020997  -0.030383
     5  O   -0.001039  -0.077991   0.496467  -0.020997   8.188552  -0.000027
     6  H    0.415415  -0.054056   0.001248  -0.030383  -0.000027   0.435107
     7  C   -0.017602   0.390084  -0.012601   0.001198   0.001065   0.001519
     8  C    0.001477  -0.071985   0.372000  -0.000068  -0.037760  -0.000029
     9  H   -0.026289  -0.003993  -0.001811   0.306331   0.025922   0.003008
    10  F    0.003672  -0.040911   0.001490   0.000036  -0.000003   0.004284
    11  F    0.000214  -0.052416   0.004964  -0.000002   0.000010   0.000048
    12  F    0.000892  -0.039605  -0.004845  -0.000002   0.000005   0.000080
    13  F    0.000064  -0.001191  -0.028539  -0.000000   0.000403   0.000000
    14  F   -0.000015   0.002312  -0.023648   0.000000  -0.000395   0.000000
    15  F   -0.000020   0.007019  -0.037477   0.000001   0.000150   0.000000
               7          8          9         10         11         12
     1  C   -0.017602   0.001477  -0.026289   0.003672   0.000214   0.000892
     2  C    0.390084  -0.071985  -0.003993  -0.040911  -0.052416  -0.039605
     3  C   -0.012601   0.372000  -0.001811   0.001490   0.004964  -0.004845
     4  O    0.001198  -0.000068   0.306331   0.000036  -0.000002  -0.000002
     5  O    0.001065  -0.037760   0.025922  -0.000003   0.000010   0.000005
     6  H    0.001519  -0.000029   0.003008   0.004284   0.000048   0.000080
     7  C    3.591126  -0.001387   0.000099   0.290628   0.276321   0.260184
     8  C   -0.001387   3.760852   0.000287  -0.000027  -0.001899   0.009772
     9  H    0.000099   0.000287   0.271151  -0.000000  -0.000000  -0.000000
    10  F    0.290628  -0.000027  -0.000000   9.189536  -0.032397  -0.031565
    11  F    0.276321  -0.001899  -0.000000  -0.032397   9.213556  -0.031061
    12  F    0.260184   0.009772  -0.000000  -0.031565  -0.031061   9.215928
    13  F    0.008381   0.259050  -0.000002  -0.000000  -0.002425  -0.002186
    14  F   -0.000017   0.286848  -0.000002  -0.000000  -0.000000   0.000000
    15  F   -0.002136   0.269581  -0.000011   0.000000   0.000003  -0.001814
              13         14         15
     1  C    0.000064  -0.000015  -0.000020
     2  C   -0.001191   0.002312   0.007019
     3  C   -0.028539  -0.023648  -0.037477
     4  O   -0.000000   0.000000   0.000001
     5  O    0.000403  -0.000395   0.000150
     6  H    0.000000   0.000000   0.000000
     7  C    0.008381  -0.000017  -0.002136
     8  C    0.259050   0.286848   0.269581
     9  H   -0.000002  -0.000002  -0.000011
    10  F   -0.000000  -0.000000   0.000000
    11  F   -0.002425  -0.000000   0.000003
    12  F   -0.002186   0.000000  -0.001814
    13  F    9.192716  -0.031553  -0.030048
    14  F   -0.031553   9.161016  -0.031926
    15  F   -0.030048  -0.031926   9.189555
 Mulliken charges:
               1
     1  C    0.357128
     2  C   -0.396860
     3  C    0.452145
     4  O   -0.627961
     5  O   -0.574361
     6  H    0.223784
     7  C    1.213140
     8  C    1.153288
     9  H    0.425311
    10  F   -0.384743
    11  F   -0.374916
    12  F   -0.375784
    13  F   -0.364671
    14  F   -0.362622
    15  F   -0.362877
 Sum of Mulliken charges =  -0.00000
 Mulliken charges with hydrogens summed into heavy atoms:
               1
     1  C    0.580912
     2  C   -0.396860
     3  C    0.452145
     4  O   -0.202651
     5  O   -0.574361
     7  C    1.213140
     8  C    1.153288
    10  F   -0.384743
    11  F   -0.374916
    12  F   -0.375784
    13  F   -0.364671
    14  F   -0.362622
    15  F   -0.362877
 APT charges:
               1
     1  C    0.642647
     2  C   -0.646480
     3  C    0.623427
     4  O   -0.658246
     5  O   -0.481003
     6  H    0.087219
     7  C    1.664653
     8  C    1.511665
     9  H    0.350026
    10  F   -0.511075
    11  F   -0.533079
    12  F   -0.534521
    13  F   -0.498532
    14  F   -0.510782
    15  F   -0.505919
 Sum of APT charges =  -0.00000
 APT charges with hydrogens summed into heavy atoms:
               1
     1  C    0.729866
     2  C   -0.646480
     3  C    0.623427
     4  O   -0.308220
     5  O   -0.481003
     7  C    1.664653
     8  C    1.511665
    10  F   -0.511075
    11  F   -0.533079
    12  F   -0.534521
    13  F   -0.498532
    14  F   -0.510782
    15  F   -0.505919
 Electronic spatial extent (au):  <R**2>=           2035.7917
 Charge=              0.0000 electrons
 Dipole moment (field-independent basis, Debye):
    X=              1.9706    Y=              1.0965    Z=              0.3527  Tot=              2.2825
 Quadrupole moment (field-independent basis, Debye-Ang):
   XX=            -69.4839   YY=            -74.8748   ZZ=            -70.2525
   XY=              1.6035   XZ=              0.2233   YZ=              0.7675
 Traceless Quadrupole moment (field-independent basis, Debye-Ang):
   XX=              2.0532   YY=             -3.3377   ZZ=              1.2845
   XY=              1.6035   XZ=              0.2233   YZ=              0.7675
 Octapole moment (field-independent basis, Debye-Ang**2):
  XXX=              2.9125  YYY=            -28.8267  ZZZ=              0.3093  XYY=            -12.1829
  XXY=            -11.4162  XXZ=              2.7720  XZZ=             -4.4520  YZZ=             -6.8016
  YYZ=              1.5412  XYZ=             -3.3341
 Hexadecapole moment (field-independent basis, Debye-Ang**3):
 XXXX=          -1047.0429 YYYY=           -833.6119 ZZZZ=           -205.2104 XXXY=             -4.1489
 XXXZ=              0.0761 YYYX=            -39.0841 YYYZ=             -2.5576 ZZZX=             -1.3618
 ZZZY=              0.2058 XXYY=           -356.9983 XXZZ=           -211.2649 YYZZ=           -179.9972
 XXYZ=              0.6250 YYXZ=            -14.0914 ZZXY=             -6.4108
 N-N= 9.409159904257D+02 E-N=-4.105972995644D+03  KE= 9.340516661613D+02
  Exact polarizability:  69.372   5.316  66.829   5.333  -0.677  39.334
 Approx polarizability:  54.661   2.652  57.952   4.268  -1.299  40.261
 Calling FoFJK, ICntrl=  10100127 FMM=F ISym2X=0 I1Cent= 0 IOpClX= 0 NMat=1 NMatS=1 NMatT=0.
 ***** Axes restored to original set *****
 -------------------------------------------------------------------
 Center     Atomic                   Forces (Hartrees/Bohr)
 Number     Number              X              Y              Z
 -------------------------------------------------------------------
      1        6           0.022335334    0.037997093    0.002720320
      2        6           0.016604453   -0.034156955    0.004977698
      3        6          -0.015701298    0.033279340    0.000516354
      4        8          -0.021458528   -0.017349746    0.000603414
      5        8           0.008534939   -0.020679386   -0.006047136
      6        1           0.001025148   -0.006297959   -0.001439352
      7        6          -0.017730716    0.003248973   -0.003946202
      8        6           0.013489466   -0.040926270   -0.004805656
      9        1          -0.009271597   -0.001518989   -0.002358008
     10        9           0.003921733    0.003615979   -0.000041920
     11        9          -0.001250403    0.003758787   -0.000546700
     12        9          -0.003770485    0.001605099    0.001017992
     13        9           0.008896912    0.009778275   -0.000565715
     14        9          -0.009975586    0.016040392    0.000616137
     15        9           0.004350628    0.011605367    0.009298775
 -------------------------------------------------------------------
 Cartesian Forces:  Max     0.040926270 RMS     0.014346671
 FormGI is forming the generalized inverse of G from B-inverse, IUseBI=4.

 GradGradGradGradGradGradGradGradGradGradGradGradGradGradGradGradGradGrad
 Berny optimization.
 Internal  Forces:  Max     0.044826670 RMS     0.012778585
 Search for a local minimum.
 Step number   1 out of a maximum of   68
 All quantities printed in internal units (Hartrees-Bohrs-Radians)
 Mixed Optimization -- RFO/linear search
 Second derivative matrix not updated -- analytic derivatives used.
 ITU=  0
     Eigenvalues ---   -0.00062   0.00856   0.01715   0.02033   0.03367
     Eigenvalues ---    0.04289   0.05121   0.05442   0.10607   0.11583
     Eigenvalues ---    0.12804   0.13698   0.14391   0.16016   0.17939
     Eigenvalues ---    0.19335   0.21167   0.21672   0.22498   0.24088
     Eigenvalues ---    0.25375   0.27787   0.28407   0.29718   0.34123
     Eigenvalues ---    0.35381   0.35966   0.36759   0.38091   0.38521
     Eigenvalues ---    0.38684   0.43116   0.47995   0.51304   0.52424
     Eigenvalues ---    0.53152   0.72196   0.76434   1.20760
 RFO step:  Lambda=-2.34094823D-02 EMin=-6.15235579D-04
 Linear search not attempted -- first point.
 Maximum step size (   0.300) exceeded in Quadratic search.
    -- Step size scaled by   0.858
 Iteration  1 RMS(Cart)=  0.15487682 RMS(Int)=  0.02713817
 Iteration  2 RMS(Cart)=  0.06429236 RMS(Int)=  0.00184242
 Iteration  3 RMS(Cart)=  0.00238925 RMS(Int)=  0.00086747
 Iteration  4 RMS(Cart)=  0.00000230 RMS(Int)=  0.00086746
 Iteration  5 RMS(Cart)=  0.00000000 RMS(Int)=  0.00086746
 Variable       Old X    -DE/DX   Delta X   Delta X   Delta X     New X
                                 (Linear)    (Quad)   (Total)
    R1        2.53982   0.01266   0.00000   0.04427   0.04427   2.58409
    R2        2.59045  -0.03595   0.00000  -0.10267  -0.10267   2.48778
    R3        2.05298  -0.00393   0.00000  -0.00795  -0.00795   2.04503
    R4        2.82325   0.00358   0.00000  -0.07644  -0.07644   2.74681
    R5        2.80565   0.00911   0.00000   0.01945   0.01945   2.82511
    R6        2.34142  -0.00671   0.00000   0.01172   0.01172   2.35314
    R7        2.89288   0.00360   0.00000   0.00762   0.00762   2.90050
    R8        1.85939  -0.00728   0.00000   0.01184   0.01184   1.87123
    R9        2.56450  -0.00121   0.00000   0.00180   0.00180   2.56629
   R10        2.55873  -0.00209   0.00000  -0.00710  -0.00710   2.55163
   R11        2.55633  -0.00195   0.00000  -0.00393  -0.00393   2.55240
   R12        2.56634  -0.01181   0.00000  -0.02006  -0.02006   2.54628
   R13        2.56956  -0.01496   0.00000  -0.03834  -0.03834   2.53121
   R14        2.56952  -0.01144   0.00000  -0.02089  -0.02089   2.54863
    A1        2.20886   0.00081   0.00000  -0.01531  -0.01531   2.19355
    A2        2.15799  -0.00514   0.00000  -0.03949  -0.03949   2.11850
    A3        1.91630   0.00432   0.00000   0.05479   0.05479   1.97108
    A4        2.08771  -0.01011   0.00000  -0.01712  -0.01768   2.07004
    A5        2.15531  -0.03474   0.00000  -0.10084  -0.10134   2.05397
    A6        2.03982   0.04483   0.00000   0.11948   0.11881   2.15863
    A7        2.06038   0.01127   0.00000   0.06342   0.06333   2.12371
    A8        2.07694   0.02860   0.00000   0.05464   0.05449   2.13143
    A9        2.14373  -0.04005   0.00000  -0.11615  -0.11633   2.02739
   A10        1.91113  -0.01187   0.00000  -0.05864  -0.05864   1.85249
   A11        1.96666  -0.01201   0.00000  -0.03547  -0.03540   1.93125
   A12        1.94311   0.00065   0.00000   0.02354   0.02354   1.96665
   A13        1.95357   0.00867   0.00000   0.00498   0.00486   1.95844
   A14        1.86014   0.00200   0.00000  -0.00036  -0.00019   1.85995
   A15        1.85941   0.00044   0.00000   0.01174   0.01169   1.87110
   A16        1.87508   0.00043   0.00000  -0.00402  -0.00418   1.87090
   A17        1.96343   0.00010   0.00000  -0.02208  -0.02241   1.94102
   A18        1.96942  -0.01852   0.00000  -0.04463  -0.04515   1.92427
   A19        1.94830  -0.01137   0.00000  -0.01956  -0.01991   1.92839
   A20        1.85555   0.00873   0.00000   0.03611   0.03562   1.89118
   A21        1.86316   0.01237   0.00000   0.02917   0.02902   1.89218
   A22        1.85638   0.01164   0.00000   0.02951   0.02898   1.88536
    D1       -0.01959  -0.00143   0.00000  -0.05243  -0.05018  -0.06977
    D2        3.09324  -0.00194   0.00000   0.01498   0.01275   3.10599
    D3        3.13185  -0.00173   0.00000  -0.05090  -0.04868   3.08318
    D4       -0.03850  -0.00224   0.00000   0.01651   0.01426  -0.02424
    D5       -0.16415   0.00003   0.00000   0.09614   0.09617  -0.06798
    D6        2.96873   0.00025   0.00000   0.09438   0.09435   3.06308
    D7        0.38331  -0.00213   0.00000  -0.25597  -0.25309   0.13023
    D8       -2.69009   0.00239   0.00000  -0.28176  -0.28099  -2.97108
    D9       -2.73139  -0.00042   0.00000  -0.31557  -0.31634  -3.04773
   D10        0.47839   0.00410   0.00000  -0.34136  -0.34424   0.13414
   D11       -0.01936   0.00007   0.00000   0.12628   0.12602   0.10666
   D12       -2.10821   0.00531   0.00000   0.13457   0.13452  -1.97368
   D13        2.07598  -0.00165   0.00000   0.11995   0.11973   2.19571
   D14        3.09421  -0.00123   0.00000   0.19001   0.19010  -2.99888
   D15        1.00536   0.00401   0.00000   0.19830   0.19861   1.20397
   D16       -1.09364  -0.00295   0.00000   0.18368   0.18381  -0.90983
   D17       -1.06145  -0.00446   0.00000   0.18295   0.18235  -0.87911
   D18        3.12231  -0.00248   0.00000   0.18431   0.18359  -2.97729
   D19        1.03271   0.00350   0.00000   0.19128   0.19039   1.22310
   D20        2.15176  -0.00199   0.00000   0.14805   0.14892   2.30068
   D21        0.05233  -0.00002   0.00000   0.14941   0.15017   0.20250
   D22       -2.03727   0.00596   0.00000   0.15638   0.15697  -1.88030
         Item               Value     Threshold  Converged?
 Maximum Force            0.044827     0.000450     NO 
 RMS     Force            0.012779     0.000300     NO 
 Maximum Displacement     0.850041     0.001800     NO 
 RMS     Displacement     0.198952     0.001200     NO 
 Predicted change in Energy=-1.708225D-02
 GradGradGradGradGradGradGradGradGradGradGradGradGradGradGradGradGradGrad

                          Input orientation:                          
 ---------------------------------------------------------------------
 Center     Atomic      Atomic             Coordinates (Angstroms)
 Number     Number       Type             X           Y           Z
 ---------------------------------------------------------------------
      1          6           0       -1.131654    2.329318   -0.042151
      2          6           0       -1.106503    0.963503    0.019613
      3          6           0        0.178564    0.296174    0.146418
      4          8           0       -0.087915    3.122718    0.077156
      5          8           0        1.230858    0.934257    0.336481
      6          1           0       -2.057449    2.869765   -0.190266
      7          6           0       -2.409363    0.239036   -0.092957
      8          6           0        0.326002   -1.224844    0.002845
      9          1           0        0.682718    2.535097    0.280499
     10          9           0       -3.415919    1.105047   -0.377728
     11          9           0       -2.755290   -0.390885    1.050176
     12          9           0       -2.393430   -0.691019   -1.072272
     13          9           0       -0.563039   -1.876169    0.778061
     14          9           0        1.558508   -1.607150    0.361907
     15          9           0        0.129414   -1.599388   -1.277778
 ---------------------------------------------------------------------
                    Distance matrix (angstroms):
                    1          2          3          4          5
     1  C    0.000000
     2  C    1.367442   0.000000
     3  C    2.426088   1.453549   0.000000
     4  O    1.316476   2.388104   2.839922   0.000000
     5  O    2.769661   2.358922   1.245229   2.568224   0.000000
     6  H    1.082182   2.140603   3.425855   2.003638   3.851833
     7  C    2.450388   1.494982   2.599602   3.705899   3.730812
     8  C    3.841724   2.615571   1.534876   4.367853   2.364697
     9  H    1.854291   2.395680   2.298897   0.990213   1.693010
    10  F    2.613297   2.347620   3.721467   3.918358   4.704445
    11  F    3.350951   2.369584   3.145843   4.517418   4.260838
    12  F    3.431569   2.363438   3.012459   4.602301   4.214447
    13  F    4.322290   2.989036   2.380761   5.070097   3.363265
    14  F    4.784978   3.718562   2.360789   5.016318   2.562567
    15  F    4.307179   3.127158   2.371477   4.917454   3.199744
                    6          7          8          9         10
     6  H    0.000000
     7  C    2.655946   0.000000
     8  C    4.741724   3.103923   0.000000
     9  H    2.800382   3.869410   3.787016   0.000000
    10  F    2.234908   1.358023   4.424387   4.390573   0.000000
    11  F    3.557740   1.350266   3.359576   4.579702   2.170979
    12  F    3.683749   1.350671   2.972566   4.658380   2.180305
    13  F    5.069005   2.939673   1.347434   4.610721   4.285140
    14  F    5.781247   4.399921   1.339461   4.234602   5.713843
    15  F    5.092973   3.350968   1.348675   4.452902   4.549004
                   11         12         13         14         15
    11  F    0.000000
    12  F    2.173892   0.000000
    13  F    2.661970   2.859833   0.000000
    14  F    4.534520   4.302787   2.178650   0.000000
    15  F    3.898892   2.689257   2.186909   2.175072   0.000000
 Stoichiometry    C5H2F6O2
 Framework group  C1[X(C5H2F6O2)]
 Deg. of freedom    39
 Full point group                 C1      NOp   1
 Largest Abelian subgroup         C1      NOp   1
 Largest concise Abelian subgroup C1      NOp   1
                         Standard orientation:                         
 ---------------------------------------------------------------------
 Center     Atomic      Atomic             Coordinates (Angstroms)
 Number     Number       Type             X           Y           Z
 ---------------------------------------------------------------------
      1          6           0        1.751226    1.446006    0.082499
      2          6           0        0.806385    0.463039   -0.022127
      3          6           0       -0.594137    0.847486   -0.081656
      4          8           0        1.517233    2.741353    0.061666
      5          8           0       -0.941593    2.039407   -0.177540
      6          1           0        2.802232    1.208906    0.183938
      7          6           0        1.277426   -0.955794   -0.023653
      8          6           0       -1.728086   -0.181737    0.021813
      9          1           0        0.546829    2.843100   -0.107106
     10          9           0        2.612138   -1.017625    0.219136
     11          9           0        1.072622   -1.571112   -1.207991
     12          9           0        0.664229   -1.698351    0.923401
     13          9           0       -1.537371   -1.204939   -0.833911
     14          9           0       -2.903675    0.393327   -0.263580
     15          9           0       -1.800284   -0.680420    1.272823
 ---------------------------------------------------------------------
 Rotational constants (GHZ):           1.0215019           0.7418780           0.5083847
 Standard basis: 6-31G(d,p) (6D, 7F)
 There are   205 symmetry adapted cartesian basis functions of A   symmetry.
 There are   205 symmetry adapted basis functions of A   symmetry.
   205 basis functions,   378 primitive gaussians,   205 cartesian basis functions
    51 alpha electrons       51 beta electrons
       nuclear repulsion energy       937.9163893054 Hartrees.
 NAtoms=   15 NActive=   15 NUniq=   15 SFac= 1.00D+00 NAtFMM=   60 NAOKFM=F Big=F
 Integral buffers will be    131072 words long.
 Raffenetti 1 integral format.
 Two-electron integral symmetry is turned on.
 One-electron integrals computed using PRISM.
 NBasis=   205 RedAO= T EigKep=  9.16D-04  NBF=   205
 NBsUse=   205 1.00D-06 EigRej= -1.00D+00 NBFU=   205
 Initial guess from the checkpoint file:  "7.chk"
 B after Tr=    -0.000000    0.000000   -0.000000
         Rot=    0.998026   -0.007147    0.008977   -0.061751 Ang=  -7.20 deg.
 ExpMin= 1.61D-01 ExpMax= 7.00D+03 ExpMxC= 1.05D+03 IAcc=2 IRadAn=         4 AccDes= 0.00D+00
 Harris functional with IExCor=  205 and IRadAn=       4 diagonalized for initial guess.
 HarFok:  IExCor=  205 AccDes= 0.00D+00 IRadAn=         4 IDoV= 1 UseB2=F ITyADJ=14
 ICtDFT=  3500011 ScaDFX=  1.000000  1.000000  1.000000  1.000000
 FoFCou: FMM=F IPFlag=           0 FMFlag=      100000 FMFlg1=           0
         NFxFlg=           0 DoJE=T BraDBF=F KetDBF=T FulRan=T
         wScrn=  0.000000 ICntrl=       500 IOpCl=  0 I1Cent=   200000004 NGrid=           0
         NMat0=    1 NMatS0=      1 NMatT0=    0 NMatD0=    1 NMtDS0=    0 NMtDT0=    0
 Petite list used in FoFCou.
 Requested convergence on RMS density matrix=1.00D-08 within 128 cycles.
 Requested convergence on MAX density matrix=1.00D-06.
 Requested convergence on             energy=1.00D-06.
 No special actions if energy rises.
 Integral accuracy reduced to 1.0D-05 until final iterations.
 Initial convergence to 1.0D-05 achieved.  Increase integral accuracy.
 SCF Done:  E(RHF) =  -936.857332821     A.U. after   16 cycles
            NFock= 16  Conv=0.51D-08     -V/T= 2.0028
 ExpMin= 1.61D-01 ExpMax= 7.00D+03 ExpMxC= 1.05D+03 IAcc=3 IRadAn=         5 AccDes= 0.00D+00
 HarFok:  IExCor=  205 AccDes= 0.00D+00 IRadAn=         5 IDoV=-2 UseB2=F ITyADJ=14
 ICtDFT= 12500011 ScaDFX=  1.000000  1.000000  1.000000  1.000000
 Range of M.O.s used for correlation:    14   205
 NBasis=   205 NAE=    51 NBE=    51 NFC=    13 NFV=     0
 NROrb=    192 NOA=    38 NOB=    38 NVA=   154 NVB=   154

 **** Warning!!: The largest alpha MO coefficient is  0.11424406D+02

 Fully direct method using O(ONN) memory.
 JobTyp=1 Pass  1:  I=  14 to  51 NPSUse= 28 ParTrn=T ParDer=T DoDerP=T.
 Spin components of T(2) and E(2):
     alpha-alpha T2 =       0.7558973613D-01 E2=     -0.2835595536D+00
     alpha-beta  T2 =       0.3840063087D+00 E2=     -0.1455480144D+01
     beta-beta   T2 =       0.7558973613D-01 E2=     -0.2835595536D+00
 ANorm=    0.1239026142D+01
 E2 =    -0.2022599251D+01 EUMP2 =    -0.93887993207234D+03
          IDoAtm=111111111111111
          Differentiating once with respect to electric field.
                with respect to dipole field.
          Differentiating once with respect to nuclear coordinates.
 Keep R1 ints in memory in canonical form, NReq=229020804.
          There are     1 degrees of freedom in the 1st order CPHF.  IDoFFX=0 NUNeed=     1.
 LinEq1:  Iter=  0 NonCon=     1 RMS=4.93D-03 Max=1.68D-01 NDo=     1
 AX will form     1 AO Fock derivatives at one time.
 LinEq1:  Iter=  1 NonCon=     1 RMS=1.95D-03 Max=6.25D-02 NDo=     1
 LinEq1:  Iter=  2 NonCon=     1 RMS=6.05D-04 Max=2.87D-02 NDo=     1
 LinEq1:  Iter=  3 NonCon=     1 RMS=2.74D-04 Max=9.78D-03 NDo=     1
 LinEq1:  Iter=  4 NonCon=     1 RMS=8.67D-05 Max=2.75D-03 NDo=     1
 LinEq1:  Iter=  5 NonCon=     1 RMS=2.85D-05 Max=4.46D-04 NDo=     1
 LinEq1:  Iter=  6 NonCon=     1 RMS=1.24D-05 Max=7.15D-04 NDo=     1
 LinEq1:  Iter=  7 NonCon=     1 RMS=4.06D-06 Max=9.32D-05 NDo=     1
 LinEq1:  Iter=  8 NonCon=     1 RMS=1.36D-06 Max=3.68D-05 NDo=     1
 LinEq1:  Iter=  9 NonCon=     1 RMS=4.25D-07 Max=9.92D-06 NDo=     1
 LinEq1:  Iter= 10 NonCon=     1 RMS=1.49D-07 Max=2.28D-06 NDo=     1
 LinEq1:  Iter= 11 NonCon=     1 RMS=4.19D-08 Max=9.99D-07 NDo=     1
 LinEq1:  Iter= 12 NonCon=     1 RMS=1.54D-08 Max=5.15D-07 NDo=     1
 LinEq1:  Iter= 13 NonCon=     1 RMS=4.55D-09 Max=1.92D-07 NDo=     1
 LinEq1:  Iter= 14 NonCon=     1 RMS=1.33D-09 Max=4.18D-08 NDo=     1
 LinEq1:  Iter= 15 NonCon=     1 RMS=5.80D-10 Max=1.26D-08 NDo=     1
 LinEq1:  Iter= 16 NonCon=     1 RMS=1.48D-10 Max=3.34D-09 NDo=     1
 LinEq1:  Iter= 17 NonCon=     0 RMS=3.73D-11 Max=4.23D-10 NDo=     1
 Linear equations converged to 1.000D-10 1.000D-09 after    17 iterations.
 End of Minotr F.D. properties file   721 does not exist.
 End of Minotr F.D. properties file   722 does not exist.
 End of Minotr F.D. properties file   788 does not exist.
 Symmetrizing basis deriv contribution to polar:
 IMax=3 JMax=2 DiffMx= 0.00D+00
 Calling FoFJK, ICntrl=  10002127 FMM=F ISym2X=0 I1Cent= 0 IOpClX= 0 NMat=1 NMatS=1 NMatT=0.
 ***** Axes restored to original set *****
 -------------------------------------------------------------------
 Center     Atomic                   Forces (Hartrees/Bohr)
 Number     Number              X              Y              Z
 -------------------------------------------------------------------
      1        6          -0.002305674    0.005235214    0.002247258
      2        6           0.000051409   -0.007181921   -0.002326297
      3        6           0.000394650    0.005786600    0.002378694
      4        8           0.001372590    0.000334245    0.002166677
      5        8          -0.000377579   -0.000198588   -0.000659818
      6        1           0.000708543   -0.001253172   -0.000861477
      7        6          -0.002968605    0.000260983   -0.000131998
      8        6           0.001608118   -0.006532383   -0.001449307
      9        1           0.002416867   -0.000406924   -0.002512891
     10        9          -0.000204395   -0.000971941   -0.000746310
     11        9           0.000592860    0.000519125    0.000692816
     12        9           0.000162597   -0.000053876    0.000081366
     13        9          -0.000003741    0.000983621   -0.000032578
     14        9          -0.001608370    0.001214818    0.000507098
     15        9           0.000160730    0.002264200    0.000646766
 -------------------------------------------------------------------
 Cartesian Forces:  Max     0.007181921 RMS     0.002242551

 GradGradGradGradGradGradGradGradGradGradGradGradGradGradGradGradGradGrad
 Berny optimization.
 Using GEDIIS/GDIIS optimizer.
 FormGI is forming the generalized inverse of G from B-inverse, IUseBI=4.
 Internal  Forces:  Max     0.005366295 RMS     0.001628409
 Search for a local minimum.
 Step number   2 out of a maximum of   68
 All quantities printed in internal units (Hartrees-Bohrs-Radians)
 Mixed Optimization -- RFO/linear search
 Update second derivatives using D2CorX and points    1    2
 DE= -1.40D-02 DEPred=-1.71D-02 R= 8.19D-01
 TightC=F SS=  1.41D+00  RLast= 8.93D-01 DXNew= 5.0454D-01 2.6800D+00
 Trust test= 8.19D-01 RLast= 8.93D-01 DXMaxT set to 5.05D-01
 ITU=  1  0
 Use linear search instead of GDIIS.
     Eigenvalues ---   -0.00106   0.00855   0.01709   0.02038   0.03376
     Eigenvalues ---    0.04294   0.05129   0.05778   0.10608   0.11561
     Eigenvalues ---    0.12803   0.13701   0.14386   0.16001   0.18026
     Eigenvalues ---    0.19120   0.20664   0.21374   0.22442   0.24060
     Eigenvalues ---    0.25141   0.27770   0.28559   0.29589   0.32485
     Eigenvalues ---    0.35376   0.35947   0.36768   0.38069   0.38510
     Eigenvalues ---    0.38555   0.43146   0.47963   0.51602   0.52929
     Eigenvalues ---    0.54401   0.71505   0.76461   1.17803
 RFO step:  Lambda=-1.30991524D-03 EMin=-1.06247848D-03
 Quartic linear search produced a step of  0.02311.
 Iteration  1 RMS(Cart)=  0.14058621 RMS(Int)=  0.03622964
 Iteration  2 RMS(Cart)=  0.07260272 RMS(Int)=  0.00200300
 Iteration  3 RMS(Cart)=  0.00447205 RMS(Int)=  0.00017244
 Iteration  4 RMS(Cart)=  0.00001004 RMS(Int)=  0.00017238
 Iteration  5 RMS(Cart)=  0.00000000 RMS(Int)=  0.00017238
 Variable       Old X    -DE/DX   Delta X   Delta X   Delta X     New X
                                 (Linear)    (Quad)   (Total)
    R1        2.58409   0.00382   0.00102   0.01105   0.01207   2.59616
    R2        2.48778   0.00293  -0.00237   0.01098   0.00861   2.49639
    R3        2.04503  -0.00111  -0.00018  -0.00016  -0.00035   2.04468
    R4        2.74681  -0.00134  -0.00177   0.00313   0.00136   2.74817
    R5        2.82511   0.00223   0.00045   0.00345   0.00390   2.82900
    R6        2.35314  -0.00052   0.00027   0.00974   0.01001   2.36315
    R7        2.90050   0.00210   0.00018   0.00624   0.00641   2.90691
    R8        1.87123   0.00161   0.00027   0.01497   0.01524   1.88647
    R9        2.56629  -0.00031   0.00004   0.00229   0.00233   2.56862
   R10        2.55163   0.00019  -0.00016  -0.00085  -0.00101   2.55062
   R11        2.55240  -0.00002  -0.00009  -0.00121  -0.00130   2.55110
   R12        2.54628  -0.00049  -0.00046   0.00259   0.00213   2.54841
   R13        2.53121  -0.00169  -0.00089   0.00800   0.00712   2.53833
   R14        2.54863  -0.00127  -0.00048   0.00498   0.00449   2.55312
    A1        2.19355  -0.00200  -0.00035   0.00760   0.00724   2.20079
    A2        2.11850   0.00022  -0.00091  -0.00044  -0.00137   2.11713
    A3        1.97108   0.00180   0.00127  -0.00709  -0.00583   1.96525
    A4        2.07004  -0.00537  -0.00041  -0.01262  -0.01326   2.05677
    A5        2.05397   0.00294  -0.00234  -0.00979  -0.01238   2.04159
    A6        2.15863   0.00245   0.00275   0.02119   0.02364   2.18228
    A7        2.12371   0.00032   0.00146  -0.01974  -0.01873   2.10498
    A8        2.13143  -0.00065   0.00126   0.03681   0.03761   2.16904
    A9        2.02739   0.00031  -0.00269  -0.01520  -0.01835   2.00904
   A10        1.85249   0.00194  -0.00136   0.00081  -0.00054   1.85195
   A11        1.93125   0.00195  -0.00082   0.00992   0.00905   1.94030
   A12        1.96665  -0.00191   0.00054   0.01625   0.01678   1.98343
   A13        1.95844  -0.00028   0.00011  -0.01997  -0.01982   1.93862
   A14        1.85995   0.00024  -0.00000  -0.01034  -0.01043   1.84952
   A15        1.87110  -0.00077   0.00027  -0.00596  -0.00570   1.86540
   A16        1.87090   0.00079  -0.00010   0.00950   0.00947   1.88037
   A17        1.94102  -0.00075  -0.00052   0.01049   0.00992   1.95094
   A18        1.92427  -0.00077  -0.00104   0.00137   0.00031   1.92458
   A19        1.92839  -0.00298  -0.00046   0.00922   0.00870   1.93709
   A20        1.89118   0.00079   0.00082  -0.01321  -0.01239   1.87878
   A21        1.89218   0.00191   0.00067  -0.00140  -0.00082   1.89136
   A22        1.88536   0.00200   0.00067  -0.00744  -0.00678   1.87858
    D1       -0.06977   0.00209  -0.00116   0.03579   0.03503  -0.03475
    D2        3.10599   0.00123   0.00029   0.07360   0.07350  -3.10370
    D3        3.08318   0.00102  -0.00112   0.02706   0.02633   3.10950
    D4       -0.02424   0.00016   0.00033   0.06487   0.06479   0.04055
    D5       -0.06798   0.00215   0.00222   0.15876   0.16099   0.09301
    D6        3.06308   0.00314   0.00218   0.16689   0.16906  -3.05104
    D7        0.13023  -0.00010  -0.00585  -0.25900  -0.26472  -0.13449
    D8       -2.97108   0.00035  -0.00649  -0.31650  -0.32282   2.98929
    D9       -3.04773   0.00082  -0.00731  -0.29994  -0.30743   2.92802
   D10        0.13414   0.00127  -0.00796  -0.35744  -0.36553  -0.23139
   D11        0.10666   0.00097   0.00291   0.19279   0.19560   0.30226
   D12       -1.97368   0.00058   0.00311   0.18829   0.19121  -1.78248
   D13        2.19571   0.00115   0.00277   0.17870   0.18136   2.37707
   D14       -2.99888   0.00022   0.00439   0.23344   0.23800  -2.76087
   D15        1.20397  -0.00017   0.00459   0.22895   0.23361   1.43758
   D16       -0.90983   0.00040   0.00425   0.21935   0.22377  -0.68606
   D17       -0.87911   0.00027   0.00421   0.24620   0.25039  -0.62871
   D18       -2.97729   0.00029   0.00424   0.25503   0.25929  -2.71800
   D19        1.22310   0.00018   0.00440   0.25756   0.26200   1.48510
   D20        2.30068   0.00070   0.00344   0.19187   0.19527   2.49595
   D21        0.20250   0.00071   0.00347   0.20070   0.20416   0.40666
   D22       -1.88030   0.00061   0.00363   0.20323   0.20687  -1.67343
         Item               Value     Threshold  Converged?
 Maximum Force            0.005366     0.000450     NO 
 RMS     Force            0.001628     0.000300     NO 
 Maximum Displacement     0.808081     0.001800     NO 
 RMS     Displacement     0.189200     0.001200     NO 
 Predicted change in Energy=-1.589509D-03
 GradGradGradGradGradGradGradGradGradGradGradGradGradGradGradGradGradGrad

                          Input orientation:                          
 ---------------------------------------------------------------------
 Center     Atomic      Atomic             Coordinates (Angstroms)
 Number     Number       Type             X           Y           Z
 ---------------------------------------------------------------------
      1          6           0       -1.144114    2.317044    0.135358
      2          6           0       -1.126826    0.948282    0.018730
      3          6           0        0.167376    0.286061   -0.018794
      4          8           0       -0.087862    3.101343    0.255079
      5          8           0        1.222311    0.953662   -0.091137
      6          1           0       -2.074601    2.869223    0.139060
      7          6           0       -2.447271    0.264941   -0.156228
      8          6           0        0.362799   -1.238304    0.047482
      9          1           0        0.709580    2.509318    0.154310
     10          9           0       -3.407685    1.144826   -0.544799
     11          9           0       -2.909780   -0.315752    0.971002
     12          9           0       -2.378455   -0.687081   -1.110888
     13          9           0       -0.536456   -1.823004    0.864845
     14          9           0        1.587877   -1.530550    0.514427
     15          9           0        0.248608   -1.794551   -1.178444
 ---------------------------------------------------------------------
                    Distance matrix (angstroms):
                    1          2          3          4          5
     1  C    0.000000
     2  C    1.373831   0.000000
     3  C    2.422531   1.454270   0.000000
     4  O    1.321032   2.402287   2.840064   0.000000
     5  O    2.740451   2.351710   1.250524   2.539479   0.000000
     6  H    1.081999   2.145407   3.424048   2.003615   3.819946
     7  C    2.448340   1.497044   2.618342   3.712299   3.734221
     8  C    3.862513   2.645934   1.538269   4.367921   2.358536
     9  H    1.863735   2.414043   2.294955   0.998279   1.656262
    10  F    2.638269   2.357650   3.714191   3.935605   4.656094
    11  F    3.278337   2.384015   3.287973   4.489132   4.451261
    12  F    3.478720   2.348835   2.936142   4.633017   4.086250
    13  F    4.247516   2.957105   2.392562   4.982193   3.423015
    14  F    4.734072   3.709438   2.366902   4.932524   2.582954
    15  F    4.535522   3.293657   2.383345   5.112532   3.111753
                    6          7          8          9         10
     6  H    0.000000
     7  C    2.647331   0.000000
     8  C    4.777142   3.193389   0.000000
     9  H    2.807388   3.885791   3.765148   0.000000
    10  F    2.284364   1.359257   4.499628   4.393457   0.000000
    11  F    3.396133   1.349729   3.523317   4.663451   2.163065
    12  F    3.781798   1.349984   3.026572   4.621001   2.176156
    13  F    4.990956   3.008873   1.348561   4.563603   4.363378
    14  F    5.736954   4.467212   1.343228   4.149894   5.765001
    15  F    5.374374   3.543190   1.351053   4.529019   4.733912
                   11         12         13         14         15
    11  F    0.000000
    12  F    2.180472   0.000000
    13  F    2.813493   2.930324   0.000000
    14  F    4.681144   4.368624   2.172812   0.000000
    15  F    4.096630   2.851756   2.189102   2.174661   0.000000
 Stoichiometry    C5H2F6O2
 Framework group  C1[X(C5H2F6O2)]
 Deg. of freedom    39
 Full point group                 C1      NOp   1
 Largest Abelian subgroup         C1      NOp   1
 Largest concise Abelian subgroup C1      NOp   1
                         Standard orientation:                         
 ---------------------------------------------------------------------
 Center     Atomic      Atomic             Coordinates (Angstroms)
 Number     Number       Type             X           Y           Z
 ---------------------------------------------------------------------
      1          6           0        1.688727    1.506233   -0.097069
      2          6           0        0.791921    0.467504   -0.032325
      3          6           0       -0.620997    0.795521    0.072404
      4          8           0        1.389718    2.792912   -0.110399
      5          8           0       -0.988931    1.978032    0.245908
      6          1           0        2.754558    1.326488   -0.146235
      7          6           0        1.359045   -0.916934    0.020997
      8          6           0       -1.759641   -0.232824   -0.038366
      9          1           0        0.402189    2.849202    0.024432
     10          9           0        2.671698   -0.896474    0.373280
     11          9           0        1.301142   -1.571364   -1.158044
     12          9           0        0.718028   -1.669013    0.940742
     13          9           0       -1.478585   -1.195415   -0.940054
     14          9           0       -2.895164    0.370257   -0.427135
     15          9           0       -1.996827   -0.822462    1.153865
 ---------------------------------------------------------------------
 Rotational constants (GHZ):           1.0224708           0.7155938           0.4970562
 Standard basis: 6-31G(d,p) (6D, 7F)
 There are   205 symmetry adapted cartesian basis functions of A   symmetry.
 There are   205 symmetry adapted basis functions of A   symmetry.
   205 basis functions,   378 primitive gaussians,   205 cartesian basis functions
    51 alpha electrons       51 beta electrons
       nuclear repulsion energy       931.3926469041 Hartrees.
 NAtoms=   15 NActive=   15 NUniq=   15 SFac= 1.00D+00 NAtFMM=   60 NAOKFM=F Big=F
 Integral buffers will be    131072 words long.
 Raffenetti 1 integral format.
 Two-electron integral symmetry is turned on.
 One-electron integrals computed using PRISM.
 NBasis=   205 RedAO= T EigKep=  9.69D-04  NBF=   205
 NBsUse=   205 1.00D-06 EigRej= -1.00D+00 NBFU=   205
 Initial guess from the checkpoint file:  "7.chk"
 B after Tr=    -0.000000   -0.000000    0.000000
         Rot=    0.999737   -0.004115    0.013255   -0.018233 Ang=  -2.63 deg.
 ExpMin= 1.61D-01 ExpMax= 7.00D+03 ExpMxC= 1.05D+03 IAcc=2 IRadAn=         4 AccDes= 0.00D+00
 Harris functional with IExCor=  205 and IRadAn=       4 diagonalized for initial guess.
 HarFok:  IExCor=  205 AccDes= 0.00D+00 IRadAn=         4 IDoV= 1 UseB2=F ITyADJ=14
 ICtDFT=  3500011 ScaDFX=  1.000000  1.000000  1.000000  1.000000
 FoFCou: FMM=F IPFlag=           0 FMFlag=      100000 FMFlg1=           0
         NFxFlg=           0 DoJE=T BraDBF=F KetDBF=T FulRan=T
         wScrn=  0.000000 ICntrl=       500 IOpCl=  0 I1Cent=   200000004 NGrid=           0
         NMat0=    1 NMatS0=      1 NMatT0=    0 NMatD0=    1 NMtDS0=    0 NMtDT0=    0
 Petite list used in FoFCou.
 Requested convergence on RMS density matrix=1.00D-08 within 128 cycles.
 Requested convergence on MAX density matrix=1.00D-06.
 Requested convergence on             energy=1.00D-06.
 No special actions if energy rises.
 Integral accuracy reduced to 1.0D-05 until final iterations.
 Initial convergence to 1.0D-05 achieved.  Increase integral accuracy.
 SCF Done:  E(RHF) =  -936.854295806     A.U. after   17 cycles
            NFock= 17  Conv=0.24D-08     -V/T= 2.0029
 ExpMin= 1.61D-01 ExpMax= 7.00D+03 ExpMxC= 1.05D+03 IAcc=3 IRadAn=         5 AccDes= 0.00D+00
 HarFok:  IExCor=  205 AccDes= 0.00D+00 IRadAn=         5 IDoV=-2 UseB2=F ITyADJ=14
 ICtDFT= 12500011 ScaDFX=  1.000000  1.000000  1.000000  1.000000
 Range of M.O.s used for correlation:    14   205
 NBasis=   205 NAE=    51 NBE=    51 NFC=    13 NFV=     0
 NROrb=    192 NOA=    38 NOB=    38 NVA=   154 NVB=   154

 **** Warning!!: The largest alpha MO coefficient is  0.12043795D+02

 Fully direct method using O(ONN) memory.
 JobTyp=1 Pass  1:  I=  14 to  51 NPSUse= 28 ParTrn=T ParDer=T DoDerP=T.
 Spin components of T(2) and E(2):
     alpha-alpha T2 =       0.7578249168D-01 E2=     -0.2836636155D+00
     alpha-beta  T2 =       0.3851225040D+00 E2=     -0.1456477760D+01
     beta-beta   T2 =       0.7578249168D-01 E2=     -0.2836636155D+00
 ANorm=    0.1239631997D+01
 E2 =    -0.2023804991D+01 EUMP2 =    -0.93887810079638D+03
          IDoAtm=111111111111111
          Differentiating once with respect to electric field.
                with respect to dipole field.
          Differentiating once with respect to nuclear coordinates.
 Keep R1 ints in memory in canonical form, NReq=229019475.
          There are     1 degrees of freedom in the 1st order CPHF.  IDoFFX=0 NUNeed=     1.
 LinEq1:  Iter=  0 NonCon=     1 RMS=4.97D-03 Max=1.76D-01 NDo=     1
 AX will form     1 AO Fock derivatives at one time.
 LinEq1:  Iter=  1 NonCon=     1 RMS=1.97D-03 Max=6.30D-02 NDo=     1
 LinEq1:  Iter=  2 NonCon=     1 RMS=6.19D-04 Max=2.97D-02 NDo=     1
 LinEq1:  Iter=  3 NonCon=     1 RMS=2.81D-04 Max=9.93D-03 NDo=     1
 LinEq1:  Iter=  4 NonCon=     1 RMS=9.02D-05 Max=2.73D-03 NDo=     1
 LinEq1:  Iter=  5 NonCon=     1 RMS=2.99D-05 Max=4.88D-04 NDo=     1
 LinEq1:  Iter=  6 NonCon=     1 RMS=1.32D-05 Max=7.57D-04 NDo=     1
 LinEq1:  Iter=  7 NonCon=     1 RMS=4.35D-06 Max=1.02D-04 NDo=     1
 LinEq1:  Iter=  8 NonCon=     1 RMS=1.46D-06 Max=3.70D-05 NDo=     1
 LinEq1:  Iter=  9 NonCon=     1 RMS=4.67D-07 Max=1.02D-05 NDo=     1
 LinEq1:  Iter= 10 NonCon=     1 RMS=1.67D-07 Max=4.77D-06 NDo=     1
 LinEq1:  Iter= 11 NonCon=     1 RMS=5.00D-08 Max=1.86D-06 NDo=     1
 LinEq1:  Iter= 12 NonCon=     1 RMS=1.92D-08 Max=7.18D-07 NDo=     1
 LinEq1:  Iter= 13 NonCon=     1 RMS=5.69D-09 Max=1.82D-07 NDo=     1
 LinEq1:  Iter= 14 NonCon=     1 RMS=1.56D-09 Max=2.95D-08 NDo=     1
 LinEq1:  Iter= 15 NonCon=     1 RMS=6.59D-10 Max=1.36D-08 NDo=     1
 LinEq1:  Iter= 16 NonCon=     1 RMS=1.64D-10 Max=3.68D-09 NDo=     1
 LinEq1:  Iter= 17 NonCon=     0 RMS=4.15D-11 Max=4.93D-10 NDo=     1
 Linear equations converged to 1.000D-10 1.000D-09 after    17 iterations.
 End of Minotr F.D. properties file   721 does not exist.
 End of Minotr F.D. properties file   722 does not exist.
 End of Minotr F.D. properties file   788 does not exist.
 Symmetrizing basis deriv contribution to polar:
 IMax=3 JMax=2 DiffMx= 0.00D+00
 Calling FoFJK, ICntrl=  10002127 FMM=F ISym2X=0 I1Cent= 0 IOpClX= 0 NMat=1 NMatS=1 NMatT=0.
 ***** Axes restored to original set *****
 -------------------------------------------------------------------
 Center     Atomic                   Forces (Hartrees/Bohr)
 Number     Number              X              Y              Z
 -------------------------------------------------------------------
      1        6           0.002830940    0.004049539    0.000404422
      2        6           0.000001238   -0.000560497   -0.003612139
      3        6           0.005869551    0.009009159    0.000659165
      4        8           0.000243222   -0.005017405   -0.002472793
      5        8          -0.002813290   -0.005738550    0.003297758
      6        1          -0.000310082   -0.001533273    0.001439797
      7        6          -0.002913493   -0.000586472    0.001115981
      8        6           0.000616185   -0.010529863   -0.002436629
      9        1          -0.003494837    0.001821039    0.000165238
     10        9           0.002363867    0.000736630    0.000060293
     11        9           0.002641369   -0.001868891    0.000679028
     12        9           0.002118789   -0.002630166    0.000610700
     13        9          -0.002351426    0.004109571   -0.001414042
     14        9          -0.003013014    0.004083730   -0.000775390
     15        9          -0.001789019    0.004655450    0.002278612
 -------------------------------------------------------------------
 Cartesian Forces:  Max     0.010529863 RMS     0.003313584

 GradGradGradGradGradGradGradGradGradGradGradGradGradGradGradGradGradGrad
 Berny optimization.
 Using GEDIIS/GDIIS optimizer.
 FormGI is forming the generalized inverse of G from B-inverse, IUseBI=4.
 Internal  Forces:  Max     0.017527342 RMS     0.004461892
 Search for a local minimum.
 Step number   3 out of a maximum of   68
 All quantities printed in internal units (Hartrees-Bohrs-Radians)
 Mixed Optimization -- RFO/linear search
 Update second derivatives using D2CorX and points    3    2
 DE=  1.83D-03 DEPred=-1.59D-03 R=-1.15D+00
 Trust test=-1.15D+00 RLast= 1.03D+00 DXMaxT set to 2.52D-01
 ITU= -1  1  0
 Use linear search instead of GDIIS.
     Eigenvalues ---    0.00462   0.00881   0.01906   0.02436   0.03500
     Eigenvalues ---    0.04556   0.05132   0.09254   0.10734   0.11761
     Eigenvalues ---    0.12964   0.13771   0.14439   0.16032   0.18073
     Eigenvalues ---    0.19445   0.21365   0.22128   0.23190   0.24456
     Eigenvalues ---    0.27329   0.27899   0.28934   0.31381   0.35367
     Eigenvalues ---    0.35853   0.36654   0.37843   0.38231   0.38519
     Eigenvalues ---    0.40596   0.43539   0.48163   0.51840   0.52986
     Eigenvalues ---    0.71757   0.76793   1.25424   2.12120
 RFO step:  Lambda=-2.34418177D-04 EMin= 4.61902057D-03
 Quartic linear search produced a step of -0.75914.
 Iteration  1 RMS(Cart)=  0.12222655 RMS(Int)=  0.01201534
 Iteration  2 RMS(Cart)=  0.02528420 RMS(Int)=  0.00027583
 Iteration  3 RMS(Cart)=  0.00047562 RMS(Int)=  0.00003998
 Iteration  4 RMS(Cart)=  0.00000012 RMS(Int)=  0.00003998
 Variable       Old X    -DE/DX   Delta X   Delta X   Delta X     New X
                                 (Linear)    (Quad)   (Total)
    R1        2.59616  -0.00071  -0.00917  -0.00071  -0.00987   2.58629
    R2        2.49639  -0.00471  -0.00654  -0.00243  -0.00897   2.48742
    R3        2.04468  -0.00051   0.00026   0.00004   0.00031   2.04499
    R4        2.74817  -0.00568  -0.00103  -0.00045  -0.00149   2.74669
    R5        2.82900  -0.00202  -0.00296  -0.00052  -0.00348   2.82552
    R6        2.36315  -0.00563  -0.00760  -0.00167  -0.00926   2.35389
    R7        2.90691  -0.00323  -0.00487  -0.00028  -0.00515   2.90176
    R8        1.88647  -0.00389  -0.01157  -0.00160  -0.01317   1.87330
    R9        2.56862  -0.00121  -0.00177  -0.00040  -0.00217   2.56645
   R10        2.55062   0.00047   0.00077   0.00030   0.00107   2.55169
   R11        2.55110   0.00153   0.00099   0.00050   0.00149   2.55259
   R12        2.54841  -0.00107  -0.00162  -0.00079  -0.00241   2.54600
   R13        2.53833  -0.00391  -0.00540  -0.00130  -0.00671   2.53163
   R14        2.55312  -0.00383  -0.00341  -0.00155  -0.00496   2.54816
    A1        2.20079  -0.00106  -0.00550  -0.00106  -0.00656   2.19424
    A2        2.11713  -0.00083   0.00104  -0.00121  -0.00018   2.11696
    A3        1.96525   0.00189   0.00443   0.00228   0.00670   1.97196
    A4        2.05677   0.00709   0.01007   0.00278   0.01272   2.06950
    A5        2.04159   0.00556   0.00940  -0.00095   0.00831   2.04991
    A6        2.18228  -0.01257  -0.01795  -0.00081  -0.01889   2.16339
    A7        2.10498   0.01272   0.01422   0.00394   0.01823   2.12321
    A8        2.16904  -0.01753  -0.02855  -0.00431  -0.03279   2.13625
    A9        2.00904   0.00480   0.01393   0.00038   0.01439   2.02343
   A10        1.85195  -0.00122   0.00041  -0.00080  -0.00039   1.85156
   A11        1.94030  -0.00166  -0.00687  -0.00217  -0.00902   1.93128
   A12        1.98343  -0.00284  -0.01274   0.00093  -0.01182   1.97161
   A13        1.93862  -0.00188   0.01504  -0.00089   0.01415   1.95277
   A14        1.84952   0.00384   0.00792   0.00152   0.00945   1.85897
   A15        1.86540   0.00324   0.00433   0.00029   0.00464   1.87004
   A16        1.88037  -0.00007  -0.00719   0.00045  -0.00676   1.87362
   A17        1.95094  -0.00622  -0.00753   0.00104  -0.00649   1.94445
   A18        1.92458  -0.00276  -0.00024  -0.00212  -0.00237   1.92221
   A19        1.93709  -0.00459  -0.00660  -0.00413  -0.01074   1.92635
   A20        1.87878   0.00559   0.00941   0.00034   0.00975   1.88853
   A21        1.89136   0.00363   0.00063   0.00199   0.00262   1.89398
   A22        1.87858   0.00516   0.00515   0.00316   0.00830   1.88687
    D1       -0.03475   0.00214  -0.02659   0.02010  -0.00643  -0.04118
    D2       -3.10370   0.00164  -0.05579   0.00562  -0.05023   3.12926
    D3        3.10950   0.00177  -0.01999   0.02025   0.00032   3.10982
    D4        0.04055   0.00127  -0.04919   0.00577  -0.04347  -0.00292
    D5        0.09301  -0.00003  -0.12222   0.00056  -0.12165  -0.02864
    D6       -3.05104   0.00031  -0.12834   0.00042  -0.12792   3.10422
    D7       -0.13449   0.00278   0.20096  -0.02680   0.17413   0.03964
    D8        2.98929   0.00264   0.24506  -0.02616   0.21891  -3.07498
    D9        2.92802   0.00424   0.23338  -0.01102   0.22235  -3.13282
   D10       -0.23139   0.00410   0.27749  -0.01039   0.26713   0.03574
   D11        0.30226   0.00096  -0.14849   0.03440  -0.11413   0.18813
   D12       -1.78248  -0.00084  -0.14515   0.03335  -0.11183  -1.89430
   D13        2.37707   0.00271  -0.13768   0.03276  -0.10497   2.27210
   D14       -2.76087  -0.00056  -0.18068   0.01859  -0.16204  -2.92292
   D15        1.43758  -0.00236  -0.17734   0.01755  -0.15974   1.27783
   D16       -0.68606   0.00119  -0.16987   0.01696  -0.15289  -0.83895
   D17       -0.62871   0.00170  -0.19009   0.02637  -0.16369  -0.79240
   D18       -2.71800   0.00057  -0.19684   0.02668  -0.17014  -2.88813
   D19        1.48510  -0.00115  -0.19889   0.02675  -0.17213   1.31296
   D20        2.49595   0.00165  -0.14824   0.02701  -0.12124   2.37471
   D21        0.40666   0.00052  -0.15499   0.02732  -0.12768   0.27898
   D22       -1.67343  -0.00120  -0.15705   0.02739  -0.12967  -1.80311
         Item               Value     Threshold  Converged?
 Maximum Force            0.017527     0.000450     NO 
 RMS     Force            0.004462     0.000300     NO 
 Maximum Displacement     0.557844     0.001800     NO 
 RMS     Displacement     0.132607     0.001200     NO 
[...]
     45 vectors produced by pass  5 Test12= 1.64D-14 2.08D-09 XBig12= 7.74D-08 5.05D-05.
     45 vectors produced by pass  6 Test12= 1.64D-14 2.08D-09 XBig12= 4.38D-10 2.58D-06.
     21 vectors produced by pass  7 Test12= 1.64D-14 2.08D-09 XBig12= 2.01D-12 1.43D-07.
      3 vectors produced by pass  8 Test12= 1.64D-14 2.08D-09 XBig12= 9.86D-15 1.45D-08.
 InvSVY:  IOpt=1 It=  1 EMax= 3.55D-15
 Solved reduced A of dimension   339 with    48 vectors.
 End of Minotr F.D. properties file   721 does not exist.
 End of Minotr F.D. properties file   722 does not exist.
 End of Minotr F.D. properties file   788 does not exist.
 MDV=  5502926848.
 Form MO integral derivatives with frozen-active canonical formalism.
 Discarding MO integrals.
 Reordered first order wavefunction length =    123370632
 In DefCFB: NBatch=  1 ICI= 51 ICA=154 LFMax= 52
            Large arrays: LIAPS=  1320257400 LIARS=   169057350 words.
 Semi-Direct transformation.
 ModeAB=           4 MOrb=            51 LenV=    5501886997
 LASXX=    180061365 LTotXX=   180061365 LenRXX=   363482661
 LTotAB=   183421296 MaxLAS=   203496120 LenRXY=           0
 NonZer=   543544026 LenScr=   815792128 LnRSAI=   203496120
 LnScr1=   305659904 LExtra=           0 Total=   1688430813
 MaxDsk=          -1 SrtSym=           T ITran=            4
 JobTyp=0 Pass  1:  I=   1 to  51.
 (rs|ai) integrals will be sorted in core.
 Spin components of T(2) and E(2):
     alpha-alpha T2 =       0.7564926358D-01 E2=     -0.2836772368D+00
     alpha-beta  T2 =       0.3840090655D+00 E2=     -0.1455536430D+01
     beta-beta   T2 =       0.7564926358D-01 E2=     -0.2836772368D+00
 ANorm=    0.1752317090D+01
 E2 =    -0.2022890904D+01 EUMP2 =    -0.93888070580822D+03
          IDoAtm=111111111111111
          Differentiating once with respect to electric field.
                with respect to dipole field.
          Differentiating once with respect to nuclear coordinates.
          There are     1 degrees of freedom in the 1st order CPHF.  IDoFFX=0 NUNeed=     1.
 LinEq1:  Iter=  0 NonCon=     1 RMS=4.95D-03 Max=1.72D-01 NDo=     1
 LinEq1:  Iter=  1 NonCon=     1 RMS=1.96D-03 Max=6.37D-02 NDo=     1
 LinEq1:  Iter=  2 NonCon=     1 RMS=6.09D-04 Max=2.88D-02 NDo=     1
 LinEq1:  Iter=  3 NonCon=     1 RMS=2.75D-04 Max=9.89D-03 NDo=     1
 LinEq1:  Iter=  4 NonCon=     1 RMS=8.69D-05 Max=2.66D-03 NDo=     1
 LinEq1:  Iter=  5 NonCon=     1 RMS=2.86D-05 Max=4.63D-04 NDo=     1
 LinEq1:  Iter=  6 NonCon=     1 RMS=1.25D-05 Max=7.29D-04 NDo=     1
 LinEq1:  Iter=  7 NonCon=     1 RMS=4.10D-06 Max=9.33D-05 NDo=     1
 LinEq1:  Iter=  8 NonCon=     1 RMS=1.38D-06 Max=3.79D-05 NDo=     1
 LinEq1:  Iter=  9 NonCon=     1 RMS=4.32D-07 Max=1.06D-05 NDo=     1
 LinEq1:  Iter= 10 NonCon=     1 RMS=1.48D-07 Max=2.42D-06 NDo=     1
 LinEq1:  Iter= 11 NonCon=     1 RMS=4.00D-08 Max=9.09D-07 NDo=     1
 LinEq1:  Iter= 12 NonCon=     1 RMS=1.35D-08 Max=5.12D-07 NDo=     1
 LinEq1:  Iter= 13 NonCon=     1 RMS=3.19D-09 Max=5.27D-08 NDo=     1
 LinEq1:  Iter= 14 NonCon=     1 RMS=8.55D-10 Max=1.09D-08 NDo=     1
 LinEq1:  Iter= 15 NonCon=     1 RMS=3.29D-10 Max=4.07D-09 NDo=     1
 LinEq1:  Iter= 16 NonCon=     0 RMS=7.00D-11 Max=9.33D-10 NDo=     1
 Linear equations converged to 1.000D-10 1.000D-09 after    16 iterations.
 End of Minotr F.D. properties file   721 does not exist.
 End of Minotr F.D. properties file   722 does not exist.
 End of Minotr F.D. properties file   788 does not exist.
 Symmetrizing basis deriv contribution to polar:
 IMax=3 JMax=2 DiffMx= 0.00D+00
 G2DrvN: will do    16 centers at a time, making    1 passes.
 Calling FoFCou, ICntrl=  3107 FMM=F I1Cent=   0 AccDes= 0.00D+00.
 End of G2Drv F.D. properties file   721 does not exist.
 End of G2Drv F.D. properties file   722 does not exist.
 End of G2Drv F.D. properties file   788 does not exist.
 R2 and R3 integrals will be kept in memory, NReq=   450235145.
 DD1Dir will call FoFMem   1 times, MxPair=      2652
 NAB=  1326 NAA=     0 NBB=     0.
 Discarding MO integrals.

 **********************************************************************

            Population analysis using the MP2 density.

 **********************************************************************

 Alpha  occ. eigenvalues --  -26.36724 -26.36483 -26.36220 -26.36166 -26.35463
 Alpha  occ. eigenvalues --  -26.34979 -20.65472 -20.62074 -11.54339 -11.53974
 Alpha  occ. eigenvalues --  -11.41361 -11.39836 -11.29224  -1.74586  -1.73519
 Alpha  occ. eigenvalues --   -1.65316  -1.65031  -1.64403  -1.63814  -1.48161
 Alpha  occ. eigenvalues --   -1.43538  -1.15126  -1.03994  -0.98206  -0.93524
 Alpha  occ. eigenvalues --   -0.88852  -0.84876  -0.84023  -0.83865  -0.82852
 Alpha  occ. eigenvalues --   -0.82623  -0.78662  -0.72866  -0.72726  -0.72231
 Alpha  occ. eigenvalues --   -0.71596  -0.70396  -0.69276  -0.68053  -0.67973
 Alpha  occ. eigenvalues --   -0.66890  -0.66511  -0.66010  -0.65385  -0.64676
 Alpha  occ. eigenvalues --   -0.63960  -0.63504  -0.58477  -0.58007  -0.48618
 Alpha  occ. eigenvalues --   -0.41204
 Alpha virt. eigenvalues --    0.04222   0.17534   0.23776   0.26770   0.28723
 Alpha virt. eigenvalues --    0.35375   0.37413   0.38436   0.41221   0.43132
 Alpha virt. eigenvalues --    0.44171   0.45219   0.47193   0.53381   0.54291
 Alpha virt. eigenvalues --    0.61644   0.65412   0.66394   0.69018   0.70168
 Alpha virt. eigenvalues --    0.71216   0.74022   0.76726   0.76835   0.81439
 Alpha virt. eigenvalues --    0.82459   0.84389   0.87271   0.91640   0.93230
 Alpha virt. eigenvalues --    0.96655   1.01275   1.04729   1.08618   1.13498
 Alpha virt. eigenvalues --    1.17252   1.18355   1.21794   1.24002   1.25604
 Alpha virt. eigenvalues --    1.28396   1.29361   1.33218   1.34512   1.37044
 Alpha virt. eigenvalues --    1.37437   1.38859   1.40382   1.43428   1.44493
 Alpha virt. eigenvalues --    1.47533   1.50669   1.53334   1.57018   1.58443
 Alpha virt. eigenvalues --    1.61078   1.61882   1.62372   1.63573   1.63876
 Alpha virt. eigenvalues --    1.64595   1.66133   1.66876   1.69094   1.70279
 Alpha virt. eigenvalues --    1.75331   1.76580   1.78384   1.79253   1.85874
 Alpha virt. eigenvalues --    1.88295   1.88880   1.90285   1.91074   1.92722
 Alpha virt. eigenvalues --    1.94212   1.98050   1.98867   2.02240   2.04197
 Alpha virt. eigenvalues --    2.05637   2.08128   2.09026   2.09488   2.11118
 Alpha virt. eigenvalues --    2.12061   2.13508   2.16740   2.17998   2.21925
 Alpha virt. eigenvalues --    2.23258   2.24504   2.25901   2.26587   2.29908
 Alpha virt. eigenvalues --    2.31460   2.32134   2.33186   2.34404   2.35598
 Alpha virt. eigenvalues --    2.36170   2.36947   2.38955   2.41628   2.45401
 Alpha virt. eigenvalues --    2.47869   2.49715   2.50878   2.57644   2.67450
 Alpha virt. eigenvalues --    2.69050   2.69555   2.70555   2.74156   2.75542
 Alpha virt. eigenvalues --    2.76625   2.81630   2.83737   2.90473   2.95064
 Alpha virt. eigenvalues --    2.96364   2.99449   3.02868   3.05679   3.10401
 Alpha virt. eigenvalues --    3.11597   3.14662   3.17810   3.22290   3.29146
 Alpha virt. eigenvalues --    3.34487   3.36725   3.37612   3.39124   3.40459
 Alpha virt. eigenvalues --    3.41829   3.47558   3.49117   3.59295   3.82823
 Alpha virt. eigenvalues --    3.90461   4.32284   4.43823   4.50460   4.61158
 Alpha virt. eigenvalues --    4.71989   4.73310   4.86569   4.91637   5.06695
 Alpha virt. eigenvalues --    5.34392   5.42266   5.83274   6.08309
          Condensed to atoms (all electrons):
               1          2          3          4          5          6
     1  C    4.751235   0.382561  -0.033692   0.317834  -0.007116   0.401325
     2  C    0.382561   5.872093   0.185591  -0.042238  -0.069809  -0.063269
     3  C   -0.033692   0.185591   4.984837  -0.007791   0.431256   0.001923
     4  O    0.317834  -0.042238  -0.007791   8.005181  -0.036375  -0.032499
     5  O   -0.007116  -0.069809   0.431256  -0.036375   8.138064  -0.000148
     6  H    0.401325  -0.063269   0.001923  -0.032499  -0.000148   0.493066
     7  C   -0.021043   0.249670  -0.009834   0.001761   0.002200  -0.000727
     8  C    0.002840  -0.072450   0.280177  -0.000118  -0.048238  -0.000058
     9  H   -0.031194  -0.009405  -0.007976   0.276349   0.066940   0.003610
    10  F    0.001075  -0.044734   0.002034   0.000101  -0.000003   0.009400
    11  F   -0.000252  -0.052700   0.000067  -0.000001   0.000003   0.000147
    12  F    0.001747  -0.039873  -0.007167  -0.000003   0.000007   0.000138
    13  F    0.000123  -0.000693  -0.038443   0.000000   0.000764   0.000001
    14  F   -0.000027   0.003258  -0.030219   0.000000  -0.002337   0.000000
    15  F    0.000058   0.005015  -0.041722   0.000000  -0.000364   0.000001
               7          8          9         10         11         12
     1  C   -0.021043   0.002840  -0.031194   0.001075  -0.000252   0.001747
     2  C    0.249670  -0.072450  -0.009405  -0.044734  -0.052700  -0.039873
     3  C   -0.009834   0.280177  -0.007976   0.002034   0.000067  -0.007167
     4  O    0.001761  -0.000118   0.276349   0.000101  -0.000001  -0.000003
     5  O    0.002200  -0.048238   0.066940  -0.000003   0.000003   0.000007
     6  H   -0.000727  -0.000058   0.003610   0.009400   0.000147   0.000138
     7  C    3.995650  -0.003968   0.000135   0.282289   0.281025   0.265851
     8  C   -0.003968   4.095706   0.000969  -0.000006  -0.001013   0.010175
     9  H    0.000135   0.000969   0.306613  -0.000003   0.000000  -0.000001
    10  F    0.282289  -0.000006  -0.000003   9.122264  -0.037980  -0.035123
    11  F    0.281025  -0.001013   0.000000  -0.037980   9.131545  -0.037463
    12  F    0.265851   0.010175  -0.000001  -0.035123  -0.037463   9.134259
    13  F    0.009647   0.263718  -0.000012   0.000001  -0.000176  -0.001852
    14  F    0.000022   0.294013  -0.000003   0.000000  -0.000000   0.000001
    15  F   -0.001509   0.269201  -0.000023  -0.000000   0.000004  -0.000112
              13         14         15
     1  C    0.000123  -0.000027   0.000058
     2  C   -0.000693   0.003258   0.005015
     3  C   -0.038443  -0.030219  -0.041722
     4  O    0.000000   0.000000   0.000000
     5  O    0.000764  -0.002337  -0.000364
     6  H    0.000001   0.000000   0.000001
     7  C    0.009647   0.000022  -0.001509
     8  C    0.263718   0.294013   0.269201
     9  H   -0.000012  -0.000003  -0.000023
    10  F    0.000001   0.000000  -0.000000
    11  F   -0.000176  -0.000000   0.000004
    12  F   -0.001852   0.000001  -0.000112
    13  F    9.118795  -0.035504  -0.034020
    14  F   -0.035504   9.076510  -0.035986
    15  F   -0.034020  -0.035986   9.118672
 Mulliken charges:
               1
     1  C    0.234526
     2  C   -0.303016
     3  C    0.290959
     4  O   -0.482201
     5  O   -0.474844
     6  H    0.187090
     7  C    0.948831
     8  C    0.909052
     9  H    0.394000
    10  F   -0.299314
    11  F   -0.283206
    12  F   -0.290584
    13  F   -0.282350
    14  F   -0.269729
    15  F   -0.279215
 Sum of Mulliken charges =  -0.00000
 Mulliken charges with hydrogens summed into heavy atoms:
               1
     1  C    0.421616
     2  C   -0.303016
     3  C    0.290959
     4  O   -0.088201
     5  O   -0.474844
     7  C    0.948831
     8  C    0.909052
    10  F   -0.299314
    11  F   -0.283206
    12  F   -0.290584
    13  F   -0.282350
    14  F   -0.269729
    15  F   -0.279215
 APT charges:
               1
     1  C    0.692783
     2  C   -0.743202
     3  C    0.662744
     4  O   -0.652908
     5  O   -0.534837
     6  H    0.085941
     7  C    1.676352
     8  C    1.563960
     9  H    0.372033
    10  F   -0.508782
    11  F   -0.540555
    12  F   -0.525559
    13  F   -0.515602
    14  F   -0.509438
    15  F   -0.522930
 Sum of APT charges =  -0.00000
 APT charges with hydrogens summed into heavy atoms:
               1
     1  C    0.778723
     2  C   -0.743202
     3  C    0.662744
     4  O   -0.280875
     5  O   -0.534837
     7  C    1.676352
     8  C    1.563960
    10  F   -0.508782
    11  F   -0.540555
    12  F   -0.525559
    13  F   -0.515602
    14  F   -0.509438
    15  F   -0.522930
 Electronic spatial extent (au):  <R**2>=           2064.0464
 Charge=             -0.0000 electrons
 Dipole moment (field-independent basis, Debye):
    X=              1.5000    Y=              1.1632    Z=             -0.0078  Tot=              1.8982
 Quadrupole moment (field-independent basis, Debye-Ang):
   XX=            -69.7952   YY=            -72.9214   ZZ=            -69.1859
   XY=              2.3677   XZ=              0.1603   YZ=             -0.0079
 Traceless Quadrupole moment (field-independent basis, Debye-Ang):
   XX=              0.8390   YY=             -2.2873   ZZ=              1.4483
   XY=              2.3677   XZ=              0.1603   YZ=             -0.0079
 Octapole moment (field-independent basis, Debye-Ang**2):
  XXX=              2.2123  YYY=            -30.8999  ZZZ=             -0.0710  XYY=             -8.0488
  XXY=             -9.2932  XXZ=              0.2560  XZZ=             -4.4785  YZZ=             -5.5810
  YYZ=              0.5230  XYZ=             -0.6876
 Hexadecapole moment (field-independent basis, Debye-Ang**3):
 XXXX=          -1100.0567 YYYY=           -849.7993 ZZZZ=           -184.5250 XXXY=              6.5448
 XXXZ=             -2.9432 YYYX=            -38.8292 YYYZ=             -0.6734 ZZZX=              1.5413
 ZZZY=             -0.6019 XXYY=           -349.3369 XXZZ=           -218.4758 YYZZ=           -170.7997
 XXYZ=              1.4545 YYXZ=             -1.0971 ZZXY=             -6.2062
 N-N= 9.380635991413D+02 E-N=-4.099671179290D+03  KE= 9.354071162458D+02
  Exact polarizability:  72.028   4.474  67.582   0.893  -0.165  37.222
 Approx polarizability:  56.700   0.910  57.762   0.673  -0.232  38.320
 Calling FoFJK, ICntrl=  10100127 FMM=F ISym2X=0 I1Cent= 0 IOpClX= 0 NMat=1 NMatS=1 NMatT=0.
 -------------------------------------------------------------------
 Center     Atomic                   Forces (Hartrees/Bohr)
 Number     Number              X              Y              Z
 -------------------------------------------------------------------
      1        6          -0.000021279    0.000029343    0.000009330
      2        6           0.000001758    0.000006892   -0.000023883
      3        6           0.000020298    0.000009231    0.000031007
      4        8          -0.000075997   -0.000015441    0.000008047
      5        8           0.000003506   -0.000012129   -0.000067240
      6        1           0.000001148    0.000000616    0.000001369
      7        6          -0.000004340   -0.000014797   -0.000013443
      8        6           0.000008947   -0.000001649    0.000042302
      9        1           0.000006326   -0.000008103   -0.000001278
     10        9          -0.000000362   -0.000018452   -0.000016301
     11        9           0.000008598   -0.000039106   -0.000003204
     12        9          -0.000018731   -0.000004427   -0.000018296
     13        9           0.000085910    0.000056574    0.000024521
     14        9           0.000045912    0.000042342    0.000018038
     15        9          -0.000061694   -0.000030896    0.000009031
 -------------------------------------------------------------------
 Cartesian Forces:  Max     0.000085910 RMS     0.000029746
 NDeriv=     39 NFrqRd=  0 NDerD0=      0 MskFDP=       0 MskDFD=       0 MskDF0=       0
 Re-enter D2Numr:  normal mode   8 step-up   number 1
 Standard basis: 6-31G(d,p) (6D, 7F)
   205 basis functions,   378 primitive gaussians,   205 cartesian basis functions
    51 alpha electrons       51 beta electrons
       nuclear repulsion energy       938.1343955958 Hartrees.
 NAtoms=   15 NActive=   15 NUniq=   15 SFac= 1.00D+00 NAtFMM=   60 NAOKFM=F Big=F
 Integral buffers will be    131072 words long.
 Raffenetti 1 integral format.
 Two-electron integral symmetry is turned off.
 One-electron integrals computed using PRISM.
 NBasis=   205 RedAO= T EigKep=  9.43D-04  NBF=   205
 NBsUse=   205 1.00D-06 EigRej= -1.00D+00 NBFU=   205
 Initial guess from the checkpoint file:  "7.chk"
 B after Tr=    -0.000019    0.000002   -0.000004
         Rot=    1.000000    0.000002    0.000000   -0.000004 Ang=   0.00 deg.
 Requested convergence on RMS density matrix=1.00D-08 within 128 cycles.
 Requested convergence on MAX density matrix=1.00D-06.
 Requested convergence on             energy=1.00D-06.
 No special actions if energy rises.
 SCF Done:  E(RHF) =  -936.857787207     A.U. after    9 cycles
            NFock=  9  Conv=0.87D-08     -V/T= 2.0028
 ExpMin= 1.61D-01 ExpMax= 7.00D+03 ExpMxC= 1.05D+03 IAcc=3 IRadAn=         5 AccDes= 0.00D+00
 HarFok:  IExCor=  205 AccDes= 0.00D+00 IRadAn=         5 IDoV=-2 UseB2=F ITyADJ=14
 ICtDFT= 12500011 ScaDFX=  1.000000  1.000000  1.000000  1.000000
 Range of M.O.s used for correlation:    14   205
 NBasis=   205 NAE=    51 NBE=    51 NFC=    13 NFV=     0
 NROrb=    192 NOA=    38 NOB=    38 NVA=   154 NVB=   154

 **** Warning!!: The largest alpha MO coefficient is  0.11521672D+02

 Disk-based method using ON**2 memory for 38 occupieds at a time.
 Permanent disk used for amplitudes=    76706091 words.
 Estimated scratch disk usage=   596691716 words.
 Actual    scratch disk usage=   559467268 words.
 JobTyp=1 Pass  1:  I=  14 to  51 NPSUse= 28 ParTrn=T ParDer=T DoDerP=T.
 (rs|ai) integrals will be sorted in core.
 Spin components of T(2) and E(2):
     alpha-alpha T2 =       0.7565250133D-01 E2=     -0.2836885202D+00
     alpha-beta  T2 =       0.3840010709D+00 E2=     -0.1455541602D+01
     beta-beta   T2 =       0.7565250133D-01 E2=     -0.2836885202D+00
 ANorm=    0.1239074684D+01
 E2 =    -0.2022918643D+01 EUMP2 =    -0.93888070585020D+03
 G2DrvN: will do    16 centers at a time, making    1 passes.
 Calling FoFCou, ICntrl=  3107 FMM=F I1Cent=   0 AccDes= 0.00D+00.
 End of G2Drv F.D. properties file   721 does not exist.
 End of G2Drv F.D. properties file   722 does not exist.
 End of G2Drv F.D. properties file   788 does not exist.
          IDoAtm=111111111111111
          Differentiating once with respect to electric field.
                with respect to dipole field.
          Differentiating once with respect to nuclear coordinates.
 Keep R1 ints in memory in canonical form, NReq=229009165.
          There are    48 degrees of freedom in the 1st order CPHF.  IDoFFX=6 NUNeed=    48.
     45 vectors produced by pass  0 Test12= 1.64D-14 2.08D-09 XBig12= 1.64D+01 2.71D+00.
 AX will form    45 AO Fock derivatives at one time.
     45 vectors produced by pass  1 Test12= 1.64D-14 2.08D-09 XBig12= 1.10D+00 1.54D-01.
     45 vectors produced by pass  2 Test12= 1.64D-14 2.08D-09 XBig12= 4.59D-02 4.76D-02.
     45 vectors produced by pass  3 Test12= 1.64D-14 2.08D-09 XBig12= 8.92D-04 5.33D-03.
     45 vectors produced by pass  4 Test12= 1.64D-14 2.08D-09 XBig12= 9.77D-06 4.15D-04.
     45 vectors produced by pass  5 Test12= 1.64D-14 2.08D-09 XBig12= 7.73D-08 5.04D-05.
     45 vectors produced by pass  6 Test12= 1.64D-14 2.08D-09 XBig12= 4.37D-10 2.58D-06.
     21 vectors produced by pass  7 Test12= 1.64D-14 2.08D-09 XBig12= 2.00D-12 1.42D-07.
      3 vectors produced by pass  8 Test12= 1.64D-14 2.08D-09 XBig12= 9.83D-15 1.44D-08.
 InvSVY:  IOpt=1 It=  1 EMax= 1.78D-15
 Solved reduced A of dimension   339 with    48 vectors.
 End of Minotr F.D. properties file   721 does not exist.
 End of Minotr F.D. properties file   722 does not exist.
 End of Minotr F.D. properties file   788 does not exist.
 MDV=  5502926848.
 Form MO integral derivatives with frozen-active canonical formalism.
 Discarding MO integrals.
 Reordered first order wavefunction length =    123370632
 In DefCFB: NBatch=  1 ICI= 51 ICA=154 LFMax= 52
            Large arrays: LIAPS=  1320257400 LIARS=   169057350 words.
