 argument  1 = 7R1.nw
 


============================== echo of input deck ==============================
echo
start 7R1
title "MeF,H,MeF Ref 1"
charge 0

geometry
 zmatrix
  O
  C  1  R1
  C  2  R2  1  A1
  H  1  R5  2  A4  3  D0
  C  2  R6  3  A5  4  D180
  H  3  R7  2  A6  1  D180
  H  3  R8  2  A7  1  D0
  F  5  R9  2  A8  1  D1
  F  5  R10 2  A9  1  D2
  F  5  R11 2  A10 1  D3
  variables
    R1  1.329
    R2  1.363
    A1  124.5
    R3  1.440
    A2  119.5
    R4  1.249
    A3  123.5
    R5  0.994
    A4  105.4
    R6  1.485
    A5  122.5
    R7  1.078
    A6  120.0
    R8  1.099
    A7  117.6
    R9  1.350
    A8  110.0
    D1  180.0
    R10 1.350
    A9  110.0
    D2  60.00
    R11 1.350
    A10 110.0
    D3  -60.0
  constants
    D0  0.000
    D180 180.0
 end
end

basis spherical
 * library aug-cc-pVDZ
end

set lindep:n_dep 0

set cphf:maxsub 95
set cphf:maxiter 999
set int:acc_std 1d-16
set fock:densityscreen f

scf
 maxiter 99
 vectors input atomic
 thresh 1d-9
 tol2e 1d-15
end

mp2
 freeze atomic
 tight
end

driver
 clear
 maxiter 99
 tight
end

set "mp2:aotol2e fock" 1d-15
set mp2:aotol2e 1d-15
set mp2:backtol 1d-15


task mp2 optimize
task mp2 frequencies


================================================================================


                                         
                                         
 
 
             Northwest Computational Chemistry Package (NWChem) 7.0.0
             --------------------------------------------------------
 
 
                    Environmental Molecular Sciences Laboratory
                       Pacific Northwest National Laboratory
                                Richland, WA 99352
 
                              Copyright (c) 1994-2020
                       Pacific Northwest National Laboratory
                            Battelle Memorial Institute
 
             NWChem is an open-source computational chemistry package
                        distributed under the terms of the
                      Educational Community License (ECL) 2.0
             A copy of the license is included with this distribution
                              in the LICENSE.TXT file
 
                                  ACKNOWLEDGMENT
                                  --------------

            This software and its documentation were developed at the
            EMSL at Pacific Northwest National Laboratory, a multiprogram
            national laboratory, operated for the U.S. Department of Energy
            by Battelle under Contract Number DE-AC05-76RL01830. Support
            for this work was provided by the Department of Energy Office
            of Biological and Environmental Research, Office of Basic
            Energy Sciences, and the Office of Advanced Scientific Computing.


           Job information
           ---------------

    hostname        = compute-0-23.local
    program         = /scratch/nwchem.277679
    date            = Thu Mar 25 13:55:45 2021

    compiled        = Thu_Jun_25_16:07:03_2020
    source          = /home/edo/nwchem-7.0.1
    nwchem branch   = 7.0.1
    nwchem revision = de46fdf
    ga revision     = 5.7.1
    use scalapack   = T
    input           = 7R1.nw
    prefix          = 7R1.
    data base       = ./7R1.db
    status          = startup
    nproc           =       11
    time left       =     -1s



           Memory information
           ------------------

    heap     =   13107200 doubles =    100.0 Mbytes
    stack    =   13107197 doubles =    100.0 Mbytes
    global   =   26214400 doubles =    200.0 Mbytes (distinct from heap & stack)
    total    =   52428797 doubles =    400.0 Mbytes
    verify   = yes
    hardfail = no 


           Directory information
           ---------------------
 
  0 permanent = .
  0 scratch   = /scratch
 
 
 
 
                                NWChem Input Module
                                -------------------
 
 
                                  MeF,H,MeF Ref 1
                                  ---------------

 Scaling coordinates for geometry "geometry" by  1.889725989
 (inverse scale =  0.529177249)

 CS  symmetry detected
 
 
                             Geometry "geometry" -> ""
                             -------------------------
 
 Output coordinates in angstroms (scale by  1.889725989 to convert to a.u.)
 
  No.       Tag          Charge          X              Y              Z
 ---- ---------------- ---------- -------------- -------------- --------------
    1 O                    8.0000    -1.14401734     1.45397119     0.00000000
    2 C                    6.0000     0.05455441     0.87980504     0.00000000
    3 C                    6.0000     1.23609170     1.55931857     0.00000000
    4 H                    1.0000    -0.96805699     2.43227276     0.00000000
    5 C                    6.0000    -0.01271580    -0.60367051     0.00000000
    6 H                    1.0000     2.16875912     1.01874898     0.00000000
    7 H                    1.0000     1.19191740     2.65743041     0.00000000
    8 F                    9.0000     1.23365081    -1.12239036     0.00000000
    9 F                    9.0000    -0.66727333    -1.03619039    -1.09862687
   10 F                    9.0000    -0.66727333    -1.03619039     1.09862687
 
      Atomic Mass 
      ----------- 
 
      O                 15.994910
      C                 12.000000
      H                  1.007825
      F                 18.998400
 

 Effective nuclear repulsion energy (a.u.)     334.4912332857

            Nuclear Dipole moment (a.u.) 
            ----------------------------
        X                 Y               Z
 ---------------- ---------------- ----------------
     0.0000000000     0.0000000000     0.0000000000
 
      Symmetry information
      --------------------
 
 Group name             Cs        
 Group number              2
 Group order               2
 No. of unique centers     9
 
      Symmetry unique atoms
 
     1    2    3    4    5    6    7    8    9
 


                                Z-matrix (user)
                                -------- 

 Units are Angstrom for bonds and degrees for angles

  Constants are marked with an asterisk (*).

  Constrained variables are marked with a plus sign (+).

 
      Type          Name      I     J     K     L     M      Value
      ----------- --------  ----- ----- ----- ----- ----- ----------
    1 Stretch      R1          2     1                       1.32900
    2 Stretch      R2          3     2                       1.36300
    3 Bend         A1          3     2     1               124.50000
    4 Stretch      R5          4     1                       0.99400
    5 Bend         A4          4     1     2               105.40000
    6*Torsion      D0          4     1     2     3           0.00000
    7 Stretch      R6          5     2                       1.48500
    8 Bend         A5          5     2     3               122.50000
    9*Torsion      D180        5     2     3     4         180.00000
   10 Stretch      R7          6     3                       1.07800
   11 Bend         A6          6     3     2               120.00000
   12*Torsion      D180        6     3     2     1         180.00000
   13 Stretch      R8          7     3                       1.09900
   14 Bend         A7          7     3     2               117.60000
   15*Torsion      D0          7     3     2     1           0.00000
   16 Stretch      R9          8     5                       1.35000
   17 Bend         A8          8     5     2               110.00000
   18 Torsion      D1          8     5     2     1         180.00000
   19 Stretch      R10         9     5                       1.35000
   20 Bend         A9          9     5     2               110.00000
   21 Torsion      D2          9     5     2     1          60.00000
   22 Stretch      R11        10     5                       1.35000
   23 Bend         A10        10     5     2               110.00000
   24 Torsion      D3         10     5     2     1         -60.00000
 
 
            XYZ format geometry
            -------------------
    10
 geometry
 O                    -1.14401734     1.45397119     0.00000000
 C                     0.05455441     0.87980504     0.00000000
 C                     1.23609170     1.55931857     0.00000000
 H                    -0.96805699     2.43227276     0.00000000
 C                    -0.01271580    -0.60367051     0.00000000
 H                     2.16875912     1.01874898     0.00000000
 H                     1.19191740     2.65743041     0.00000000
 F                     1.23365081    -1.12239036     0.00000000
 F                    -0.66727333    -1.03619039    -1.09862687
 F                    -0.66727333    -1.03619039     1.09862687
 
 ==============================================================================
                                internuclear distances
 ------------------------------------------------------------------------------
       center one      |      center two      | atomic units |  angstroms
 ------------------------------------------------------------------------------
    2 C                |   1 O                |     2.51145  |     1.32900
    3 C                |   2 C                |     2.57570  |     1.36300
    4 H                |   1 O                |     1.87839  |     0.99400
    5 C                |   2 C                |     2.80624  |     1.48500
    6 H                |   3 C                |     2.03712  |     1.07800
    7 H                |   3 C                |     2.07681  |     1.09900
    8 F                |   5 C                |     2.55113  |     1.35000
    9 F                |   5 C                |     2.55113  |     1.35000
   10 F                |   5 C                |     2.55113  |     1.35000
 ------------------------------------------------------------------------------
                         number of included internuclear distances:          9
 ==============================================================================



 ==============================================================================
                                 internuclear angles
 ------------------------------------------------------------------------------
        center 1       |       center 2       |       center 3       |  degrees
 ------------------------------------------------------------------------------
    2 C                |   1 O                |   4 H                |   105.40
    1 O                |   2 C                |   3 C                |   124.50
    1 O                |   2 C                |   5 C                |   113.00
    3 C                |   2 C                |   5 C                |   122.50
    2 C                |   3 C                |   6 H                |   120.00
    2 C                |   3 C                |   7 H                |   117.60
    6 H                |   3 C                |   7 H                |   122.40
    2 C                |   5 C                |   8 F                |   110.00
    2 C                |   5 C                |   9 F                |   110.00
    2 C                |   5 C                |  10 F                |   110.00
    8 F                |   5 C                |   9 F                |   108.94
    8 F                |   5 C                |  10 F                |   108.94
    9 F                |   5 C                |  10 F                |   108.94
 ------------------------------------------------------------------------------
                            number of included internuclear angles:         13
 ==============================================================================





 Summary of "ao basis" -> "" (spherical)
 ------------------------------------------------------------------------------
       Tag                 Description            Shells   Functions and Types
 ---------------- ------------------------------  ------  ---------------------
 *                        aug-cc-pVDZ                 on all atoms 


 
  Deleted DRIVER restart files 
 
 
 
                           NWChem Geometry Optimization
                           ----------------------------
 
 
 
 
                                  MeF,H,MeF Ref 1
 
 
 maximum gradient threshold         (gmax) =   0.000015
 rms gradient threshold             (grms) =   0.000010
 maximum cartesian step threshold   (xmax) =   0.000060
 rms cartesian step threshold       (xrms) =   0.000040
 fixed trust radius                (trust) =   0.300000
 maximum step size to saddle      (sadstp) =   0.100000
 energy precision                  (eprec) =   1.0D-07
 maximum number of steps          (nptopt) =   99
 initial hessian option           (inhess) =    0
 line search option               (linopt) =    1
 hessian update option            (modupd) =    1
 saddle point option              (modsad) =    0
 initial eigen-mode to follow     (moddir) =    0
 initial variable to follow       (vardir) =    0
 follow first negative mode     (firstneg) =    T
 apply conjugacy                    (opcg) =    F
 source of zmatrix                         =   user    


          -------------------
          Energy Minimization
          -------------------

 
 Names of Z-matrix variables 
    1 R1           2 R2           3 A1           4 R5           5 A4      
    6 D0           7 R6           8 A5           9 D180        10 R7      
   11 A6          12 D180        13 R8          14 A7          15 D0      
   16 R9          17 A8          18 D1          19 R10         20 A9      
   21 D2          22 R11         23 A10         24 D3      
 
 Variables with the same non-blank name are constrained to be equal
 
     variables named       D0 =     6   15 
     variables named     D180 =     9   12 

 Number of frozen variables =    4
           Frozen variables =    6    9   12   15
 
 Using diagonal initial Hessian 
 Scaling for Hessian diagonals: bonds = 1.00  angles = 0.25  torsions = 0.10

          --------
          Step   0
          --------
 
 
                         Geometry "geometry" -> "geometry"
                         ---------------------------------
 
 Output coordinates in angstroms (scale by  1.889725989 to convert to a.u.)
 
  No.       Tag          Charge          X              Y              Z
 ---- ---------------- ---------- -------------- -------------- --------------
    1 O                    8.0000    -1.14401734     1.45397119     0.00000000
    2 C                    6.0000     0.05455441     0.87980504     0.00000000
    3 C                    6.0000     1.23609170     1.55931857     0.00000000
    4 H                    1.0000    -0.96805699     2.43227276     0.00000000
    5 C                    6.0000    -0.01271580    -0.60367051     0.00000000
    6 H                    1.0000     2.16875912     1.01874898     0.00000000
    7 H                    1.0000     1.19191740     2.65743041     0.00000000
    8 F                    9.0000     1.23365081    -1.12239036     0.00000000
    9 F                    9.0000    -0.66727333    -1.03619039    -1.09862687
   10 F                    9.0000    -0.66727333    -1.03619039     1.09862687
 
      Atomic Mass 
      ----------- 
 
      O                 15.994910
      C                 12.000000
      H                  1.007825
      F                 18.998400
 

 Effective nuclear repulsion energy (a.u.)     334.4912332857

            Nuclear Dipole moment (a.u.) 
            ----------------------------
        X                 Y               Z
 ---------------- ---------------- ----------------
     0.0000000000     0.0000000000     0.0000000000
 
      Symmetry information
      --------------------
 
 Group name             Cs        
 Group number              2
 Group order               2
 No. of unique centers     9
 
      Symmetry unique atoms
 
     1    2    3    4    5    6    7    8    9
 
                      Basis "ao basis" -> "ao basis" (spherical)
                      -----
  O (Oxygen)
  ----------
            Exponent  Coefficients 
       -------------- ---------------------------------------------------------
  1 S  1.17200000E+04  0.000710
  1 S  1.75900000E+03  0.005470
  1 S  4.00800000E+02  0.027837
  1 S  1.13700000E+02  0.104800
  1 S  3.70300000E+01  0.283062
  1 S  1.32700000E+01  0.448719
  1 S  5.02500000E+00  0.270952
  1 S  1.01300000E+00  0.015458
 
  2 S  1.17200000E+04 -0.000160
  2 S  1.75900000E+03 -0.001263
  2 S  4.00800000E+02 -0.006267
  2 S  1.13700000E+02 -0.025716
  2 S  3.70300000E+01 -0.070924
  2 S  1.32700000E+01 -0.165411
  2 S  5.02500000E+00 -0.116955
  2 S  1.01300000E+00  0.557368
 
  3 S  3.02300000E-01  1.000000
 
  4 S  7.89600000E-02  1.000000
 
  5 P  1.77000000E+01  0.043018
  5 P  3.85400000E+00  0.228913
  5 P  1.04600000E+00  0.508728
 
  6 P  2.75300000E-01  1.000000
 
  7 P  6.85600000E-02  1.000000
 
  8 D  1.18500000E+00  1.000000
 
  9 D  3.32000000E-01  1.000000
 
  C (Carbon)
  ----------
            Exponent  Coefficients 
       -------------- ---------------------------------------------------------
  1 S  6.66500000E+03  0.000692
  1 S  1.00000000E+03  0.005329
  1 S  2.28000000E+02  0.027077
  1 S  6.47100000E+01  0.101718
  1 S  2.10600000E+01  0.274740
  1 S  7.49500000E+00  0.448564
  1 S  2.79700000E+00  0.285074
  1 S  5.21500000E-01  0.015204
 
  2 S  6.66500000E+03 -0.000146
  2 S  1.00000000E+03 -0.001154
  2 S  2.28000000E+02 -0.005725
  2 S  6.47100000E+01 -0.023312
  2 S  2.10600000E+01 -0.063955
  2 S  7.49500000E+00 -0.149981
  2 S  2.79700000E+00 -0.127262
  2 S  5.21500000E-01  0.544529
 
  3 S  1.59600000E-01  1.000000
 
  4 S  4.69000000E-02  1.000000
 
  5 P  9.43900000E+00  0.038109
  5 P  2.00200000E+00  0.209480
  5 P  5.45600000E-01  0.508557
 
  6 P  1.51700000E-01  1.000000
 
  7 P  4.04100000E-02  1.000000
 
  8 D  5.50000000E-01  1.000000
 
  9 D  1.51000000E-01  1.000000
 
  H (Hydrogen)
  ------------
            Exponent  Coefficients 
       -------------- ---------------------------------------------------------
  1 S  1.30100000E+01  0.019685
  1 S  1.96200000E+00  0.137977
  1 S  4.44600000E-01  0.478148
 
  2 S  1.22000000E-01  1.000000
 
  3 S  2.97400000E-02  1.000000
 
  4 P  7.27000000E-01  1.000000
 
  5 P  1.41000000E-01  1.000000
 
  F (Fluorine)
  ------------
            Exponent  Coefficients 
       -------------- ---------------------------------------------------------
  1 S  1.47100000E+04  0.000721
  1 S  2.20700000E+03  0.005553
  1 S  5.02800000E+02  0.028267
  1 S  1.42600000E+02  0.106444
  1 S  4.64700000E+01  0.286814
  1 S  1.67000000E+01  0.448641
  1 S  6.35600000E+00  0.264761
  1 S  1.31600000E+00  0.015333
 
  2 S  1.47100000E+04 -0.000165
  2 S  2.20700000E+03 -0.001308
  2 S  5.02800000E+02 -0.006495
  2 S  1.42600000E+02 -0.026691
  2 S  4.64700000E+01 -0.073690
  2 S  1.67000000E+01 -0.170776
  2 S  6.35600000E+00 -0.112327
  2 S  1.31600000E+00  0.562814
 
  3 S  3.89700000E-01  1.000000
 
  4 S  9.86300000E-02  1.000000
 
  5 P  2.26700000E+01  0.044878
  5 P  4.97700000E+00  0.235718
  5 P  1.34700000E+00  0.508521
 
  6 P  3.47100000E-01  1.000000
 
  7 P  8.50200000E-02  1.000000
 
  8 D  1.64000000E+00  1.000000
 
  9 D  4.64000000E-01  1.000000
 


 Summary of "ao basis" -> "ao basis" (spherical)
 ------------------------------------------------------------------------------
       Tag                 Description            Shells   Functions and Types
 ---------------- ------------------------------  ------  ---------------------
 O                        aug-cc-pVDZ                9       23   4s3p2d
 C                        aug-cc-pVDZ                9       23   4s3p2d
 H                        aug-cc-pVDZ                5        9   3s2p
 F                        aug-cc-pVDZ                9       23   4s3p2d


                                 NWChem SCF Module
                                 -----------------
 
 
                                  MeF,H,MeF Ref 1
 
 

  ao basis        = "ao basis"
  functions       =   188
  atoms           =    10
  closed shells   =    28
  open shells     =     0
  charge          =   0.00
  wavefunction    = RHF 
  input vectors   = atomic
  output vectors  = ./7R1.movecs
  use symmetry    = T
  symmetry adapt  = T


 Summary of "ao basis" -> "ao basis" (spherical)
 ------------------------------------------------------------------------------
       Tag                 Description            Shells   Functions and Types
 ---------------- ------------------------------  ------  ---------------------
 O                        aug-cc-pVDZ                9       23   4s3p2d
 C                        aug-cc-pVDZ                9       23   4s3p2d
 H                        aug-cc-pVDZ                5        9   3s2p
 F                        aug-cc-pVDZ                9       23   4s3p2d


      Symmetry analysis of basis
      --------------------------
 
        a'        124
        a"         64
 

int_init: setting std/high accuracies to  1.0D-16  1.0D-32

 Forming initial guess at       0.3s


 Forcing the number of linearly dependent vectors to be  0
 
      Superposition of Atomic Density Guess
      -------------------------------------
 
 Sum of atomic energies:        -487.43163791
 
      Non-variational initial energy
      ------------------------------

 Total energy =    -490.274885
 1-e energy   =   -1338.941298
 2-e energy   =     514.175180
 HOMO         =      -0.279528
 LUMO         =       0.019111
 
 
      Symmetry analysis of molecular orbitals - initial
      -------------------------------------------------
 
  Numbering of irreducible representations: 
 
     1 a'          2 a"      
 
  Orbital symmetries:
 
     1 a'          2 a'          3 a"          4 a'          5 a'      
     6 a'          7 a'          8 a'          9 a'         10 a'      
    11 a"         12 a'         13 a'         14 a'         15 a'      
    16 a"         17 a'         18 a'         19 a"         20 a'      
    21 a'         22 a"         23 a"         24 a'         25 a"      
    26 a'         27 a'         28 a"         29 a"         30 a'      
    31 a'         32 a'         33 a'         34 a"         35 a'      
    36 a'         37 a'         38 a"      
 

 Starting SCF solution at       2.1s



 ----------------------------------------------
         Quadratically convergent ROHF

 Convergence threshold     :          1.000E-09
 Maximum no. of iterations :           99
 Final Fock-matrix accuracy:          1.000E-15
 ----------------------------------------------

 Warning: symmetry breaking in RHF:   2.815359056995703E-012

              iter       energy          gnorm     gmax       time
             ----- ------------------- --------- --------- --------
                 1     -488.3945404214  1.77D+00  2.15D-01      3.8
 Warning: symmetry breaking in RHF:   1.245186245779628E-011
 Warning: symmetry breaking in RHF:   8.584074423501065E-012
                 2     -488.5508768655  4.45D-01  5.70D-02      7.6
 Warning: symmetry breaking in RHF:   9.581075516296167E-012
                 3     -488.5689219868  3.63D-02  4.41D-03     12.9
 Warning: symmetry breaking in RHF:   9.547498208695160E-012
                 4     -488.5690662940  4.89D-04  1.58D-04     21.5
 Warning: symmetry breaking in RHF:   9.547279633537187E-012
                 5     -488.5690663465  1.93D-07  2.78D-08     35.6
 Warning: symmetry breaking in RHF:   9.558062674663859E-012
                 6     -488.5690663464  4.83D-11  9.55D-12     49.2


       Final RHF  results 
       ------------------ 

         Total SCF energy =   -488.569066346450
      One-electron energy =  -1340.845024148459
      Two-electron energy =    517.784724516310
 Nuclear repulsion energy =    334.491233285699

        Time for solution =     47.4s


 
       Symmetry analysis of molecular orbitals - final
       -----------------------------------------------
 
  Numbering of irreducible representations: 
 
     1 a'          2 a"      
 
  Orbital symmetries:
 
     1 a'          2 a"          3 a'          4 a'          5 a'      
     6 a'          7 a'          8 a'          9 a'         10 a"      
    11 a'         12 a'         13 a'         14 a'         15 a'      
    16 a"         17 a'         18 a"         19 a'         20 a'      
    21 a'         22 a"         23 a"         24 a'         25 a"      
    26 a'         27 a'         28 a"         29 a'         30 a'      
    31 a'         32 a'         33 a"         34 a"         35 a'      
    36 a'         37 a"         38 a'      
 
             Final eigenvalues
             -----------------

              1      
    1  -26.3605
    2  -26.3571
    3  -26.3571
    4  -20.6346
    5  -11.5304
    6  -11.3457
    7  -11.2610
    8   -1.7350
    9   -1.6460
   10   -1.6429
   11   -1.4532
   12   -1.0880
   13   -0.9847
   14   -0.8847
   15   -0.8288
   16   -0.8282
   17   -0.7821
   18   -0.7159
   19   -0.7142
   20   -0.7078
   21   -0.6725
   22   -0.6710
   23   -0.6550
   24   -0.6522
   25   -0.6123
   26   -0.5798
   27   -0.5635
   28   -0.3735
   29    0.0268
   30    0.0469
   31    0.0572
   32    0.0859
   33    0.0909
   34    0.1095
   35    0.1133
   36    0.1201
   37    0.1362
   38    0.1375
 
                       ROHF Final Molecular Orbital Analysis
                       -------------------------------------
 
 Vector   11  Occ=2.000000D+00  E=-1.453204D+00  Symmetry=a'
              MO Center= -8.9D-01,  1.4D+00, -4.3D-19, r^2= 6.2D-01
   Bfn.  Coefficient  Atom+Function         Bfn.  Coefficient  Atom+Function  
  ----- ------------  ---------------      ----- ------------  ---------------
     3      0.490221   1 O  s                 2      0.410014   1 O  s         
    27     -0.278467   2 C  s                50      0.199557   3 C  s         
     4      0.171877   1 O  s                70      0.172114   4 H  s         
    25      0.157225   2 C  s         
 
 Vector   12  Occ=2.000000D+00  E=-1.087961D+00  Symmetry=a'
              MO Center=  2.7D-01,  5.7D-01, -4.2D-15, r^2= 2.1D+00
   Bfn.  Coefficient  Atom+Function         Bfn.  Coefficient  Atom+Function  
  ----- ------------  ---------------      ----- ------------  ---------------
    25      0.264800   2 C  s                80      0.214937   5 C  s         
    26      0.210549   2 C  s                48      0.206685   3 C  s         
     3     -0.152902   1 O  s                49      0.153481   3 C  s         
 
 Vector   13  Occ=2.000000D+00  E=-9.847288D-01  Symmetry=a'
              MO Center=  3.5D-01,  2.5D-01, -1.8D-14, r^2= 3.2D+00
   Bfn.  Coefficient  Atom+Function         Bfn.  Coefficient  Atom+Function  
  ----- ------------  ---------------      ----- ------------  ---------------
    82      0.322774   5 C  s                49      0.317902   3 C  s         
    80     -0.267953   5 C  s                48      0.242093   3 C  s         
    50     -0.222068   3 C  s                54     -0.221811   3 C  px        
    29      0.169338   2 C  py              112      0.162073   7 H  s         
    26     -0.156886   2 C  s               124      0.156910   8 F  px        
 
 Vector   14  Occ=2.000000D+00  E=-8.847002D-01  Symmetry=a'
              MO Center=  1.2D-02, -3.1D-03,  1.2D-14, r^2= 3.2D+00
   Bfn.  Coefficient  Atom+Function         Bfn.  Coefficient  Atom+Function  
  ----- ------------  ---------------      ----- ------------  ---------------
    26      0.276877   2 C  s                84      0.268379   5 C  py        
   124      0.257661   8 F  px               82      0.240906   5 C  s         
     6     -0.199337   1 O  py              127      0.171420   8 F  px        
    70     -0.158647   4 H  s                49     -0.157703   3 C  s         
 
 Vector   15  Occ=2.000000D+00  E=-8.288458D-01  Symmetry=a'
              MO Center=  1.3D-01, -8.4D-01,  3.5D-14, r^2= 2.3D+00
   Bfn.  Coefficient  Atom+Function         Bfn.  Coefficient  Atom+Function  
  ----- ------------  ---------------      ----- ------------  ---------------
    83      0.301872   5 C  px              149     -0.282054   9 F  pz        
   172      0.282054  10 F  pz              124     -0.245917   8 F  px        
   125      0.236730   8 F  py              152     -0.180721   9 F  pz        
   175      0.180721  10 F  pz               32     -0.154365   2 C  py        
   128      0.150433   8 F  py        
 
 Vector   16  Occ=2.000000D+00  E=-8.281610D-01  Symmetry=a"
              MO Center= -2.3D-01, -9.7D-01, -4.7D-14, r^2= 1.9D+00
   Bfn.  Coefficient  Atom+Function         Bfn.  Coefficient  Atom+Function  
  ----- ------------  ---------------      ----- ------------  ---------------
    85      0.314470   5 C  pz              126      0.272760   8 F  pz        
   147     -0.259168   9 F  px              170      0.259168  10 F  px        
   129      0.185793   8 F  pz              149     -0.172487   9 F  pz        
   172     -0.172487  10 F  pz              150     -0.164374   9 F  px        
   173      0.164374  10 F  px        
 
 Vector   17  Occ=2.000000D+00  E=-7.821161D-01  Symmetry=a'
              MO Center= -2.6D-01,  4.9D-01, -1.7D-14, r^2= 3.4D+00
   Bfn.  Coefficient  Atom+Function         Bfn.  Coefficient  Atom+Function  
  ----- ------------  ---------------      ----- ------------  ---------------
     6     -0.258378   1 O  py                5      0.245365   1 O  px        
    70     -0.206674   4 H  s               125     -0.204548   8 F  py        
   124     -0.179612   8 F  px              148     -0.173512   9 F  py        
   171     -0.173512  10 F  py                8      0.153827   1 O  px        
    29      0.153738   2 C  py               27     -0.150533   2 C  s         
 
 Vector   18  Occ=2.000000D+00  E=-7.159376D-01  Symmetry=a"
              MO Center= -1.5D-01, -9.9D-01,  8.8D-16, r^2= 2.1D+00
   Bfn.  Coefficient  Atom+Function         Bfn.  Coefficient  Atom+Function  
  ----- ------------  ---------------      ----- ------------  ---------------
   148      0.360888   9 F  py              171     -0.360888  10 F  py        
   126      0.338244   8 F  pz              151      0.250255   9 F  py        
   174     -0.250255  10 F  py              129      0.234120   8 F  pz        
 
 Vector   19  Occ=2.000000D+00  E=-7.141969D-01  Symmetry=a'
              MO Center= -2.9D-02, -8.9D-01,  1.1D-15, r^2= 2.5D+00
   Bfn.  Coefficient  Atom+Function         Bfn.  Coefficient  Atom+Function  
  ----- ------------  ---------------      ----- ------------  ---------------
   125      0.355308   8 F  py              148     -0.248562   9 F  py        
   171     -0.248562  10 F  py              128      0.244062   8 F  py        
   147     -0.244109   9 F  px              170     -0.244109  10 F  px        
   151     -0.173306   9 F  py              174     -0.173306  10 F  py        
   150     -0.166914   9 F  px              173     -0.166914  10 F  px        
 
 Vector   20  Occ=2.000000D+00  E=-7.078361D-01  Symmetry=a'
              MO Center=  2.6D-01,  1.4D+00, -1.8D-15, r^2= 2.8D+00
   Bfn.  Coefficient  Atom+Function         Bfn.  Coefficient  Atom+Function  
  ----- ------------  ---------------      ----- ------------  ---------------
     6      0.309639   1 O  py               51     -0.266876   3 C  px        
    50      0.249409   3 C  s                27     -0.242444   2 C  s         
   102     -0.228031   6 H  s                70      0.224151   4 H  s         
   103     -0.202361   6 H  s                49     -0.199760   3 C  s         
     3     -0.177692   1 O  s                 5      0.174052   1 O  px        
 
 Vector   21  Occ=2.000000D+00  E=-6.724930D-01  Symmetry=a'
              MO Center=  4.3D-02, -8.5D-01, -1.6D-14, r^2= 2.6D+00
   Bfn.  Coefficient  Atom+Function         Bfn.  Coefficient  Atom+Function  
  ----- ------------  ---------------      ----- ------------  ---------------
   124      0.348847   8 F  px              147      0.325499   9 F  px        
   170      0.325499  10 F  px              127      0.226772   8 F  px        
   150      0.224833   9 F  px              173      0.224833  10 F  px        
   148     -0.187868   9 F  py              171     -0.187868  10 F  py        
 
 Vector   22  Occ=2.000000D+00  E=-6.710415D-01  Symmetry=a"
              MO Center= -1.5D-01, -9.5D-01, -1.4D-13, r^2= 2.2D+00
   Bfn.  Coefficient  Atom+Function         Bfn.  Coefficient  Atom+Function  
  ----- ------------  ---------------      ----- ------------  ---------------
   126      0.348557   8 F  pz              149      0.333689   9 F  pz        
   172      0.333689  10 F  pz              129      0.245590   8 F  pz        
   152      0.219093   9 F  pz              175      0.219093  10 F  pz        
   148     -0.213259   9 F  py              171      0.213259  10 F  py        
   151     -0.158611   9 F  py              174      0.158611  10 F  py        
 
 Vector   23  Occ=2.000000D+00  E=-6.549935D-01  Symmetry=a"
              MO Center= -1.6D-01, -1.0D+00,  9.9D-15, r^2= 2.0D+00
   Bfn.  Coefficient  Atom+Function         Bfn.  Coefficient  Atom+Function  
  ----- ------------  ---------------      ----- ------------  ---------------
   126      0.358611   8 F  pz              147      0.348470   9 F  px        
   170     -0.348470  10 F  px              129      0.250007   8 F  pz        
   150      0.243603   9 F  px              173     -0.243603  10 F  px        
   149     -0.238917   9 F  pz              172     -0.238917  10 F  pz        
   152     -0.165079   9 F  pz              175     -0.165079  10 F  pz        
 
 Vector   24  Occ=2.000000D+00  E=-6.521682D-01  Symmetry=a'
              MO Center=  4.2D-01,  4.6D-01, -7.3D-15, r^2= 3.6D+00
   Bfn.  Coefficient  Atom+Function         Bfn.  Coefficient  Atom+Function  
  ----- ------------  ---------------      ----- ------------  ---------------
   125      0.375926   8 F  py               27      0.346609   2 C  s         
    50     -0.283058   3 C  s               128      0.275612   8 F  py        
     5      0.268614   1 O  px               81     -0.246048   5 C  s         
    52      0.242633   3 C  py              112      0.242633   7 H  s         
   111      0.206553   7 H  s                28     -0.202510   2 C  px        
 
 Vector   25  Occ=2.000000D+00  E=-6.123353D-01  Symmetry=a"
              MO Center= -8.4D-01,  1.2D+00, -9.8D-15, r^2= 1.5D+00
   Bfn.  Coefficient  Atom+Function         Bfn.  Coefficient  Atom+Function  
  ----- ------------  ---------------      ----- ------------  ---------------
     7      0.541635   1 O  pz               10      0.403185   1 O  pz        
    30      0.220647   2 C  pz        
 
 Vector   26  Occ=2.000000D+00  E=-5.798347D-01  Symmetry=a'
              MO Center=  6.9D-01,  1.4D+00, -8.3D-16, r^2= 2.9D+00
   Bfn.  Coefficient  Atom+Function         Bfn.  Coefficient  Atom+Function  
  ----- ------------  ---------------      ----- ------------  ---------------
   102      0.311795   6 H  s                 5      0.309093   1 O  px        
   103      0.287109   6 H  s               112     -0.288308   7 H  s         
    51      0.256361   3 C  px               52     -0.254888   3 C  py        
   111     -0.245473   7 H  s                 8      0.214155   1 O  px        
 
 Vector   27  Occ=2.000000D+00  E=-5.634921D-01  Symmetry=a'
              MO Center= -1.5D-03,  6.3D-01, -6.7D-16, r^2= 3.0D+00
   Bfn.  Coefficient  Atom+Function         Bfn.  Coefficient  Atom+Function  
  ----- ------------  ---------------      ----- ------------  ---------------
    29      0.286463   2 C  py               81     -0.279905   5 C  s         
    84     -0.272847   5 C  py               87     -0.215339   5 C  py        
    49      0.207580   3 C  s               148      0.203698   9 F  py        
   171      0.203698  10 F  py                6     -0.193253   1 O  py        
    51     -0.191184   3 C  px               52     -0.190168   3 C  py        
 
 Vector   28  Occ=2.000000D+00  E=-3.734742D-01  Symmetry=a"
              MO Center=  5.0D-01,  1.3D+00, -4.7D-14, r^2= 2.0D+00
   Bfn.  Coefficient  Atom+Function         Bfn.  Coefficient  Atom+Function  
  ----- ------------  ---------------      ----- ------------  ---------------
    53      0.396059   3 C  pz               30      0.322893   2 C  pz        
     7     -0.287259   1 O  pz               56      0.274810   3 C  pz        
    10     -0.230907   1 O  pz               33      0.224355   2 C  pz        
 
 Vector   29  Occ=0.000000D+00  E= 2.683977D-02  Symmetry=a'
              MO Center= -4.8D-02,  3.8D+00,  3.3D-15, r^2= 1.3D+01
   Bfn.  Coefficient  Atom+Function         Bfn.  Coefficient  Atom+Function  
  ----- ------------  ---------------      ----- ------------  ---------------
    82      6.320264   5 C  s                35      3.043616   2 C  py        
   113     -2.067223   7 H  s                72     -1.814483   4 H  s         
    27     -1.381555   2 C  s                90      0.984666   5 C  py        
     4     -0.898458   1 O  s                57      0.618791   3 C  px        
   112     -0.570138   7 H  s               123     -0.505476   8 F  s         
 
 Vector   30  Occ=0.000000D+00  E= 4.686909D-02  Symmetry=a'
              MO Center=  2.2D+00,  1.6D+00, -3.7D-16, r^2= 2.0D+01
   Bfn.  Coefficient  Atom+Function         Bfn.  Coefficient  Atom+Function  
  ----- ------------  ---------------      ----- ------------  ---------------
    82      3.989998   5 C  s               104     -3.833325   6 H  s         
    27     -2.861135   2 C  s                72      2.131422   4 H  s         
    57      1.545689   3 C  px               50      1.370182   3 C  s         
    35      1.356578   2 C  py              103     -1.001544   6 H  s         
    34      0.947795   2 C  px               90      0.832201   5 C  py        
 
 Vector   31  Occ=0.000000D+00  E= 5.720667D-02  Symmetry=a'
              MO Center=  8.6D-01,  2.2D+00, -1.2D-14, r^2= 2.5D+01
   Bfn.  Coefficient  Atom+Function         Bfn.  Coefficient  Atom+Function  
  ----- ------------  ---------------      ----- ------------  ---------------
    82      9.231513   5 C  s               113      6.668051   7 H  s         
    35      6.317842   2 C  py              104     -5.007014   6 H  s         
    50     -4.263636   3 C  s                58     -3.730390   3 C  py        
    72     -3.708754   4 H  s                57      2.517798   3 C  px        
    27     -2.316329   2 C  s               112      1.728741   7 H  s         
 
 Vector   32  Occ=0.000000D+00  E= 8.586293D-02  Symmetry=a'
              MO Center=  1.5D-01, -1.3D+00, -1.3D-15, r^2= 2.1D+01
   Bfn.  Coefficient  Atom+Function         Bfn.  Coefficient  Atom+Function  
  ----- ------------  ---------------      ----- ------------  ---------------
    82     15.323935   5 C  s                50    -12.881918   3 C  s         
    35      7.355939   2 C  py              113     -4.712969   7 H  s         
    90      4.573735   5 C  py               34      4.379995   2 C  px        
    57      3.002607   3 C  px               58      2.664316   3 C  py        
   104      1.500160   6 H  s               103      1.356634   6 H  s         
 
 Vector   33  Occ=0.000000D+00  E= 9.087114D-02  Symmetry=a"
              MO Center=  1.5D+00,  1.7D+00, -4.6D-15, r^2= 8.2D+00
   Bfn.  Coefficient  Atom+Function         Bfn.  Coefficient  Atom+Function  
  ----- ------------  ---------------      ----- ------------  ---------------
    59      1.671541   3 C  pz               36     -1.288067   2 C  pz        
    91      0.451944   5 C  pz               33     -0.339805   2 C  pz        
   146      0.327922   9 F  s               169     -0.327922  10 F  s         
    13      0.295413   1 O  pz               30     -0.278352   2 C  pz        
 
 Vector   34  Occ=0.000000D+00  E= 1.095361D-01  Symmetry=a"
              MO Center=  4.1D-03, -1.1D+00,  9.7D-15, r^2= 1.4D+01
   Bfn.  Coefficient  Atom+Function         Bfn.  Coefficient  Atom+Function  
  ----- ------------  ---------------      ----- ------------  ---------------
    91      2.897146   5 C  pz              146      1.257263   9 F  s         
   169     -1.257263  10 F  s                36     -0.650707   2 C  pz        
    88      0.621772   5 C  pz              132     -0.480587   8 F  pz        
    59     -0.238130   3 C  pz              153      0.187864   9 F  px        
   176     -0.187864  10 F  px              155     -0.176684   9 F  pz        
 
 Vector   35  Occ=0.000000D+00  E= 1.133139D-01  Symmetry=a'
              MO Center= -1.5D-01, -3.4D-01,  1.8D-16, r^2= 1.8D+01
   Bfn.  Coefficient  Atom+Function         Bfn.  Coefficient  Atom+Function  
  ----- ------------  ---------------      ----- ------------  ---------------
    27      3.899011   2 C  s                82     -3.606880   5 C  s         
    89     -2.632957   5 C  px               35     -2.578735   2 C  py        
    57      1.365751   3 C  px                4     -1.338544   1 O  s         
   123      1.145805   8 F  s                81      1.015484   5 C  s         
    12      0.968665   1 O  py              103     -0.845583   6 H  s         
 
 Vector   36  Occ=0.000000D+00  E= 1.200826D-01  Symmetry=a'
              MO Center= -7.9D-02,  1.5D+00,  1.6D-15, r^2= 1.8D+01
   Bfn.  Coefficient  Atom+Function         Bfn.  Coefficient  Atom+Function  
  ----- ------------  ---------------      ----- ------------  ---------------
    27     24.778072   2 C  s                50    -14.436362   3 C  s         
    82    -11.001317   5 C  s                34      5.376454   2 C  px        
    57      4.947908   3 C  px               58      4.256083   3 C  py        
    72      4.027610   4 H  s               113     -3.316419   7 H  s         
    90     -3.204085   5 C  py               35     -2.685486   2 C  py        
 
 Vector   37  Occ=0.000000D+00  E= 1.362264D-01  Symmetry=a"
              MO Center= -8.9D-02,  1.3D+00,  3.7D-15, r^2= 1.4D+01
   Bfn.  Coefficient  Atom+Function         Bfn.  Coefficient  Atom+Function  
  ----- ------------  ---------------      ----- ------------  ---------------
    36      5.477047   2 C  pz               91     -3.036524   5 C  pz        
    59     -2.237427   3 C  pz               13     -0.654824   1 O  pz        
   146      0.459147   9 F  s               169     -0.459147  10 F  s         
   154      0.424441   9 F  py              177     -0.424441  10 F  py        
   155      0.417907   9 F  pz              178      0.417907  10 F  pz        
 
 Vector   38  Occ=0.000000D+00  E= 1.374661D-01  Symmetry=a'
              MO Center= -1.3D-01,  1.4D+00, -3.4D-16, r^2= 2.0D+01
   Bfn.  Coefficient  Atom+Function         Bfn.  Coefficient  Atom+Function  
  ----- ------------  ---------------      ----- ------------  ---------------
    82     16.638587   5 C  s                50    -14.961845   3 C  s         
    35     13.352159   2 C  py               27      9.789971   2 C  s         
    34      5.045045   2 C  px               57      4.789406   3 C  px        
     4     -3.509506   1 O  s               113     -3.113872   7 H  s         
    89     -1.894417   5 C  px               72     -1.872943   4 H  s         
 
 Vector   39  Occ=0.000000D+00  E= 1.508500D-01  Symmetry=a'
              MO Center= -1.9D-01,  6.2D-01, -1.2D-15, r^2= 2.1D+01
   Bfn.  Coefficient  Atom+Function         Bfn.  Coefficient  Atom+Function  
  ----- ------------  ---------------      ----- ------------  ---------------
    34      8.599374   2 C  px               50     -7.072607   3 C  s         
    27     -5.421743   2 C  s                 4      5.324632   1 O  s         
    89     -5.258205   5 C  px               35      2.563852   2 C  py        
   104      2.513871   6 H  s                82      2.448695   5 C  s         
    57     -1.927127   3 C  px               72      1.921958   4 H  s         
 
 Vector   40  Occ=0.000000D+00  E= 1.707123D-01  Symmetry=a'
              MO Center=  1.7D+00,  9.4D-01,  6.5D-15, r^2= 1.5D+01
   Bfn.  Coefficient  Atom+Function         Bfn.  Coefficient  Atom+Function  
  ----- ------------  ---------------      ----- ------------  ---------------
    82      8.582113   5 C  s                27      6.540859   2 C  s         
    50     -6.423849   3 C  s               104     -6.226189   6 H  s         
    35      5.800865   2 C  py               57      5.434157   3 C  px        
    34      4.346340   2 C  px              103     -3.489043   6 H  s         
    58     -2.192956   3 C  py              123     -1.746694   8 F  s         
 
 Vector   41  Occ=0.000000D+00  E= 1.720382D-01  Symmetry=a"
              MO Center=  9.3D-01,  1.3D+00, -2.1D-13, r^2= 8.5D+00
   Bfn.  Coefficient  Atom+Function         Bfn.  Coefficient  Atom+Function  
  ----- ------------  ---------------      ----- ------------  ---------------
    59      1.674124   3 C  pz               91     -0.968973   5 C  pz        
    36     -0.728570   2 C  pz              146     -0.671163   9 F  s         
   169      0.671163  10 F  s                33      0.338271   2 C  pz        
    53     -0.330902   3 C  pz               30      0.301300   2 C  pz        
    56     -0.302162   3 C  pz               88     -0.266685   5 C  pz        
 
 Vector   42  Occ=0.000000D+00  E= 1.795690D-01  Symmetry=a'
              MO Center=  8.9D-01,  2.4D+00, -7.2D-15, r^2= 1.7D+01
   Bfn.  Coefficient  Atom+Function         Bfn.  Coefficient  Atom+Function  
  ----- ------------  ---------------      ----- ------------  ---------------
    35     11.006878   2 C  py               58     -9.215959   3 C  py        
   113      9.182153   7 H  s                50     -6.295339   3 C  s         
   104     -5.145110   6 H  s                 4     -5.108164   1 O  s         
    27      4.563953   2 C  s                72     -4.304617   4 H  s         
    34     -4.077324   2 C  px               57      3.981058   3 C  px        
 
 Vector   43  Occ=0.000000D+00  E= 1.998642D-01  Symmetry=a'
              MO Center=  1.2D+00,  5.5D-01,  8.6D-15, r^2= 1.3D+01
   Bfn.  Coefficient  Atom+Function         Bfn.  Coefficient  Atom+Function  
  ----- ------------  ---------------      ----- ------------  ---------------
    27     30.881030   2 C  s                82    -17.869021   5 C  s         
    50    -12.098843   3 C  s                 4     -6.265562   1 O  s         
    58      3.946001   3 C  py               90     -3.948352   5 C  py        
   113     -3.357805   7 H  s                34      3.193283   2 C  px        
   104      2.962692   6 H  s               123      2.280828   8 F  s         
 
 Vector   44  Occ=0.000000D+00  E= 2.176436D-01  Symmetry=a'
              MO Center=  2.5D-01,  7.5D-01, -2.2D-14, r^2= 1.5D+01
   Bfn.  Coefficient  Atom+Function         Bfn.  Coefficient  Atom+Function  
  ----- ------------  ---------------      ----- ------------  ---------------
    50     24.317476   3 C  s                27    -19.124325   2 C  s         
    82     -8.224426   5 C  s                34     -6.512206   2 C  px        
    57     -5.072002   3 C  px               58     -4.591226   3 C  py        
   112     -3.128325   7 H  s                90     -2.665550   5 C  py        
   103     -2.614311   6 H  s               146      2.502325   9 F  s         
 
 Vector   45  Occ=0.000000D+00  E= 2.393886D-01  Symmetry=a'
              MO Center= -6.9D-01,  1.3D+00, -1.4D-14, r^2= 1.4D+01
   Bfn.  Coefficient  Atom+Function         Bfn.  Coefficient  Atom+Function  
  ----- ------------  ---------------      ----- ------------  ---------------
    82     24.423589   5 C  s                35     13.214250   2 C  py        
    50    -10.112080   3 C  s                27     -7.687673   2 C  s         
    57      3.988097   3 C  px               90      3.785259   5 C  py        
    12     -3.313578   1 O  py              103      2.850662   6 H  s         
   146     -2.740114   9 F  s               169     -2.740114  10 F  s         
 
 Vector   46  Occ=0.000000D+00  E= 2.519181D-01  Symmetry=a"
              MO Center= -3.9D-01, -2.1D-01,  9.9D-15, r^2= 1.2D+01
   Bfn.  Coefficient  Atom+Function         Bfn.  Coefficient  Atom+Function  
  ----- ------------  ---------------      ----- ------------  ---------------
    36      3.059634   2 C  pz               13     -1.724133   1 O  pz        
    59     -1.631572   3 C  pz              146     -1.341606   9 F  s         
   169      1.341606  10 F  s               155     -1.297058   9 F  pz        
   178     -1.297058  10 F  pz               88     -0.909298   5 C  pz        
   153     -0.780292   9 F  px              176      0.780292  10 F  px        
 
 Vector   47  Occ=0.000000D+00  E= 2.665866D-01  Symmetry=a'
              MO Center= -1.1D-01, -3.5D-02, -4.1D-13, r^2= 1.4D+01
   Bfn.  Coefficient  Atom+Function         Bfn.  Coefficient  Atom+Function  
  ----- ------------  ---------------      ----- ------------  ---------------
    50     24.579506   3 C  s                82    -24.044950   5 C  s         
    35    -11.750854   2 C  py               27     -8.972902   2 C  s         
    34     -8.937823   2 C  px                4      5.483902   1 O  s         
    90     -4.488844   5 C  py               57     -3.954000   3 C  px        
    11      3.309391   1 O  px              123      3.133662   8 F  s         
 
 Vector   48  Occ=0.000000D+00  E= 2.843111D-01  Symmetry=a"
              MO Center= -6.1D-01,  3.5D-01,  7.6D-14, r^2= 1.2D+01
   Bfn.  Coefficient  Atom+Function         Bfn.  Coefficient  Atom+Function  
  ----- ------------  ---------------      ----- ------------  ---------------
    36      2.673279   2 C  pz               13     -2.334179   1 O  pz        
   132     -0.828247   8 F  pz               59     -0.804673   3 C  pz        
    45      0.707926   2 C  d  1             91     -0.669661   5 C  pz        
   100     -0.601941   5 C  d  1             56      0.575173   3 C  pz        
   153      0.554533   9 F  px              176     -0.554533  10 F  px        
 
 Vector   49  Occ=0.000000D+00  E= 2.859236D-01  Symmetry=a'
              MO Center=  6.9D-02,  3.2D-01, -8.8D-15, r^2= 1.2D+01
   Bfn.  Coefficient  Atom+Function         Bfn.  Coefficient  Atom+Function  
  ----- ------------  ---------------      ----- ------------  ---------------
    27     27.257230   2 C  s                82    -19.922442   5 C  s         
    50     -8.949560   3 C  s                35     -8.425649   2 C  py        
    90     -3.103142   5 C  py               57      2.442310   3 C  px        
    12      2.398855   1 O  py               71     -1.957179   4 H  s         
    58      1.854039   3 C  py               89     -1.785234   5 C  px        
 
 Vector   50  Occ=0.000000D+00  E= 3.091677D-01  Symmetry=a"
              MO Center=  8.0D-03,  3.5D-01,  6.6D-16, r^2= 1.0D+01
   Bfn.  Coefficient  Atom+Function         Bfn.  Coefficient  Atom+Function  
  ----- ------------  ---------------      ----- ------------  ---------------
    36      1.382832   2 C  pz               13     -0.905373   1 O  pz        
   154      0.846150   9 F  py              177     -0.846150  10 F  py        
   119      0.761837   7 H  pz              110     -0.754720   6 H  pz        
   153     -0.589202   9 F  px              176      0.589202  10 F  px        
    59     -0.557940   3 C  pz               98      0.528047   5 C  d -1      
 
 Vector   51  Occ=0.000000D+00  E= 3.100150D-01  Symmetry=a'
              MO Center=  7.4D-01,  6.7D-01,  5.2D-15, r^2= 1.2D+01
   Bfn.  Coefficient  Atom+Function         Bfn.  Coefficient  Atom+Function  
  ----- ------------  ---------------      ----- ------------  ---------------
    27     11.982186   2 C  s                50    -11.822937   3 C  s         
    35      7.076600   2 C  py                4     -5.186573   1 O  s         
   112      3.213283   7 H  s                57      2.948904   3 C  px        
    58     -2.269482   3 C  py               26     -2.217840   2 C  s         
    11     -2.200766   1 O  px               49      1.963129   3 C  s         
 
 Vector   52  Occ=0.000000D+00  E= 3.156505D-01  Symmetry=a'
              MO Center= -8.2D-01,  1.1D+00,  1.2D-15, r^2= 1.1D+01
   Bfn.  Coefficient  Atom+Function         Bfn.  Coefficient  Atom+Function  
  ----- ------------  ---------------      ----- ------------  ---------------
    27     22.857352   2 C  s                50    -12.673562   3 C  s         
    82     -9.537813   5 C  s                34      4.472426   2 C  px        
    58      3.989238   3 C  py               72      3.209926   4 H  s         
     4     -3.134225   1 O  s                71      3.134785   4 H  s         
    35     -3.110989   2 C  py               57      2.998817   3 C  px        
 
 Vector   53  Occ=0.000000D+00  E= 3.298387D-01  Symmetry=a'
              MO Center=  4.3D-01,  3.4D-01,  1.5D-15, r^2= 1.2D+01
   Bfn.  Coefficient  Atom+Function         Bfn.  Coefficient  Atom+Function  
  ----- ------------  ---------------      ----- ------------  ---------------
    27     34.099012   2 C  s                50    -23.667561   3 C  s         
    34     10.294401   2 C  px               82     -9.623697   5 C  s         
    58      7.679805   3 C  py              113     -5.136983   7 H  s         
    49      2.865934   3 C  s               103      2.877414   6 H  s         
    11     -2.478069   1 O  px               72      2.464092   4 H  s         
 
 Vector   54  Occ=0.000000D+00  E= 3.618682D-01  Symmetry=a"
              MO Center=  2.2D-01, -6.3D-01,  2.3D-14, r^2= 1.0D+01
   Bfn.  Coefficient  Atom+Function         Bfn.  Coefficient  Atom+Function  
  ----- ------------  ---------------      ----- ------------  ---------------
    36      4.187280   2 C  pz               91     -4.131976   5 C  pz        
   132      1.585109   8 F  pz               59     -1.295471   3 C  pz        
   154      1.124897   9 F  py              177     -1.124897  10 F  py        
    13     -0.977844   1 O  pz              155      0.854857   9 F  pz        
   178      0.854857  10 F  pz               98      0.646332   5 C  d -1      
 
 Vector   55  Occ=0.000000D+00  E= 3.662922D-01  Symmetry=a'
              MO Center=  3.8D-01,  1.5D-01,  4.2D-13, r^2= 1.1D+01
   Bfn.  Coefficient  Atom+Function         Bfn.  Coefficient  Atom+Function  
  ----- ------------  ---------------      ----- ------------  ---------------
    27     20.395737   2 C  s                50    -10.524489   3 C  s         
     4     -7.292494   1 O  s                82     -5.124639   5 C  s         
    34      4.734351   2 C  px               81      3.245546   5 C  s         
    57      3.093786   3 C  px               71      3.007975   4 H  s         
    11     -2.764451   1 O  px               89     -2.637726   5 C  px        
 
 Vector   56  Occ=0.000000D+00  E= 3.735242D-01  Symmetry=a'
              MO Center= -2.6D-01, -3.7D-01,  1.2D-13, r^2= 1.1D+01
   Bfn.  Coefficient  Atom+Function         Bfn.  Coefficient  Atom+Function  
  ----- ------------  ---------------      ----- ------------  ---------------
    27     10.678290   2 C  s                50     -7.449070   3 C  s         
    35      6.821844   2 C  py               57      4.102715   3 C  px        
   104     -3.817383   6 H  s                58     -3.445962   3 C  py        
   103     -3.270626   6 H  s                90     -2.547834   5 C  py        
   112      2.364620   7 H  s                12     -2.268097   1 O  py        
 
 Vector   57  Occ=0.000000D+00  E= 3.750373D-01  Symmetry=a"
              MO Center= -3.7D-01, -6.4D-01, -2.1D-13, r^2= 1.1D+01
   Bfn.  Coefficient  Atom+Function         Bfn.  Coefficient  Atom+Function  
  ----- ------------  ---------------      ----- ------------  ---------------
   155      2.082533   9 F  pz              178      2.082533  10 F  pz        
    91     -1.763915   5 C  pz               36     -1.313655   2 C  pz        
   154     -0.739313   9 F  py              177      0.739313  10 F  py        
    59      0.666926   3 C  pz              132      0.645792   8 F  pz        
   119      0.600949   7 H  pz              153     -0.575950   9 F  px        
 
 Vector   58  Occ=0.000000D+00  E= 3.846594D-01  Symmetry=a'
              MO Center=  2.6D-01,  8.7D-02,  8.6D-15, r^2= 1.1D+01
   Bfn.  Coefficient  Atom+Function         Bfn.  Coefficient  Atom+Function  
  ----- ------------  ---------------      ----- ------------  ---------------
    50     11.818331   3 C  s                34     -8.724071   2 C  px        
   103     -5.502650   6 H  s                27     -3.886489   2 C  s         
    31      3.731264   2 C  px               82     -3.563519   5 C  s         
    89      3.132573   5 C  px               35     -2.904932   2 C  py        
     4     -2.612510   1 O  s                46      2.411500   2 C  d  2      
 
 Vector   59  Occ=0.000000D+00  E= 3.951549D-01  Symmetry=a"
              MO Center=  5.9D-01, -2.3D-01,  2.0D-13, r^2= 1.0D+01
   Bfn.  Coefficient  Atom+Function         Bfn.  Coefficient  Atom+Function  
  ----- ------------  ---------------      ----- ------------  ---------------
   132      2.025352   8 F  pz               36      1.573607   2 C  pz        
   146      1.394915   9 F  s               169     -1.394915  10 F  s         
   153      1.331963   9 F  px              176     -1.331963  10 F  px        
    13     -1.192404   1 O  pz               91     -1.092259   5 C  pz        
   119      0.842208   7 H  pz               59     -0.670431   3 C  pz        
 
 Vector   60  Occ=0.000000D+00  E= 3.990572D-01  Symmetry=a'
              MO Center=  4.1D-01,  7.4D-02, -8.7D-15, r^2= 9.7D+00
   Bfn.  Coefficient  Atom+Function         Bfn.  Coefficient  Atom+Function  
  ----- ------------  ---------------      ----- ------------  ---------------
    89      4.201020   5 C  px               58      4.051444   3 C  py        
    26      3.704654   2 C  s               112     -3.558184   7 H  s         
    82      2.957502   5 C  s                54      2.828825   3 C  px        
    34     -2.541098   2 C  px              113     -2.549052   7 H  s         
    35     -2.368309   2 C  py               32      2.300461   2 C  py        
 
 Vector   61  Occ=0.000000D+00  E= 4.113096D-01  Symmetry=a'
              MO Center=  2.0D-01, -6.4D-01, -4.4D-15, r^2= 1.1D+01
   Bfn.  Coefficient  Atom+Function         Bfn.  Coefficient  Atom+Function  
  ----- ------------  ---------------      ----- ------------  ---------------
    82     19.240824   5 C  s                27    -10.981497   2 C  s         
    35     10.584686   2 C  py               26      2.831150   2 C  s         
    12     -2.390510   1 O  py              130      2.210596   8 F  px        
    71      1.976933   4 H  s               131      1.937066   8 F  py        
   123     -1.915956   8 F  s                50     -1.849928   3 C  s         
 
 Vector   62  Occ=0.000000D+00  E= 4.268521D-01  Symmetry=a'
              MO Center=  2.7D-01, -4.2D-01,  1.5D-14, r^2= 7.7D+00
   Bfn.  Coefficient  Atom+Function         Bfn.  Coefficient  Atom+Function  
  ----- ------------  ---------------      ----- ------------  ---------------
    50     19.028621   3 C  s                27    -17.183652   2 C  s         
    82    -12.409750   5 C  s                35     -7.479427   2 C  py        
    34     -5.835743   2 C  px                4      5.272185   1 O  s         
    57     -5.043747   3 C  px              123      3.806730   8 F  s         
    32      3.381851   2 C  py               87      3.101160   5 C  py        
 
 Vector   63  Occ=0.000000D+00  E= 4.320034D-01  Symmetry=a'
              MO Center= -2.6D-01, -1.7D-02,  1.9D-14, r^2= 1.1D+01
   Bfn.  Coefficient  Atom+Function         Bfn.  Coefficient  Atom+Function  
  ----- ------------  ---------------      ----- ------------  ---------------
    50      8.629377   3 C  s                27     -7.321294   2 C  s         
    32      6.121276   2 C  py              112     -4.917034   7 H  s         
    81      4.594304   5 C  s                87      4.502380   5 C  py        
     4     -4.463560   1 O  s                55      4.114867   3 C  py        
    34     -3.897809   2 C  px               31      2.893253   2 C  px        
 
 Vector   64  Occ=0.000000D+00  E= 4.330288D-01  Symmetry=a"
              MO Center=  2.4D-01,  2.9D-01,  5.0D-14, r^2= 8.5D+00
   Bfn.  Coefficient  Atom+Function         Bfn.  Coefficient  Atom+Function  
  ----- ------------  ---------------      ----- ------------  ---------------
   146      2.956309   9 F  s               169     -2.956309  10 F  s         
   155      2.471646   9 F  pz              178      2.471646  10 F  pz        
    91     -2.305172   5 C  pz              119     -1.200118   7 H  pz        
   132      0.986413   8 F  pz               59      0.698229   3 C  pz        
   100      0.604372   5 C  d  1             98     -0.560348   5 C  d -1      
 
 Vector   65  Occ=0.000000D+00  E= 4.395148D-01  Symmetry=a"
              MO Center= -3.3D-01,  1.0D+00, -4.3D-15, r^2= 8.9D+00
   Bfn.  Coefficient  Atom+Function         Bfn.  Coefficient  Atom+Function  
  ----- ------------  ---------------      ----- ------------  ---------------
   146      1.812940   9 F  s               169     -1.812940  10 F  s         
    78      1.460060   4 H  pz               91      1.320730   5 C  pz        
    13     -1.032685   1 O  pz               88      1.017305   5 C  pz        
   110      0.875104   6 H  pz               56     -0.474462   3 C  pz        
   132     -0.466228   8 F  pz              154     -0.439266   9 F  py        
 
 Vector   66  Occ=0.000000D+00  E= 4.541822D-01  Symmetry=a'
              MO Center= -1.8D-02,  8.6D-01,  2.9D-14, r^2= 1.0D+01
   Bfn.  Coefficient  Atom+Function         Bfn.  Coefficient  Atom+Function  
  ----- ------------  ---------------      ----- ------------  ---------------
    27     37.604015   2 C  s                50    -18.223468   3 C  s         
     4    -14.687654   1 O  s                82    -11.749372   5 C  s         
    71      4.786709   4 H  s                11     -3.528157   1 O  px        
    54     -3.257252   3 C  px               31     -3.146408   2 C  px        
    58      3.097768   3 C  py              103      2.582154   6 H  s         
 
 Vector   67  Occ=0.000000D+00  E= 4.921936D-01  Symmetry=a'
              MO Center=  5.9D-02,  3.6D-01,  5.6D-15, r^2= 7.4D+00
   Bfn.  Coefficient  Atom+Function         Bfn.  Coefficient  Atom+Function  
  ----- ------------  ---------------      ----- ------------  ---------------
    27     10.827311   2 C  s                50     -8.859797   3 C  s         
     4     -5.390069   1 O  s               103      4.232804   6 H  s         
    54     -3.447861   3 C  px               12     -2.870655   1 O  py        
    58      2.846322   3 C  py               32     -2.821858   2 C  py        
    31     -2.679989   2 C  px               49      2.638981   3 C  s         
 
 Vector   68  Occ=0.000000D+00  E= 4.983473D-01  Symmetry=a"
              MO Center=  7.6D-01,  1.3D+00, -2.6D-12, r^2= 8.9D+00
   Bfn.  Coefficient  Atom+Function         Bfn.  Coefficient  Atom+Function  
  ----- ------------  ---------------      ----- ------------  ---------------
   146      3.166985   9 F  s               169     -3.166985  10 F  s         
    56     -1.871328   3 C  pz               88      1.714287   5 C  pz        
    59     -1.288101   3 C  pz               36      1.278161   2 C  pz        
   110      1.142720   6 H  pz              119      1.093101   7 H  pz        
   155      1.085810   9 F  pz              178      1.085810  10 F  pz        
 
 Vector   69  Occ=0.000000D+00  E= 5.060071D-01  Symmetry=a'
              MO Center=  5.7D-01,  1.3D+00, -9.4D-15, r^2= 8.9D+00
   Bfn.  Coefficient  Atom+Function         Bfn.  Coefficient  Atom+Function  
  ----- ------------  ---------------      ----- ------------  ---------------
    82      9.311569   5 C  s                27     -5.856868   2 C  s         
   123     -4.307906   8 F  s                 4     -3.627925   1 O  s         
    35      3.414633   2 C  py               31     -3.167822   2 C  px        
   103      2.258589   6 H  s                86      2.241232   5 C  px        
    34     -1.978872   2 C  px               49      1.917235   3 C  s         
 

 center of mass
 --------------
 x =  -0.04165005 y =  -0.15618233 z =   0.00000000

 moments of inertia (a.u.)
 ------------------
         716.373611244335           0.000000000000           0.000000000000
           0.000000000000         493.027649200382           0.000000000000
           0.000000000000           0.000000000000         881.853131170218
 
  Mulliken analysis of the total density
  --------------------------------------

    Atom       Charge   Shell Charges
 -----------   ------   -------------------------------------------------------
    1 O    8     8.85   2.00  0.82  1.04  0.25  2.83  1.78  0.09  0.02  0.02
    2 C    6     5.50   2.01  0.66  0.45 -0.09  1.96  0.25  0.16  0.16 -0.05
    3 C    6     5.52   2.01  0.64  0.66 -0.16  2.00  0.41  0.03  0.05 -0.13
    4 H    1     0.78   0.69  0.01  0.00  0.07  0.00
    5 C    6     3.80   2.01  0.68 -0.25 -0.23  1.72 -0.27 -0.01  0.30 -0.15
    6 H    1     1.28   0.76  0.49  0.02  0.03 -0.02
    7 H    1     1.33   0.76  0.56  0.01  0.03 -0.04
    8 F    9     9.68   2.00  0.89  1.10  0.17  3.31  2.08  0.10  0.01  0.02
    9 F    9     9.63   2.00  0.89  1.09  0.15  3.31  2.07  0.09  0.01  0.02
   10 F    9     9.63   2.00  0.89  1.09  0.15  3.31  2.07  0.09  0.01  0.02
 
       Multipole analysis of the density wrt the origin
       ------------------------------------------------
 
     L   x y z        total         open         nuclear
     -   - - -        -----         ----         -------
     0   0 0 0     -0.000000      0.000000     56.000000
 
     1   1 0 0      0.379686      0.000000      0.000000
     1   0 1 0      1.242990      0.000000      0.000000
     1   0 0 1      0.000000      0.000000      0.000000
 
     2   2 0 0    -29.624871      0.000000    172.944865
     2   1 1 0     -0.114187      0.000000      5.706556
     2   1 0 1      0.000000      0.000000      0.000000
     2   0 2 0    -23.327048      0.000000    296.441053
     2   0 1 1      0.000000      0.000000      0.000000
     2   0 0 2    -30.941966      0.000000     77.583722
 
                   NWChem MP2 Semi-direct Energy/Gradient Module
                   ---------------------------------------------
 
 
                                  MeF,H,MeF Ref 1
 
 

int_init: setting std/high accuracies to  1.0D-16  1.0D-32
  Basis functions       =    188
  Molecular orbitals    =    188
  Frozen core           =      7
  Frozen virtuals       =      0
  Active alpha occupied =     21
  Active beta occupied  =     21
  Active alpha virtual  =    160
  Active beta virtual   =    160
  Use MO symmetry       = T
  Use skeleton AO sym   = T

  AO/Fock/Back tols     =   1.0D-15  1.0D-15  1.0D-15

 GA uses MA = F    GA memory limited = T

 Available: 
  local mem=  2.29D+07
 global mem=  2.62D+07
 local disk=  0.00D+00

int_init: setting std/high accuracies to  1.0D-16  1.0D-32
  mp2_memr nvloc                     15
  nvloc new                     15
   1 passes of  21:        5242880                     233440                  22597898.
   1 passes of  21: M     22931121           G       26195988           F      17688241.

int_init: setting std/high accuracies to  1.0D-16  1.0D-32
  mp2_memr nvloc                     15
  nvloc new                     15
   2 passes of  11:        5242880                     233440                  11851378.
   2 passes of  11: M     22931121           G       26195988           F      17688241.
 
 Semi-direct pass number   1 of   2  for RHF alpha+beta  at       50.1s

int_init: setting std/high accuracies to  1.0D-16  1.0D-32
  vrange nnbf                  17756
  mp2_eaftype                     38  avail_ma_in_mb                    199
 EAF : mp2_eaftype filesize          38    5010764.
  mp2_eaf for mointskh                      38
Node 0 wrote     23.4 Mb in      0.1 s     Agg I/O rate:  4282.7 Mb/s
 Done moints_semi at       57.0s
  mp2_eaftype                     38  avail_ma_in_mb                    161
 EAF : mp2_eaftype filesize          38    5010764.
  mp2_eaf for kh                     38
  mp2_eaftype                     10  avail_ma_in_mb                    161
 EAF : mp2_eaftype filesize          10    1108800.
  mp2_eaf for ta tb                     10
  mp2_eaf for ta                      10
  mp2_eaf for tb                      10
 Done maket at       57.3s
 Done pijab at       57.3s
 Done wijab at       57.3s
 Done lai at       58.2s

int_init: setting std/high accuracies to  1.0D-16  1.0D-32
  mp2_eaftype                     35  avail_ma_in_mb                    140
 EAF : mp2_eaftype filesize          35    4615983.
  mp2_eaf for 2pdm                      35
 Done nonsep at       77.8s
 Semi-direct pass number   2 of   2  for RHF alpha+beta  at       77.8s

int_init: setting std/high accuracies to  1.0D-16  1.0D-32
  vrange nnbf                  17756
  mp2_eaftype                     38  avail_ma_in_mb                    199
 EAF : mp2_eaftype filesize          38    5010764.
  mp2_eaf for mointskh                      38
Node 0 wrote     21.3 Mb in      0.1 s     Agg I/O rate:  4304.5 Mb/s
 Done moints_semi at       84.6s
  mp2_eaftype                     38  avail_ma_in_mb                    161
 EAF : mp2_eaftype filesize          38    5010764.
  mp2_eaf for kh                     38
  mp2_eaftype                     10  avail_ma_in_mb                    161
 EAF : mp2_eaftype filesize          10    1108800.
  mp2_eaf for ta tb                     10
  mp2_eaf for ta                      10
  mp2_eaf for tb                      10
 Done maket at       84.9s
 Done pijab at       84.9s
 Done wijab at       84.9s
 Done lai at       85.7s

int_init: setting std/high accuracies to  1.0D-16  1.0D-32
  mp2_eaftype                     35  avail_ma_in_mb                    140
 EAF : mp2_eaftype filesize          35    4615983.
  mp2_eaf for 2pdm                      35
 Done nonsep at      105.1s
 Done multipass loop at      105.1s


          -------------------------------------------
          SCF energy                -488.569066346450
          Correlation energy          -1.215733357600
          Singlet pairs               -0.721355817171
          Triplet pairs               -0.494377540429
          Total MP2 energy          -489.784799704050
          -------------------------------------------



          ---------------------------------------------------
                    Spin Component Scaled (SCS) MP2
          Same spin pairs                     -0.329585026953
          Same spin scaling factor             0.333333333333
          Opposite spin pairs                 -0.886148330647
          Opposite spin scaling fact.          1.200000000000
          SCS-MP2 correlation energy          -1.173239672427
          Total SCS-MP2 energy              -489.742306018877
          ---------------------------------------------------


int_init: setting std/high accuracies to  1.0D-16  1.0D-32
                                NWChem CPHF Module
                                ------------------
 
 

int_init: setting std/high accuracies to  1.0D-16  1.0D-32
    scftype = RHF 
    nclosed =   28
      nopen =    0
  variables =     4480
  tolerance =   1.0D-06
  max. iter =  999

 Warning: symmetry breaking in RHF:   9.571687192844180E-012
 SCF residual:   6.684608022355103E-011

            ----- linear solve (tol: 1.0E-06 prod-acc: 3.3E-14) -----

               iter nbas    rnorm     rnorm-scal   ratio     time
               ---- ---- ----------- ----------- --------- -------
                  1    1  8.9175E-02  4.0876E-01    0.0000   110.7
                  2    2  1.5452E-02  7.0829E-02    0.1733   112.5
                  3    3  4.0822E-03  1.8712E-02    0.2642   114.4
                  4    4  1.4576E-03  6.6813E-03    0.3571   116.3
                  5    5  3.7918E-04  1.7381E-03    0.2601   118.1
                  6    6  1.0818E-04  4.9589E-04    0.2853   119.9
                  7    7  3.3685E-05  1.5440E-04    0.3114   121.7
                  8    8  1.1976E-05  5.4895E-05    0.3555   123.5
                  9    9  3.2725E-06  1.5001E-05    0.2733   125.3
                 10   10  1.0176E-06  4.6643E-06    0.3109   127.0
                 11   11  3.9936E-07  1.8306E-06    0.3925   128.7
                 12   12  1.5162E-07  6.9501E-07    0.3797   130.4

 CPHF converged to   7.0D-07 in   12 iters


int_init: setting std/high accuracies to  1.0D-16  1.0D-32
                Dipole Moments (a.u.)
                --------------
         Nuclear       SCF       SCF+MP2
       ----------- ----------- -----------
 X       0.000000    0.379686    0.312030
 Y       0.000000    1.242990    1.150899
 Z       0.000000    0.000000    0.000000
 

 MP2 RHF      natural orbital occupation numbers


              1      
    1    2.0000
    2    2.0000
    3    2.0000
    4    2.0000
    5    2.0000
    6    2.0000
    7    2.0000
    8    1.9901
    9    1.9890
   10    1.9890
   11    1.9862
   12    1.9811
   13    1.9766
   14    1.9751
   15    1.9750
   16    1.9737
   17    1.9730
   18    1.9726
   19    1.9697
   20    1.9680
   21    1.9661
   22    1.9661
   23    1.9626
   24    1.9593
   25    1.9590
   26    1.9568
   27    1.9566
   28    1.9302
   29    0.0546
   30    0.0378
   31    0.0349
   32    0.0320
   33    0.0290
   34    0.0261
   35    0.0243
   36    0.0206
   37    0.0180
   38    0.0177
   39    0.0160
   40    0.0160
   41    0.0158
   42    0.0148
   43    0.0145
   44    0.0137
   45    0.0121
   46    0.0114
   47    0.0098
   48    0.0098
   49    0.0088
   50    0.0087
   51    0.0087
   52    0.0077
   53    0.0076
   54    0.0074
   55    0.0062
   56    0.0060
   57    0.0058
   58    0.0057
   59    0.0056
   60    0.0056
   61    0.0053
   62    0.0051
   63    0.0051
   64    0.0051
   65    0.0048
   66    0.0047
   67    0.0047
   68    0.0045
   69    0.0044
   70    0.0044
   71    0.0043
   72    0.0041
   73    0.0041
   74    0.0041
   75    0.0035
   76    0.0027
   77    0.0026
   78    0.0023
   79    0.0020
   80    0.0017
   81    0.0017
   82    0.0016
   83    0.0015
   84    0.0015
   85    0.0014
   86    0.0014
   87    0.0011
   88    0.0011
   89    0.0010
   90    0.0010
   91    0.0010
   92    0.0010
   93    0.0009
   94    0.0008
   95    0.0007
   96    0.0007
   97    0.0006
   98    0.0006
   99    0.0006
  100    0.0006
  101    0.0006
  102    0.0005
  103    0.0005
  104    0.0005
  105    0.0005
  106    0.0004
  107    0.0004
  108    0.0004
  109    0.0004
  110    0.0004
  111    0.0004
  112    0.0004
  113    0.0003
  114    0.0003
  115    0.0003
  116    0.0003
  117    0.0003
  118    0.0003
  119    0.0003
  120    0.0003
  121    0.0003
  122    0.0003
  123    0.0003
  124    0.0002
  125    0.0002
  126    0.0002
  127    0.0002
  128    0.0002
  129    0.0002
  130    0.0002
  131    0.0001
  132    0.0001
  133    0.0001
  134    0.0001
  135    0.0001
  136    0.0001
  137    0.0001
  138    0.0001
  139    0.0001
  140    0.0001
  141    0.0001
  142    0.0001
  143    0.0001
  144    0.0001
  145    0.0001
  146    0.0001
  147    0.0001
  148    0.0001
  149    0.0001
  150    0.0000
  151    0.0000
  152    0.0000
  153    0.0000
  154    0.0000
  155    0.0000
  156    0.0000
  157    0.0000
  158    0.0000
  159    0.0000
  160    0.0000
  161    0.0000
  162    0.0000
  163    0.0000
  164    0.0000
  165    0.0000
  166    0.0000
  167    0.0000
  168    0.0000
  169    0.0000
  170    0.0000
  171    0.0000
  172    0.0000
  173    0.0000
  174    0.0000
  175    0.0000
  176   -0.0000
  177   -0.0000
  178   -0.0000
  179   -0.0000
  180   -0.0000
  181   -0.0000
  182   -0.0000
  183   -0.0001
  184   -0.0001
  185   -0.0001
  186   -0.0002
  187   -0.0002
  188   -0.0002
 
  MP2 natural orbitals output to ./7R1.mp2nos
 

int_init: setting std/high accuracies to  1.0D-16  1.0D-32
  Using symmetry

int_init: setting std/high accuracies to  1.0D-16  1.0D-32


                         mp2 ENERGY GRADIENTS

    atom               coordinates                        gradient
                 x          y          z           x          y          z
   1 O      -2.161879   2.747607   0.000000    0.025147  -0.033356   0.000000
   2 C       0.103093   1.662590   0.000000   -0.044438  -0.013767   0.000000
   3 C       2.335875   2.946685   0.000000    0.018280   0.002831   0.000000
   4 H      -1.829362   4.596329   0.000000    0.010698   0.020532   0.000000
   5 C      -0.024029  -1.140772   0.000000   -0.002699  -0.007421   0.000000
   6 H       4.098360   1.925156   0.000000   -0.007215  -0.000323   0.000000
   7 H       2.252397   5.021815   0.000000   -0.005473   0.003937   0.000000
   8 F       2.331262  -2.121010   0.000000    0.000531   0.010023   0.000000
   9 F      -1.260964  -1.958116  -2.076104    0.002584   0.008772   0.001514
  10 F      -1.260964  -1.958116   2.076104    0.002584   0.008772  -0.001514
 
                 ----------------------------------------
                 |  Time  |  1-e(secs)   |  2-e(secs)   |
                 ----------------------------------------
                 |  CPU   |       0.01   |       8.16   |
                 ----------------------------------------
                 |  WALL  |       0.01   |       8.19   |
                 ----------------------------------------
 -----------------------
 Performance information
 -----------------------

 Timer overhead =  0.00D+00 seconds/call

               Nr. of calls         CPU time (s)                 Wall time (s)                GFlops
             ---------------    -------------------     ------------------------------   -------------------
Name         Min   Avg   Max    Min     Avg     Max     Min     Avg     Max   Mx/calls   Min     Max     Sum
mp2: moin     2     2     2    13.     13.     13.      14.     14.     14.     6.9      0.0     0.0     0.0   
mp2: make     2     2     2   0.41    0.43    0.44     0.45    0.45    0.45    0.23      0.0     0.0     0.0   
mp2: pija     2     2     2   3.70E-2 3.87E-2 4.10E-2  3.95E-2 3.96E-2 3.98E-2 1.99E-2   0.0     0.0     0.0   
mp2: wija     2     2     2   4.00E-2 4.22E-2 4.30E-2  4.24E-2 4.26E-2 4.26E-2 2.13E-2   0.0     0.0     0.0   
mp2: lai      2     2     2    1.6     1.6     1.6      1.6     1.6     1.6    0.82      0.0     0.0     0.0   
mp2: back     2     2     2   0.87    0.88    0.89     0.89    0.89    0.89    0.45      0.0     0.0     0.0   
mp2: nons     2     2     2    33.     35.     38.      33.     35.     38.     19.      0.0     0.0     0.0   
mp2: laif     1     1     1    3.0     3.0     3.0      3.0     3.0     3.0     3.0      0.0     0.0     0.0   
mp2: cphf     1     1     1    24.     24.     24.      24.     24.     24.     24.      0.0     0.0     0.0   
mp2: wijf     1     1     1    3.0     3.0     3.0      3.0     3.0     3.0     3.0      0.0     0.0     0.0   
mp2: sep      1     1     1    8.2     8.5     8.5      8.6     8.6     8.6     8.6      0.0     0.0     0.0   
[...]
          13     0.00000     0.00000    -0.03891     0.00000     0.00078     0.00446
          14    -0.00000    -0.00000    -0.00199     0.00000    -0.02812    -0.00245
          15     0.00257    -0.06400     0.00000    -0.00590     0.00000     0.00000
          16     0.00000    -0.00000    -0.02973     0.00000     0.06072    -0.09477
          17    -0.00000    -0.00000    -0.15982    -0.00000     0.32305    -0.11150
          18    -0.24281     0.00705    -0.00000    -0.08042     0.00000    -0.00000
          19     0.00000    -0.00000     0.10101     0.00000    -0.24202     0.02919
          20    -0.00000    -0.00000    -0.09277     0.00000     0.15835    -0.04387
          21    -0.16913     0.23837     0.00000     0.11584     0.00000     0.00000
          22    -0.00000     0.00000     0.02151     0.00000    -0.01538    -0.03811
          23    -0.00000    -0.00000     0.11567     0.00000    -0.06920    -0.10018
          24     0.07503    -0.02631     0.00000    -0.02379     0.00000     0.00000
          25     0.06769     0.00927     0.00086     0.00624    -0.01126     0.08419
          26     0.00180    -0.12883    -0.08096    -0.01817    -0.06373     0.01890
          27    -0.04226    -0.01575     0.00865    -0.00235     0.01983    -0.05774
          28    -0.06769    -0.00927     0.00086    -0.00624    -0.01126     0.08419
          29    -0.00180     0.12883    -0.08096     0.01817    -0.06373     0.01890
          30    -0.04226    -0.01575    -0.00865    -0.00235    -0.01983     0.05774

                   13          14          15          16          17          18
 
 P.Frequency      488.44      567.90      598.55      679.08      722.74      775.99
 
           1     0.00000    -0.07733    -0.03239     0.00000    -0.00000    -0.04743
           2    -0.00000     0.03577    -0.04218     0.00000     0.00000     0.01848
           3    -0.02665     0.00000     0.00000    -0.02594     0.05836    -0.00000
           4     0.00000    -0.03128     0.04125    -0.00000    -0.00000     0.01560
           5     0.00000     0.07134     0.11092     0.00000    -0.00000     0.05763
           6     0.10167    -0.00000    -0.00000     0.21460    -0.08370    -0.00000
           7     0.00000     0.01505     0.10367     0.00000    -0.00000     0.05917
           8     0.00000    -0.00578     0.06008    -0.00000    -0.00000     0.05458
           9    -0.02112    -0.00000     0.00000    -0.01876     0.01416    -0.00000
          10    -0.00000    -0.10957    -0.23987     0.00000     0.00000    -0.12313
          11    -0.00000     0.03948    -0.02718     0.00000     0.00000     0.02508
          12     0.05663    -0.00000    -0.00000    -0.02014    -0.07891     0.00000
          13    -0.00000     0.07156    -0.03690    -0.00000    -0.00000    -0.00569
          14     0.00000     0.02730     0.05957    -0.00000    -0.00000    -0.05437
          15     0.06099    -0.00000    -0.00000    -0.04316     0.00434     0.00000
          16    -0.00000    -0.08484     0.02156    -0.00000    -0.00000     0.00167
          17    -0.00000    -0.17880    -0.08612    -0.00000    -0.00000    -0.04979
          18     0.05425     0.00000    -0.00000     0.07430     0.74285     0.00000
          19     0.00000     0.21843     0.27634     0.00000    -0.00000     0.20116
          20     0.00000    -0.01330     0.05469    -0.00000    -0.00000     0.05137
          21    -0.18527    -0.00000     0.00000    -0.31120    -0.54052    -0.00000
          22    -0.00000     0.07176    -0.11325     0.00000    -0.00000     0.10759
          23     0.00000    -0.07703     0.00486     0.00000    -0.00000    -0.02212
          24    -0.13618     0.00000     0.00000     0.03411    -0.00316     0.00000
          25     0.09606    -0.02144     0.03461    -0.05347    -0.00321    -0.05776
          26    -0.02296    -0.00182    -0.05594    -0.04863    -0.00202    -0.01569
          27     0.03658     0.10362    -0.00283    -0.04754    -0.00567    -0.09934
          28    -0.09606    -0.02144     0.03461     0.05347     0.00321    -0.05776
          29     0.02296    -0.00182    -0.05594     0.04863     0.00202    -0.01569
          30     0.03658    -0.10362     0.00283    -0.04754    -0.00567     0.09934

                   19          20          21          22          23          24
 
 P.Frequency      855.63      967.29     1123.10     1148.60     1179.71     1258.34
 
           1     0.00000    -0.11318    -0.09997    -0.00000     0.01555     0.04278
           2    -0.00000     0.03837     0.01897     0.00000    -0.00014     0.04316
           3    -0.00204    -0.00000    -0.00000    -0.00069     0.00000     0.00000
           4    -0.00000     0.03574     0.04561    -0.00000     0.01396     0.00691
           5    -0.00000    -0.02309    -0.10013     0.00000    -0.01314    -0.00149
           6     0.04689    -0.00000     0.00000    -0.02467     0.00000     0.00000
           7     0.00000     0.11693     0.03500     0.00000     0.00470    -0.01776
           8     0.00000    -0.07028     0.08064    -0.00000     0.03175    -0.00010
           9    -0.14295     0.00000    -0.00000     0.00089     0.00000     0.00000
          10    -0.00000    -0.13952     0.42087     0.00000    -0.13271    -0.68737
          11     0.00000     0.04527    -0.00886     0.00000     0.00691     0.08189
          12    -0.00805     0.00000    -0.00000     0.01051    -0.00000    -0.00000
          13     0.00000    -0.01913     0.02658     0.00000    -0.24425     0.06655
          14     0.00000    -0.00593    -0.12515     0.00000    -0.05518    -0.16587
          15    -0.00377     0.00000    -0.00000     0.25179     0.00000    -0.00000
          16     0.00000     0.40435    -0.02781    -0.00000    -0.04843    -0.03835
          17    -0.00000     0.41078    -0.04644    -0.00000    -0.05773    -0.03424
          18     0.56157    -0.00000     0.00000    -0.02814    -0.00000    -0.00000
          19    -0.00000    -0.39325     0.34880     0.00000     0.07110    -0.00031
          20     0.00000    -0.04716     0.07573    -0.00000     0.02995    -0.00573
          21     0.63800    -0.00000     0.00000     0.06642     0.00000     0.00000
          22     0.00000     0.00372    -0.04308    -0.00000     0.06114    -0.03999
          23    -0.00000    -0.00274     0.03713    -0.00000    -0.02054     0.03145
          24     0.00088    -0.00000     0.00000    -0.01595    -0.00000    -0.00000
          25    -0.00042     0.00702     0.01009    -0.03117     0.03705     0.00365
          26    -0.00074     0.00573     0.01859    -0.02518     0.02243     0.01788
          27     0.00035     0.00964     0.01744    -0.06504     0.03520     0.01234
          28     0.00042     0.00702     0.01009     0.03117     0.03705     0.00365
          29     0.00074     0.00573     0.01859     0.02518     0.02243     0.01788
          30     0.00035    -0.00964    -0.01744    -0.06504    -0.03520    -0.01234

                   25          26          27          28          29          30
 
 P.Frequency     1419.21     1469.36     1719.47     3207.57     3329.49     3803.11
 
           1     0.04608    -0.00476     0.03348     0.00004    -0.00081    -0.00185
           2    -0.03317     0.03632     0.00353    -0.00015     0.00008    -0.06032
           3    -0.00000     0.00000    -0.00000    -0.00000     0.00000    -0.00000
           4    -0.14374     0.04724    -0.18010     0.00799    -0.00008    -0.00128
           5     0.07415    -0.15021    -0.11947     0.00385    -0.00197    -0.00165
           6     0.00000    -0.00000    -0.00000    -0.00000    -0.00000    -0.00000
           7    -0.00070    -0.06311     0.13931    -0.04684     0.05752    -0.00063
           8    -0.03093     0.00499     0.08606    -0.04927    -0.07419     0.00087
           9    -0.00000     0.00000     0.00000    -0.00000     0.00000     0.00000
          10     0.13743    -0.33962    -0.11917    -0.00291    -0.00340     0.05239
          11    -0.03882     0.05082     0.00610     0.00338     0.00334     0.96520
          12    -0.00000     0.00000    -0.00000     0.00000    -0.00000    -0.00000
          13    -0.00293    -0.00059     0.01319    -0.00014     0.00065    -0.00010
          14    -0.06249     0.12111     0.03908     0.00016     0.00022     0.00031
          15     0.00000    -0.00000     0.00000    -0.00000    -0.00000    -0.00000
          16     0.32310     0.10293     0.00799     0.44712    -0.68858    -0.00082
          17     0.50586     0.27513    -0.18666    -0.27638     0.40170    -0.00149
          18     0.00000     0.00000    -0.00000    -0.00000    -0.00000     0.00000
          19     0.43063     0.48694    -0.11993     0.01955     0.01922     0.00133
          20    -0.02556    -0.01317     0.12014     0.81213     0.50134    -0.00365
          21     0.00000     0.00000    -0.00000     0.00000     0.00000     0.00000
          22    -0.00134     0.01051     0.00224     0.00009    -0.00027     0.00000
          23     0.00095    -0.01153    -0.00518     0.00027    -0.00022     0.00005
          24     0.00000    -0.00000    -0.00000    -0.00000    -0.00000    -0.00000
          25     0.00418    -0.00469    -0.00037    -0.00004    -0.00003     0.00001
          26     0.00787    -0.01020     0.00092    -0.00008     0.00002     0.00005
          27     0.00687    -0.00813     0.00038    -0.00007    -0.00001     0.00003
          28     0.00418    -0.00469    -0.00037    -0.00004    -0.00003     0.00001
          29     0.00787    -0.01020     0.00092    -0.00008     0.00002     0.00005
          30    -0.00687     0.00813    -0.00038     0.00007     0.00001    -0.00003



 ----------------------------------------------------------------------------
 Normal Eigenvalue ||    Projected Derivative Dipole Moments (debye/angs)
  Mode   [cm**-1]  ||      [d/dqX]             [d/dqY]           [d/dqZ]
 ------ ---------- || ------------------ ------------------ -----------------
    1       -0.000 ||       0.002              -0.001            -0.148
    2        0.000 ||      -0.085               0.025            -0.019
    3        0.000 ||       0.002              -0.001             0.186
    4        0.000 ||      -0.065               0.019             0.021
    5        0.000 ||       0.044              -0.013            -0.010
    6        0.000 ||       0.166              -0.049             0.001
    7       66.511 ||       0.000              -0.000            -0.139
    8      243.796 ||      -0.000              -0.000             0.241
    9      252.214 ||       0.072              -0.041             0.000
   10      361.841 ||       0.000               0.000            -1.514
   11      377.073 ||       0.210               0.055             0.000
   12      413.517 ||      -0.015              -0.037            -0.000
   13      488.437 ||      -0.000               0.000             0.241
   14      567.904 ||       0.075               0.383            -0.000
   15      598.547 ||      -0.213               0.777            -0.000
   16      679.075 ||       0.000              -0.000            -0.109
   17      722.742 ||      -0.000              -0.000             0.038
   18      775.989 ||       0.013               0.094             0.000
   19      855.627 ||      -0.000               0.000             1.054
   20      967.292 ||       0.447              -0.084            -0.000
   21     1123.104 ||       1.626              -1.657             0.000
   22     1148.596 ||       0.000               0.000             2.623
   23     1179.714 ||      -2.631              -0.543            -0.000
   24     1258.342 ||      -0.629              -1.164            -0.000
   25     1419.214 ||      -0.909              -0.162             0.000
   26     1469.363 ||       0.731               1.254             0.000
   27     1719.465 ||      -1.326               0.274            -0.000
   28     3207.574 ||       0.292              -0.211             0.000
   29     3329.494 ||      -0.083              -0.036            -0.000
   30     3803.111 ||      -0.619               1.080            -0.000
 ----------------------------------------------------------------------------



  
  
 ----------------------------------------------------------------------------
 Normal Eigenvalue ||           Projected Infra Red Intensities
  Mode   [cm**-1]  || [atomic units] [(debye/angs)**2] [(KM/mol)] [arbitrary]
 ------ ---------- || -------------- ----------------- ---------- -----------
    1       -0.000 ||    0.000946           0.022         0.922       0.202
    2        0.000 ||    0.000357           0.008         0.348       0.076
    3        0.000 ||    0.001503           0.035         1.465       0.321
    4        0.000 ||    0.000219           0.005         0.213       0.047
    5        0.000 ||    0.000097           0.002         0.094       0.021
    6        0.000 ||    0.001299           0.030         1.266       0.277
    7       66.511 ||    0.000840           0.019         0.819       0.179
    8      243.796 ||    0.002525           0.058         2.462       0.539
    9      252.214 ||    0.000296           0.007         0.288       0.063
   10      361.841 ||    0.099356           2.292        96.857      21.194
   11      377.073 ||    0.002044           0.047         1.993       0.436
   12      413.517 ||    0.000069           0.002         0.067       0.015
   13      488.437 ||    0.002511           0.058         2.448       0.536
   14      567.904 ||    0.006620           0.153         6.454       1.412
   15      598.547 ||    0.028152           0.649        27.444       6.005
   16      679.075 ||    0.000514           0.012         0.501       0.110
   17      722.742 ||    0.000064           0.001         0.063       0.014
   18      775.989 ||    0.000393           0.009         0.383       0.084
   19      855.627 ||    0.048151           1.111        46.940      10.271
   20      967.292 ||    0.008959           0.207         8.734       1.911
   21     1123.104 ||    0.233681           5.391       227.803      49.848
   22     1148.596 ||    0.298233           6.880       290.732      63.618
   23     1179.714 ||    0.312778           7.216       304.912      66.721
   24     1258.342 ||    0.075908           1.751        73.999      16.192
   25     1419.214 ||    0.036936           0.852        36.007       7.879
   26     1469.363 ||    0.091312           2.107        89.015      19.478
   27     1719.465 ||    0.079421           1.832        77.424      16.942
   28     3207.574 ||    0.005618           0.130         5.477       1.198
   29     3329.494 ||    0.000357           0.008         0.348       0.076
   30     3803.111 ||    0.067207           1.551        65.516      14.336
 ----------------------------------------------------------------------------



 vib:animation  F

 Task  times  cpu:     8880.9s     wall:     8960.5s
 
 
                                NWChem Input Module
                                -------------------
 
 
 Summary of allocated global arrays
-----------------------------------
  No active global arrays



                         GA Statistics for process    0
                         ------------------------------

       create   destroy   get      put      acc     scatter   gather  read&inc
calls: 5.75e+04 5.75e+04 1.40e+07 1.46e+06 4.46e+06    0        0     9.87e+04 
number of processes/call 1.92e+01 7.62e+01 3.26e+01 0.00e+00 0.00e+00
bytes total:             1.05e+10 1.74e+10 3.02e+09 0.00e+00 0.00e+00 7.89e+05
bytes remote:            5.40e+09 1.19e+10 2.12e+09 0.00e+00 0.00e+00 0.00e+00
Max memory consumed for GA by this process: 175489032 bytes
 
MA_summarize_allocated_blocks: starting scan ...
MA_summarize_allocated_blocks: scan completed: 0 heap blocks, 0 stack blocks
MA usage statistics:

	allocation statistics:
					      heap	     stack
					      ----	     -----
	current number of blocks	         0	         0
	maximum number of blocks	        25	        39
	current total bytes		         0	         0
	maximum total bytes		  75542072	  26253448
	maximum total K-bytes		     75543	     26254
	maximum total M-bytes		        76	        27
 
 
                                     CITATION
                                     --------
                Please cite the following reference when publishing
                           results obtained with NWChem:
 
          E. Apr, E. J. Bylaska, W. A. de Jong, N. Govind, K. Kowalski,
       T. P. Straatsma, M. Valiev, H. J. J. van Dam, Y. Alexeev, J. Anchell,
       V. Anisimov, F. W. Aquino, R. Atta-Fynn, J. Autschbach, N. P. Bauman,
     J. C. Becca, D. E. Bernholdt, K. Bhaskaran-Nair, S. Bogatko, P. Borowski,
        J. Boschen, J. Brabec, A. Bruner, E. Caut, Y. Chen, G. N. Chuev,
      C. J. Cramer, J. Daily, M. J. O. Deegan, T. H. Dunning Jr., M. Dupuis,
   K. G. Dyall, G. I. Fann, S. A. Fischer, A. Fonari, H. Frchtl, L. Gagliardi,
      J. Garza, N. Gawande, S. Ghosh, K. Glaesemann, A. W. Gtz, J. Hammond,
       V. Helms, E. D. Hermes, K. Hirao, S. Hirata, M. Jacquelin, L. Jensen,
   B. G. Johnson, H. Jnsson, R. A. Kendall, M. Klemm, R. Kobayashi, V. Konkov,
      S. Krishnamoorthy, M. Krishnan, Z. Lin, R. D. Lins, R. J. Littlefield,
      A. J. Logsdail, K. Lopata, W. Ma, A. V. Marenich, J. Martin del Campo,
   D. Mejia-Rodriguez, J. E. Moore, J. M. Mullin, T. Nakajima, D. R. Nascimento,
    J. A. Nichols, P. J. Nichols, J. Nieplocha, A. Otero-de-la-Roza, B. Palmer,
    A. Panyala, T. Pirojsirikul, B. Peng, R. Peverati, J. Pittner, L. Pollack,
   R. M. Richard, P. Sadayappan, G. C. Schatz, W. A. Shelton, D. W. Silverstein,
   D. M. A. Smith, T. A. Soares, D. Song, M. Swart, H. L. Taylor, G. S. Thomas,
            V. Tipparaju, D. G. Truhlar, K. Tsemekhman, T. Van Voorhis,
     . Vzquez-Mayagoitia, P. Verma, O. Villa, A. Vishnu, K. D. Vogiatzis,
        D. Wang, J. H. Weare, M. J. Williamson, T. L. Windus, K. Woliski,
        A. T. Wong, Q. Wu, C. Yang, Q. Yu, M. Zacharias, Z. Zhang, Y. Zhao,
                                and R. J. Harrison
                        "NWChem: Past, present, and future
                         J. Chem. Phys. 152, 184102 (2020)
                               doi:10.1063/5.0004997
 
                                      AUTHORS
                                      -------
     E. Apra, E. J. Bylaska, N. Govind, K. Kowalski, M. Valiev, W. A. de Jong,
      T. P. Straatsma, H. J. J. van Dam, D. Wang, T. L. Windus, N. P. Bauman,
       A. Panyala, J. Hammond, J. Autschbach, K. Bhaskaran-Nair, J. Brabec,
    K. Lopata, S. A. Fischer, S. Krishnamoorthy, M. Jacquelin, W. Ma, M. Klemm,
       O. Villa, Y. Chen, V. Anisimov, F. Aquino, S. Hirata, M. T. Hackler,
           Eric Hermes, L. Jensen, J. E. Moore, J. C. Becca, V. Konjkov,
            D. Mejia-Rodriguez, T. Risthaus, M. Malagoli, A. Marenich,
   A. Otero-de-la-Roza, J. Mullin, P. Nichols, R. Peverati, J. Pittner, Y. Zhao,
        P.-D. Fan, A. Fonari, M. J. Williamson, R. J. Harrison, J. R. Rehr,
      M. Dupuis, D. Silverstein, D. M. A. Smith, J. Nieplocha, V. Tipparaju,
      M. Krishnan, B. E. Van Kuiken, A. Vazquez-Mayagoitia, M. Swart, Q. Wu,
   T. Van Voorhis, A. A. Auer, M. Nooijen, L. D. Crosby, E. Brown, G. Cisneros,
     G. I. Fann, H. Fruchtl, J. Garza, K. Hirao, R. A. Kendall, J. A. Nichols,
       K. Tsemekhman, K. Wolinski, J. Anchell, D. E. Bernholdt, P. Borowski,
       T. Clark, D. Clerc, H. Dachsel, M. J. O. Deegan, K. Dyall, D. Elwood,
      E. Glendening, M. Gutowski, A. C. Hess, J. Jaffe, B. G. Johnson, J. Ju,
        R. Kobayashi, R. Kutteh, Z. Lin, R. Littlefield, X. Long, B. Meng,
      T. Nakajima, S. Niu, L. Pollack, M. Rosing, K. Glaesemann, G. Sandrone,
      M. Stave, H. Taylor, G. Thomas, J. H. van Lenthe, A. T. Wong, Z. Zhang.

 Total times  cpu:    10555.6s     wall:    10658.9s
