 argument  1 = 7R2.nw
  NWChem w/ OpenMP: maximum threads =    1



============================== echo of input deck ==============================
echo
start 7R2
title "7 Ref Open"
memory stack 17500 mb heap 1000 mb global 4500 mb noverify
charge 0

geometry noautoz noautosym
O       -1.1728595000      1.4989569600      0.0000000000
C        0.0660304100      0.9100567000      0.0000000000
C        1.2035535800      1.6292780600      0.0000000000
H       -1.8160458245      0.9171879686     -0.5352332610
C        0.0532593200     -0.5966696700      0.0000000000
H        2.1654120600      1.1218537600      0.0000000000
H        1.1583259000      2.7186352200      0.0000000000
F        1.2837112500     -1.1414366800      0.0000000000
F       -0.6171642700     -1.0735572000     -1.0901476500
F       -0.6171642700     -1.0735572000      1.0901476500
end

set lindep:n_dep 0

set cphf:maxsub 95
set cphf:maxiter 999
set int:acc_std 1d-16
set fock:densityscreen f

scf
 maxiter 99
 vectors input atomic
 thresh 1d-9
 tol2e 1d-15
end

mp2
 freeze atomic
 tight
end

driver
 clear
 maxiter 999
 tight
end

set "mp2:aotol2e fock" 1d-15
set mp2:aotol2e 1d-15
set mp2:backtol 1d-15

basis spherical
 * library aug-cc-pVDZ
end

task mp2 optimize
task mp2 frequencies


================================================================================


                                         
                                         


             Northwest Computational Chemistry Package (NWChem) 7.2.0
             --------------------------------------------------------


                    Environmental Molecular Sciences Laboratory
                       Pacific Northwest National Laboratory
                                Richland, WA 99352

                              Copyright (c) 1994-2022
                       Pacific Northwest National Laboratory
                            Battelle Memorial Institute

             NWChem is an open-source computational chemistry package
                        distributed under the terms of the
                      Educational Community License (ECL) 2.0
             A copy of the license is included with this distribution
                              in the LICENSE.TXT file

                                  ACKNOWLEDGMENT
                                  --------------

            This software and its documentation were developed at the
            EMSL at Pacific Northwest National Laboratory, a multiprogram
            national laboratory, operated for the U.S. Department of Energy
            by Battelle under Contract Number DE-AC05-76RL01830. Support
            for this work was provided by the Department of Energy Office
            of Biological and Environmental Research, Office of Basic
            Energy Sciences, and the Office of Advanced Scientific Computing.


           Job information
           ---------------

    hostname        = nid006682
    program         = nwchem
    date            = Wed Apr  2 14:43:45 2025

    compiled        = Fri_Sep_29_01:47:45_2023
    source          = /opt/nwchem
    nwchem branch   = 7.2.0
    nwchem revision = v7.2.0-beta1-323-g0ec4a55be4
    ga revision     = 5.8.0
    use scalapack   = T
    input           = 7R2.nw
    prefix          = 7R2.
    data base       = ./7R2.db
    status          = startup
    nproc           =       63
    time left       =     -1s



           Memory information
           ------------------

    heap     =  131072000 doubles =   1000.0 Mbytes
    stack    = 2293759997 doubles =  17500.0 Mbytes
    global   =  589824000 doubles =   4500.0 Mbytes (distinct from heap & stack)
    total    = 3014655997 doubles =  23000.0 Mbytes
    verify   = no 
    hardfail = no 


           Directory information
           ---------------------

  0 permanent = .
  0 scratch   = .




                                NWChem Input Module
                                -------------------


                                    7 Ref Open
                                    ----------

 Scaling coordinates for geometry "geometry" by  1.889725989
 (inverse scale =  0.529177249)



                             Geometry "geometry" -> ""
                             -------------------------

 Output coordinates in angstroms (scale by  1.889725989 to convert to a.u.)

  No.       Tag          Charge          X              Y              Z
 ---- ---------------- ---------- -------------- -------------- --------------
    1 O                    8.0000    -1.18190094     1.52023618     0.00955774
    2 C                    6.0000     0.05698897     0.93133592     0.00955774
    3 C                    6.0000     1.19451214     1.65055728     0.00955774
    4 H                    1.0000    -1.82508726     0.93846719    -0.52567552
    5 C                    6.0000     0.04421788    -0.57539045     0.00955774
    6 H                    1.0000     2.15637062     1.14313298     0.00955774
    7 H                    1.0000     1.14928446     2.73991444     0.00955774
    8 F                    9.0000     1.27466981    -1.12015746     0.00955774
    9 F                    9.0000    -0.62620571    -1.05227798    -1.08058991
   10 F                    9.0000    -0.62620571    -1.05227798     1.09970539

      Atomic Mass 
      ----------- 

      O                 15.994910
      C                 12.000000
      H                  1.007825
      F                 18.998400


 Effective nuclear repulsion energy (a.u.)     331.6236714304

            Nuclear Dipole moment (a.u.) 
            ----------------------------
        X                 Y               Z
 ---------------- ---------------- ----------------
    -0.0000000000     0.0000000000     0.0000000000


            XYZ format geometry
            -------------------
    10
 geometry
 O                    -1.18190094     1.52023618     0.00955774
 C                     0.05698897     0.93133592     0.00955774
 C                     1.19451214     1.65055728     0.00955774
 H                    -1.82508726     0.93846719    -0.52567552
 C                     0.04421788    -0.57539045     0.00955774
 H                     2.15637062     1.14313298     0.00955774
 H                     1.14928446     2.73991444     0.00955774
 F                     1.27466981    -1.12015746     0.00955774
 F                    -0.62620571    -1.05227798    -1.08058991
 F                    -0.62620571    -1.05227798     1.09970539

 ==============================================================================
                                internuclear distances
 ------------------------------------------------------------------------------
       center one      |      center two      | atomic units |  angstroms
 ------------------------------------------------------------------------------
    2 C                |   1 O                |     2.59220  |     1.37173
    3 C                |   2 C                |     2.54324  |     1.34582
    4 H                |   1 O                |     1.92587  |     1.01913
    5 C                |   2 C                |     2.84740  |     1.50678
    6 H                |   3 C                |     2.05507  |     1.08750
    7 H                |   3 C                |     2.06036  |     1.09030
    8 F                |   5 C                |     2.54292  |     1.34565
    9 F                |   5 C                |     2.58092  |     1.36576
   10 F                |   5 C                |     2.58092  |     1.36576
 ------------------------------------------------------------------------------
                         number of included internuclear distances:          9
 ==============================================================================



 ==============================================================================
                                 internuclear angles
 ------------------------------------------------------------------------------
        center 1       |       center 2       |       center 3       |  degrees
 ------------------------------------------------------------------------------
    2 C                |   1 O                |   4 H                |   108.96
    1 O                |   2 C                |   3 C                |   122.27
    1 O                |   2 C                |   5 C                |   114.94
    3 C                |   2 C                |   5 C                |   122.79
    2 C                |   3 C                |   6 H                |   119.88
    2 C                |   3 C                |   7 H                |   119.93
    6 H                |   3 C                |   7 H                |   120.19
    2 C                |   5 C                |   8 F                |   113.40
    2 C                |   5 C                |   9 F                |   110.69
    2 C                |   5 C                |  10 F                |   110.69
    8 F                |   5 C                |   9 F                |   107.91
    8 F                |   5 C                |  10 F                |   107.91
    9 F                |   5 C                |  10 F                |   105.92
 ------------------------------------------------------------------------------
                            number of included internuclear angles:         13
 ==============================================================================




  Deleted DRIVER restart files 



 Summary of "ao basis" -> "" (spherical)
 ------------------------------------------------------------------------------
       Tag                 Description            Shells   Functions and Types
 ---------------- ------------------------------  ------  ---------------------
 *                        aug-cc-pVDZ                 on all atoms 




                           NWChem Geometry Optimization
                           ----------------------------




                                    7 Ref Open


 maximum gradient threshold         (gmax) =   0.000015
 rms gradient threshold             (grms) =   0.000010
 maximum cartesian step threshold   (xmax) =   0.000060
 rms cartesian step threshold       (xrms) =   0.000040
 fixed trust radius                (trust) =   0.300000
 maximum step size to saddle      (sadstp) =   0.100000
 energy precision                  (eprec) =   1.0D-07
 maximum number of steps          (nptopt) =  999
 initial hessian option           (inhess) =    0
 line search option               (linopt) =    1
 hessian update option            (modupd) =    1
 saddle point option              (modsad) =    0
 initial eigen-mode to follow     (moddir) =    0
 initial variable to follow       (vardir) =    0
 follow first negative mode     (firstneg) =    T
 apply conjugacy                    (opcg) =    F
 source of zmatrix                         =           


          -------------------
          Energy Minimization
          -------------------


 Using diagonal initial Hessian 

          --------
          Step   0
          --------


                         Geometry "geometry" -> "geometry"
                         ---------------------------------

 Output coordinates in angstroms (scale by  1.889725989 to convert to a.u.)

  No.       Tag          Charge          X              Y              Z
 ---- ---------------- ---------- -------------- -------------- --------------
    1 O                    8.0000    -1.18190094     1.52023618     0.00955774
    2 C                    6.0000     0.05698897     0.93133592     0.00955774
    3 C                    6.0000     1.19451214     1.65055728     0.00955774
    4 H                    1.0000    -1.82508726     0.93846719    -0.52567552
    5 C                    6.0000     0.04421788    -0.57539045     0.00955774
    6 H                    1.0000     2.15637062     1.14313298     0.00955774
    7 H                    1.0000     1.14928446     2.73991444     0.00955774
    8 F                    9.0000     1.27466981    -1.12015746     0.00955774
    9 F                    9.0000    -0.62620571    -1.05227798    -1.08058991
   10 F                    9.0000    -0.62620571    -1.05227798     1.09970539

      Atomic Mass 
      ----------- 

      O                 15.994910
      C                 12.000000
      H                  1.007825
      F                 18.998400


 Effective nuclear repulsion energy (a.u.)     331.6236714304

            Nuclear Dipole moment (a.u.) 
            ----------------------------
        X                 Y               Z
 ---------------- ---------------- ----------------
    -0.0000000000     0.0000000000     0.0000000000

                      Basis "ao basis" -> "ao basis" (spherical)
                      -----
  O (Oxygen)
  ----------
            Exponent  Coefficients 
       -------------- ---------------------------------------------------------
  1 S  1.17200000E+04  0.000710
  1 S  1.75900000E+03  0.005470
  1 S  4.00800000E+02  0.027837
  1 S  1.13700000E+02  0.104800
  1 S  3.70300000E+01  0.283062
  1 S  1.32700000E+01  0.448719
  1 S  5.02500000E+00  0.270952
  1 S  1.01300000E+00  0.015458

  2 S  1.17200000E+04 -0.000160
  2 S  1.75900000E+03 -0.001263
  2 S  4.00800000E+02 -0.006267
  2 S  1.13700000E+02 -0.025716
  2 S  3.70300000E+01 -0.070924
  2 S  1.32700000E+01 -0.165411
  2 S  5.02500000E+00 -0.116955
  2 S  1.01300000E+00  0.557368

  3 S  3.02300000E-01  1.000000

  4 S  7.89600000E-02  1.000000

  5 P  1.77000000E+01  0.043018
  5 P  3.85400000E+00  0.228913
  5 P  1.04600000E+00  0.508728

  6 P  2.75300000E-01  1.000000

  7 P  6.85600000E-02  1.000000

  8 D  1.18500000E+00  1.000000

  9 D  3.32000000E-01  1.000000

  C (Carbon)
  ----------
            Exponent  Coefficients 
       -------------- ---------------------------------------------------------
  1 S  6.66500000E+03  0.000692
  1 S  1.00000000E+03  0.005329
  1 S  2.28000000E+02  0.027077
  1 S  6.47100000E+01  0.101718
  1 S  2.10600000E+01  0.274740
  1 S  7.49500000E+00  0.448564
  1 S  2.79700000E+00  0.285074
  1 S  5.21500000E-01  0.015204

  2 S  6.66500000E+03 -0.000146
  2 S  1.00000000E+03 -0.001154
  2 S  2.28000000E+02 -0.005725
  2 S  6.47100000E+01 -0.023312
  2 S  2.10600000E+01 -0.063955
  2 S  7.49500000E+00 -0.149981
  2 S  2.79700000E+00 -0.127262
  2 S  5.21500000E-01  0.544529

  3 S  1.59600000E-01  1.000000

  4 S  4.69000000E-02  1.000000

  5 P  9.43900000E+00  0.038109
  5 P  2.00200000E+00  0.209480
  5 P  5.45600000E-01  0.508557

  6 P  1.51700000E-01  1.000000

  7 P  4.04100000E-02  1.000000

  8 D  5.50000000E-01  1.000000

  9 D  1.51000000E-01  1.000000

  H (Hydrogen)
  ------------
            Exponent  Coefficients 
       -------------- ---------------------------------------------------------
  1 S  1.30100000E+01  0.019685
  1 S  1.96200000E+00  0.137977
  1 S  4.44600000E-01  0.478148

  2 S  1.22000000E-01  1.000000

  3 S  2.97400000E-02  1.000000

  4 P  7.27000000E-01  1.000000

  5 P  1.41000000E-01  1.000000

  F (Fluorine)
  ------------
            Exponent  Coefficients 
       -------------- ---------------------------------------------------------
  1 S  1.47100000E+04  0.000721
  1 S  2.20700000E+03  0.005553
  1 S  5.02800000E+02  0.028267
  1 S  1.42600000E+02  0.106444
  1 S  4.64700000E+01  0.286814
  1 S  1.67000000E+01  0.448641
  1 S  6.35600000E+00  0.264761
  1 S  1.31600000E+00  0.015333

  2 S  1.47100000E+04 -0.000165
  2 S  2.20700000E+03 -0.001308
  2 S  5.02800000E+02 -0.006495
  2 S  1.42600000E+02 -0.026691
  2 S  4.64700000E+01 -0.073690
  2 S  1.67000000E+01 -0.170776
  2 S  6.35600000E+00 -0.112327
  2 S  1.31600000E+00  0.562814

  3 S  3.89700000E-01  1.000000

  4 S  9.86300000E-02  1.000000

  5 P  2.26700000E+01  0.044878
  5 P  4.97700000E+00  0.235718
  5 P  1.34700000E+00  0.508521

  6 P  3.47100000E-01  1.000000

  7 P  8.50200000E-02  1.000000

  8 D  1.64000000E+00  1.000000

  9 D  4.64000000E-01  1.000000



 Summary of "ao basis" -> "ao basis" (spherical)
 ------------------------------------------------------------------------------
       Tag                 Description            Shells   Functions and Types
 ---------------- ------------------------------  ------  ---------------------
 O                        aug-cc-pVDZ                9       23   4s3p2d
 C                        aug-cc-pVDZ                9       23   4s3p2d
 H                        aug-cc-pVDZ                5        9   3s2p
 F                        aug-cc-pVDZ                9       23   4s3p2d


                                 NWChem SCF Module
                                 -----------------


                                    7 Ref Open



  ao basis        = "ao basis"
  functions       =   188
  atoms           =    10
  closed shells   =    28
  open shells     =     0
  charge          =   0.00
  wavefunction    = RHF 
  input vectors   = atomic
  output vectors  = ./7R2.movecs
  use symmetry    = F
  symmetry adapt  = F


 Summary of "ao basis" -> "ao basis" (spherical)
 ------------------------------------------------------------------------------
       Tag                 Description            Shells   Functions and Types
 ---------------- ------------------------------  ------  ---------------------
 O                        aug-cc-pVDZ                9       23   4s3p2d
 C                        aug-cc-pVDZ                9       23   4s3p2d
 H                        aug-cc-pVDZ                5        9   3s2p
 F                        aug-cc-pVDZ                9       23   4s3p2d



int_init: setting std/high accuracies to  1.0D-16  1.0D-32

 Forming initial guess at       0.6s


 Forcing the number of linearly dependent vectors to be  0

      Superposition of Atomic Density Guess
      -------------------------------------

 Sum of atomic energies:        -487.43163791

      Non-variational initial energy
      ------------------------------

 Total energy =    -490.071436
 1-e energy   =   -1333.363312
 2-e energy   =     511.668204
 HOMO         =      -0.291852
 LUMO         =       0.014024


 Starting SCF solution at       1.1s



 ----------------------------------------------
         Quadratically convergent ROHF

 Convergence threshold     :          1.000E-09
 Maximum no. of iterations :           99
 Final Fock-matrix accuracy:          1.000E-15
 ----------------------------------------------


              iter       energy          gnorm     gmax       time
             ----- ------------------- --------- --------- --------
                 1     -488.3811786361  1.83D+00  2.07D-01      0.8
                 2     -488.5496874193  4.44D-01  5.37D-02      1.6
                 3     -488.5686240112  3.69D-02  4.50D-03      2.4
                 4     -488.5687857790  5.56D-04  1.28D-04      3.7
                 5     -488.5687858377  2.24D-07  2.45D-08      5.6
                 6     -488.5687858377  4.01D-11  6.25D-12      7.8


       Final RHF  results 
       ------------------ 

         Total SCF energy =   -488.568785837702
      One-electron energy =  -1335.129539134709
      Two-electron energy =    514.937081866625
 Nuclear repulsion energy =    331.623671430382

        Time for solution =      7.4s


             Final eigenvalues
             -----------------

              1      
    1  -26.3690
    2  -26.3662
    3  -26.3576
    4  -20.6283
    5  -11.5388
    6  -11.3444
    7  -11.2660
    8   -1.7385
    9   -1.6522
   10   -1.6413
   11   -1.4209
   12   -1.0894
   13   -0.9869
   14   -0.8707
   15   -0.8310
   16   -0.8283
   17   -0.7931
   18   -0.7221
   19   -0.7185
   20   -0.6849
   21   -0.6791
   22   -0.6712
   23   -0.6592
   24   -0.6448
   25   -0.6193
   26   -0.5790
   27   -0.5419
   28   -0.3849
   29    0.0349
   30    0.0453
   31    0.0552
   32    0.0844
   33    0.0915
   34    0.1041
   35    0.1079
   36    0.1247
   37    0.1389
   38    0.1458

                       ROHF Final Molecular Orbital Analysis
                       -------------------------------------

 Vector   11  Occ=2.000000D+00  E=-1.420902D+00
              MO Center= -1.0D+00,  1.3D+00, -4.5D-02, r^2= 6.4D-01
   Bfn.  Coefficient  Atom+Function         Bfn.  Coefficient  Atom+Function  
  ----- ------------  ---------------      ----- ------------  ---------------
     3      0.500732   1 O  s                 2      0.412920   1 O  s         
    27     -0.232270   2 C  s                70      0.162241   4 H  s         
     4      0.151921   1 O  s                25      0.150311   2 C  s         

 Vector   12  Occ=2.000000D+00  E=-1.089395D+00
              MO Center=  3.2D-01,  6.9D-01, -3.4D-03, r^2= 2.1D+00
   Bfn.  Coefficient  Atom+Function         Bfn.  Coefficient  Atom+Function  
  ----- ------------  ---------------      ----- ------------  ---------------
    25      0.266506   2 C  s                48      0.226485   3 C  s         
    80      0.203201   5 C  s                26      0.201304   2 C  s         
    49      0.154446   3 C  s         

 Vector   13  Occ=2.000000D+00  E=-9.869449D-01
              MO Center=  2.9D-01,  2.8D-02, -1.0D-02, r^2= 3.2D+00
   Bfn.  Coefficient  Atom+Function         Bfn.  Coefficient  Atom+Function  
  ----- ------------  ---------------      ----- ------------  ---------------
    82      0.359454   5 C  s                80     -0.290618   5 C  s         
    49      0.244219   3 C  s                50     -0.238953   3 C  s         
    48      0.217734   3 C  s               124      0.178535   8 F  px        
    29      0.171497   2 C  py              149     -0.164379   9 F  pz        
    54     -0.158467   3 C  px              172      0.155890  10 F  pz        

 Vector   14  Occ=2.000000D+00  E=-8.707211D-01
              MO Center=  2.2D-01, -2.2D-01, -1.7D-02, r^2= 2.9D+00
   Bfn.  Coefficient  Atom+Function         Bfn.  Coefficient  Atom+Function  
  ----- ------------  ---------------      ----- ------------  ---------------
    84      0.306031   5 C  py              124      0.271654   8 F  px        
    26      0.253289   2 C  s               127      0.179212   8 F  px        
    29     -0.159581   2 C  py               82      0.158030   5 C  s         
   148      0.152136   9 F  py        

 Vector   15  Occ=2.000000D+00  E=-8.309832D-01
              MO Center=  1.6D-01, -9.3D-01, -1.6D-01, r^2= 2.1D+00
   Bfn.  Coefficient  Atom+Function         Bfn.  Coefficient  Atom+Function  
  ----- ------------  ---------------      ----- ------------  ---------------
   149      0.323353   9 F  pz               83     -0.289431   5 C  px        
   124      0.251129   8 F  px              125     -0.224155   8 F  py        
   152      0.204422   9 F  pz              172     -0.198825  10 F  pz        
   170     -0.164051  10 F  px               32      0.157298   2 C  py        

 Vector   16  Occ=2.000000D+00  E=-8.283058D-01
              MO Center= -1.2D-01, -9.7D-01,  1.5D-01, r^2= 1.9D+00
   Bfn.  Coefficient  Atom+Function         Bfn.  Coefficient  Atom+Function  
  ----- ------------  ---------------      ----- ------------  ---------------
    85      0.287044   5 C  pz              147     -0.275961   9 F  px        
   126      0.274144   8 F  pz              172     -0.248109  10 F  pz        
   170      0.212343  10 F  px              129      0.185836   8 F  pz        
   150     -0.180882   9 F  px        

 Vector   17  Occ=2.000000D+00  E=-7.931439D-01
              MO Center= -2.9D-01,  1.0D+00, -8.7D-02, r^2= 3.1D+00
   Bfn.  Coefficient  Atom+Function         Bfn.  Coefficient  Atom+Function  
  ----- ------------  ---------------      ----- ------------  ---------------
     5      0.361376   1 O  px               50      0.323336   3 C  s         
    27     -0.300050   2 C  s                49     -0.273313   3 C  s         
    70     -0.257033   4 H  s                26      0.226349   2 C  s         
     8      0.205202   1 O  px              102     -0.171226   6 H  s         
    32      0.168429   2 C  py               25      0.159247   2 C  s         

 Vector   18  Occ=2.000000D+00  E=-7.221227D-01
              MO Center=  4.8D-02, -9.7D-01, -1.9D-01, r^2= 2.2D+00
   Bfn.  Coefficient  Atom+Function         Bfn.  Coefficient  Atom+Function  
  ----- ------------  ---------------      ----- ------------  ---------------
   148      0.388473   9 F  py              125     -0.329099   8 F  py        
   151      0.272378   9 F  py              170      0.249925  10 F  px        
   128     -0.228780   8 F  py              126      0.200683   8 F  pz        
   173      0.176138  10 F  px              172      0.152075  10 F  pz        

 Vector   19  Occ=2.000000D+00  E=-7.185337D-01
              MO Center= -9.6D-02, -9.3D-01,  1.8D-01, r^2= 2.3D+00
   Bfn.  Coefficient  Atom+Function         Bfn.  Coefficient  Atom+Function  
  ----- ------------  ---------------      ----- ------------  ---------------
   171      0.427224  10 F  py              174      0.296362  10 F  py        
   126     -0.256930   8 F  pz              147      0.253338   9 F  px        
   125     -0.199302   8 F  py              150      0.181689   9 F  px        
   129     -0.178782   8 F  pz              149     -0.168815   9 F  pz        

 Vector   20  Occ=2.000000D+00  E=-6.848858D-01
              MO Center=  1.6D-01,  1.6D-01, -7.4D-02, r^2= 3.8D+00
   Bfn.  Coefficient  Atom+Function         Bfn.  Coefficient  Atom+Function  
  ----- ------------  ---------------      ----- ------------  ---------------
   125      0.334256   8 F  py               27      0.299514   2 C  s         
   128      0.243780   8 F  py               50     -0.215740   3 C  s         
    70     -0.187875   4 H  s               148      0.178816   9 F  py        
    81     -0.175182   5 C  s                 6      0.173269   1 O  py        
    87     -0.162224   5 C  py                7      0.152640   1 O  pz        

 Vector   21  Occ=2.000000D+00  E=-6.791064D-01
              MO Center=  1.0D-01, -6.5D-01, -1.7D-01, r^2= 3.0D+00
   Bfn.  Coefficient  Atom+Function         Bfn.  Coefficient  Atom+Function  
  ----- ------------  ---------------      ----- ------------  ---------------
   147      0.341159   9 F  px              124      0.330668   8 F  px        
   170      0.250981  10 F  px              150      0.237859   9 F  px        
   148     -0.225753   9 F  py              127      0.214164   8 F  px        
   173      0.176724  10 F  px              151     -0.166084   9 F  py        
   171     -0.164112  10 F  py        

 Vector   22  Occ=2.000000D+00  E=-6.712166D-01
              MO Center= -4.0D-02, -9.8D-01,  1.5D-01, r^2= 2.2D+00
   Bfn.  Coefficient  Atom+Function         Bfn.  Coefficient  Atom+Function  
  ----- ------------  ---------------      ----- ------------  ---------------
   126      0.345810   8 F  pz              172      0.324268  10 F  pz        
   149      0.287828   9 F  pz              129      0.243433   8 F  pz        
   171      0.214530  10 F  py              175      0.214894  10 F  pz        
   148     -0.203658   9 F  py              152      0.192943   9 F  pz        
   170     -0.171903  10 F  px              174      0.158764  10 F  py        

 Vector   23  Occ=2.000000D+00  E=-6.591661D-01
              MO Center= -2.4D-01, -1.1D+00,  1.8D-01, r^2= 2.0D+00
   Bfn.  Coefficient  Atom+Function         Bfn.  Coefficient  Atom+Function  
  ----- ------------  ---------------      ----- ------------  ---------------
   170      0.384743  10 F  px              126     -0.308544   8 F  pz        
   147     -0.286214   9 F  px              172      0.285214  10 F  pz        
   149      0.272323   9 F  pz              173      0.270195  10 F  px        
   129     -0.214822   8 F  pz              150     -0.202104   9 F  px        
   175      0.198191  10 F  pz              152      0.187539   9 F  pz        

 Vector   24  Occ=2.000000D+00  E=-6.447738D-01
              MO Center=  1.9D-02,  1.2D+00,  2.0D-02, r^2= 3.0D+00
   Bfn.  Coefficient  Atom+Function         Bfn.  Coefficient  Atom+Function  
  ----- ------------  ---------------      ----- ------------  ---------------
     6      0.316164   1 O  py               28      0.301787   2 C  px        
    51     -0.269512   3 C  px               50      0.234665   3 C  s         
     9      0.223224   1 O  py              171      0.184787  10 F  py        
   102     -0.166269   6 H  s               148      0.164685   9 F  py        
   103     -0.160360   6 H  s                 5     -0.152537   1 O  px        

 Vector   25  Occ=2.000000D+00  E=-6.193316D-01
              MO Center= -1.7D-01,  1.2D+00,  5.7D-02, r^2= 3.0D+00
   Bfn.  Coefficient  Atom+Function         Bfn.  Coefficient  Atom+Function  
  ----- ------------  ---------------      ----- ------------  ---------------
     7      0.401544   1 O  pz               10      0.279150   1 O  pz        
   102      0.189665   6 H  s                52     -0.175394   3 C  py        
    51      0.161972   3 C  px              103      0.159103   6 H  s         
   112     -0.159286   7 H  s               125     -0.153892   8 F  py        
   111     -0.150510   7 H  s         

 Vector   26  Occ=2.000000D+00  E=-5.790309D-01
              MO Center=  4.5D-01,  1.5D+00,  5.3D-02, r^2= 2.9D+00
   Bfn.  Coefficient  Atom+Function         Bfn.  Coefficient  Atom+Function  
  ----- ------------  ---------------      ----- ------------  ---------------
   102     -0.273538   6 H  s               103     -0.265846   6 H  s         
     7      0.258020   1 O  pz               52      0.253982   3 C  py        
   111      0.239803   7 H  s                 5     -0.213951   1 O  px        
    51     -0.213076   3 C  px              112      0.213857   7 H  s         
    10      0.200513   1 O  pz        

 Vector   27  Occ=2.000000D+00  E=-5.418761D-01
              MO Center= -3.9D-01,  9.4D-01, -4.3D-02, r^2= 2.7D+00
   Bfn.  Coefficient  Atom+Function         Bfn.  Coefficient  Atom+Function  
  ----- ------------  ---------------      ----- ------------  ---------------
     6      0.402511   1 O  py                9      0.297388   1 O  py        
    81      0.287175   5 C  s                84      0.260811   5 C  py        
    29     -0.257694   2 C  py               87      0.196463   5 C  py        
   112      0.175212   7 H  s                49     -0.164248   3 C  s         
    52      0.159785   3 C  py              148     -0.156130   9 F  py        

 Vector   28  Occ=2.000000D+00  E=-3.849315D-01
              MO Center=  4.2D-01,  1.3D+00,  1.3D-02, r^2= 2.0D+00
   Bfn.  Coefficient  Atom+Function         Bfn.  Coefficient  Atom+Function  
  ----- ------------  ---------------      ----- ------------  ---------------
    53      0.379350   3 C  pz               30      0.350800   2 C  pz        
     7     -0.262070   1 O  pz               56      0.255794   3 C  pz        
    33      0.242938   2 C  pz               10     -0.200634   1 O  pz        

 Vector   29  Occ=0.000000D+00  E= 3.487540D-02
              MO Center= -6.4D-02,  1.9D+00, -6.4D-01, r^2= 2.1D+01
   Bfn.  Coefficient  Atom+Function         Bfn.  Coefficient  Atom+Function  
  ----- ------------  ---------------      ----- ------------  ---------------
    82      6.132496   5 C  s                27     -2.731522   2 C  s         
    50      2.085067   3 C  s                35      2.041608   2 C  py        
   113     -1.921189   7 H  s                72     -1.654515   4 H  s         
    90      1.258552   5 C  py              104     -1.119560   6 H  s         
    34     -0.882618   2 C  px               57      0.672445   3 C  px        

 Vector   30  Occ=0.000000D+00  E= 4.531608D-02
              MO Center= -2.4D-01,  1.4D+00, -4.8D-01, r^2= 2.4D+01
   Bfn.  Coefficient  Atom+Function         Bfn.  Coefficient  Atom+Function  
  ----- ------------  ---------------      ----- ------------  ---------------
    82      6.257013   5 C  s                35      3.807248   2 C  py        
    50     -3.784208   3 C  s                34      3.355124   2 C  px        
    72      2.827850   4 H  s               104     -2.768694   6 H  s         
    57      1.860581   3 C  px              113     -1.365151   7 H  s         
     4      1.134996   1 O  s                90      0.856664   5 C  py        

 Vector   31  Occ=0.000000D+00  E= 5.523706D-02
              MO Center=  1.8D+00,  2.3D+00, -3.5D-02, r^2= 2.2D+01
   Bfn.  Coefficient  Atom+Function         Bfn.  Coefficient  Atom+Function  
  ----- ------------  ---------------      ----- ------------  ---------------
   113     -5.431554   7 H  s               104      5.231046   6 H  s         
    82     -3.709364   5 C  s                58      3.278339   3 C  py        
    27      2.653073   2 C  s                35     -2.382441   2 C  py        
    57     -2.095453   3 C  px              112     -1.385008   7 H  s         
   103      1.021518   6 H  s                90     -0.880527   5 C  py        

 Vector   32  Occ=0.000000D+00  E= 8.437206D-02
              MO Center=  6.7D-01, -1.3D+00,  3.3D-02, r^2= 1.9D+01
   Bfn.  Coefficient  Atom+Function         Bfn.  Coefficient  Atom+Function  
  ----- ------------  ---------------      ----- ------------  ---------------
    82    -16.003203   5 C  s                50     15.746103   3 C  s         
    35     -8.206206   2 C  py               34     -5.943560   2 C  px        
    90     -4.842440   5 C  py              113      3.717898   7 H  s         
    57     -3.395330   3 C  px               58     -2.796421   3 C  py        
    72     -1.507596   4 H  s                27     -1.454030   2 C  s         

 Vector   33  Occ=0.000000D+00  E= 9.150946D-02
              MO Center=  1.4D+00,  1.3D+00,  5.5D-02, r^2= 1.1D+01
   Bfn.  Coefficient  Atom+Function         Bfn.  Coefficient  Atom+Function  
  ----- ------------  ---------------      ----- ------------  ---------------
    82      4.919421   5 C  s                27     -2.533315   2 C  s         
    35      2.004741   2 C  py               50     -1.874593   3 C  s         
    90      1.739120   5 C  py               59      1.696756   3 C  pz        
    36     -1.645653   2 C  pz              113     -1.053462   7 H  s         
    91      0.788653   5 C  pz              104      0.581434   6 H  s         

 Vector   34  Occ=0.000000D+00  E= 1.040876D-01
              MO Center=  7.7D-03, -1.9D-01,  3.8D-01, r^2= 1.6D+01
   Bfn.  Coefficient  Atom+Function         Bfn.  Coefficient  Atom+Function  
  ----- ------------  ---------------      ----- ------------  ---------------
    27     10.103168   2 C  s                50     -7.668764   3 C  s         
    34      3.557763   2 C  px               82     -2.593207   5 C  s         
    91     -2.347805   5 C  pz               57      1.949198   3 C  px        
    58      1.761208   3 C  py                4      1.131092   1 O  s         
   146     -1.044726   9 F  s               169      0.943224  10 F  s         

 Vector   35  Occ=0.000000D+00  E= 1.079204D-01
              MO Center=  7.1D-01,  4.6D-01, -3.0D-01, r^2= 1.9D+01
   Bfn.  Coefficient  Atom+Function         Bfn.  Coefficient  Atom+Function  
  ----- ------------  ---------------      ----- ------------  ---------------
    27     15.110191   2 C  s                50    -10.467458   3 C  s         
    34      4.670599   2 C  px               82     -4.311366   5 C  s         
    57      3.174512   3 C  px               58      2.550180   3 C  py        
    89     -2.307042   5 C  px               91      1.583882   5 C  pz        
    72      1.129419   4 H  s                90     -1.113159   5 C  py        

 Vector   36  Occ=0.000000D+00  E= 1.247139D-01
              MO Center= -8.0D-01, -1.6D-01,  4.0D-01, r^2= 1.8D+01
   Bfn.  Coefficient  Atom+Function         Bfn.  Coefficient  Atom+Function  
  ----- ------------  ---------------      ----- ------------  ---------------
    27     14.875211   2 C  s                50    -12.873727   3 C  s         
    34      3.967669   2 C  px               57      3.567289   3 C  px        
    89      2.863548   5 C  px               35      2.751888   2 C  py        
    58      2.680971   3 C  py               72      2.663244   4 H  s         
    36     -2.179397   2 C  pz               82     -2.066598   5 C  s         

 Vector   37  Occ=0.000000D+00  E= 1.388518D-01
              MO Center= -4.1D-02,  1.0D+00, -3.0D-01, r^2= 1.6D+01
   Bfn.  Coefficient  Atom+Function         Bfn.  Coefficient  Atom+Function  
  ----- ------------  ---------------      ----- ------------  ---------------
    27      7.964310   2 C  s                36      4.145125   2 C  pz        
    50     -4.063450   3 C  s                57      3.638315   3 C  px        
    35      3.275721   2 C  py                4     -2.507351   1 O  s         
    91     -2.502743   5 C  pz               34     -2.166489   2 C  px        
   104     -1.785241   6 H  s                89      1.737384   5 C  px        

 Vector   38  Occ=0.000000D+00  E= 1.458000D-01
              MO Center= -1.1D-01,  7.2D-01, -1.7D-01, r^2= 2.0D+01
   Bfn.  Coefficient  Atom+Function         Bfn.  Coefficient  Atom+Function  
  ----- ------------  ---------------      ----- ------------  ---------------
    82     18.000961   5 C  s                50    -17.108864   3 C  s         
    35     15.582251   2 C  py               27      6.796057   2 C  s         
    34      6.698246   2 C  px               57      4.923613   3 C  px        
    89     -3.467851   5 C  px              113     -2.064967   7 H  s         
     4     -1.682937   1 O  s                36     -1.515785   2 C  pz        

 Vector   39  Occ=0.000000D+00  E= 1.532738D-01
              MO Center= -4.4D-01,  1.2D+00, -6.4D-01, r^2= 1.8D+01
   Bfn.  Coefficient  Atom+Function         Bfn.  Coefficient  Atom+Function  
  ----- ------------  ---------------      ----- ------------  ---------------
    50     -8.631588   3 C  s                34      8.222800   2 C  px        
    27     -5.917503   2 C  s                35      5.070729   2 C  py        
     4      4.512230   1 O  s                82      3.231861   5 C  s         
    89     -3.045424   5 C  px               72      2.769268   4 H  s         
    36      2.474332   2 C  pz               58     -1.834534   3 C  py        

 Vector   40  Occ=0.000000D+00  E= 1.657630D-01
              MO Center=  1.2D+00,  1.6D+00,  2.8D-01, r^2= 1.6D+01
   Bfn.  Coefficient  Atom+Function         Bfn.  Coefficient  Atom+Function  
  ----- ------------  ---------------      ----- ------------  ---------------
    82     14.141804   5 C  s                50     -8.006836   3 C  s         
    34      7.776439   2 C  px               35      6.157966   2 C  py        
   113     -3.772195   7 H  s                58      3.032838   3 C  py        
    57      2.901686   3 C  px              104     -2.819741   6 H  s         
     4      2.779842   1 O  s                72      2.557579   4 H  s         

 Vector   41  Occ=0.000000D+00  E= 1.688277D-01
              MO Center=  8.0D-01,  1.4D+00,  2.9D-01, r^2= 9.2D+00
   Bfn.  Coefficient  Atom+Function         Bfn.  Coefficient  Atom+Function  
  ----- ------------  ---------------      ----- ------------  ---------------
    82      3.267010   5 C  s                50     -2.956781   3 C  s         
    34      2.520704   2 C  px               35      2.213310   2 C  py        
     4      1.926732   1 O  s                27     -1.905771   2 C  s         
    59      1.459429   3 C  pz               91     -1.049961   5 C  pz        
    89     -0.693632   5 C  px               71     -0.674013   4 H  s         

 Vector   42  Occ=0.000000D+00  E= 1.823262D-01
              MO Center=  2.0D+00,  2.3D+00,  1.8D-02, r^2= 1.4D+01
   Bfn.  Coefficient  Atom+Function         Bfn.  Coefficient  Atom+Function  
  ----- ------------  ---------------      ----- ------------  ---------------
    58      7.432659   3 C  py              104      7.402213   6 H  s         
   113     -7.317819   7 H  s                57     -4.410533   3 C  px        
    27      4.041661   2 C  s               103      3.433645   6 H  s         
    82     -3.111734   5 C  s                35     -3.077919   2 C  py        
   112     -3.063310   7 H  s                34      2.151638   2 C  px        

 Vector   43  Occ=0.000000D+00  E= 2.017268D-01
              MO Center=  3.2D-01,  7.3D-01,  1.3D-02, r^2= 1.2D+01
   Bfn.  Coefficient  Atom+Function         Bfn.  Coefficient  Atom+Function  
  ----- ------------  ---------------      ----- ------------  ---------------
    27     32.791031   2 C  s                82    -20.967636   5 C  s         
    50    -11.300473   3 C  s                 4     -5.001188   1 O  s         
    90     -4.153564   5 C  py               35     -3.965864   2 C  py        
    57      2.325937   3 C  px              123      2.188918   8 F  s         
    34      1.741801   2 C  px               58      1.439022   3 C  py        

 Vector   44  Occ=0.000000D+00  E= 2.187765D-01
              MO Center= -8.1D-01,  7.7D-01, -1.8D-01, r^2= 1.3D+01
   Bfn.  Coefficient  Atom+Function         Bfn.  Coefficient  Atom+Function  
  ----- ------------  ---------------      ----- ------------  ---------------
    82     13.861353   5 C  s                27     -5.694891   2 C  s         
     4     -4.415733   1 O  s                34     -3.818560   2 C  px        
    90      3.209929   5 C  py               35      3.092414   2 C  py        
    71      2.962685   4 H  s                57      2.671264   3 C  px        
    36     -2.452248   2 C  pz              146     -2.158142   9 F  s         

 Vector   45  Occ=0.000000D+00  E= 2.331906D-01
              MO Center=  9.5D-02,  1.7D-01,  2.6D-02, r^2= 1.5D+01
   Bfn.  Coefficient  Atom+Function         Bfn.  Coefficient  Atom+Function  
  ----- ------------  ---------------      ----- ------------  ---------------
    50     30.284284   3 C  s                82    -20.531513   5 C  s         
    27    -13.259093   2 C  s                35    -10.167455   2 C  py        
    34     -9.833479   2 C  px               57     -5.575514   3 C  px        
    58     -4.224061   3 C  py               90     -3.950617   5 C  py        
    36     -3.102187   2 C  pz              146      2.975303   9 F  s         

 Vector   46  Occ=0.000000D+00  E= 2.518626D-01
              MO Center= -9.4D-01,  8.7D-01, -5.7D-02, r^2= 1.3D+01
   Bfn.  Coefficient  Atom+Function         Bfn.  Coefficient  Atom+Function  
  ----- ------------  ---------------      ----- ------------  ---------------
    50     13.321321   3 C  s                82     -9.497747   5 C  s         
    34     -7.936294   2 C  px               27     -5.495399   2 C  s         
    11      3.386197   1 O  px               58     -3.115644   3 C  py        
   112     -2.754937   7 H  s                35     -2.572309   2 C  py        
    90     -2.307417   5 C  py              113      1.961504   7 H  s         

 Vector   47  Occ=0.000000D+00  E= 2.644263D-01
              MO Center=  3.0D-01, -1.6D-01, -4.4D-01, r^2= 1.4D+01
   Bfn.  Coefficient  Atom+Function         Bfn.  Coefficient  Atom+Function  
  ----- ------------  ---------------      ----- ------------  ---------------
    50     27.464499   3 C  s                27    -15.745842   2 C  s         
    82    -15.816219   5 C  s                35    -10.184288   2 C  py        
    34     -8.050470   2 C  px               57     -5.853511   3 C  px        
    58     -2.833338   3 C  py               90     -2.798256   5 C  py        
    49      2.532294   3 C  s               169      2.452303  10 F  s         

 Vector   48  Occ=0.000000D+00  E= 2.720537D-01
              MO Center= -9.4D-02, -1.2D-01,  4.5D-01, r^2= 1.1D+01
   Bfn.  Coefficient  Atom+Function         Bfn.  Coefficient  Atom+Function  
  ----- ------------  ---------------      ----- ------------  ---------------
    27     16.221110   2 C  s                50     -9.446648   3 C  s         
     4     -5.709419   1 O  s                82     -2.454193   5 C  s         
    57      2.000933   3 C  px               34      1.915367   2 C  px        
   112      1.883304   7 H  s                12      1.811881   1 O  py        
    36     -1.815527   2 C  pz               89     -1.782747   5 C  px        

 Vector   49  Occ=0.000000D+00  E= 2.801684D-01
              MO Center= -6.2D-01,  9.7D-01, -9.8D-02, r^2= 1.1D+01
   Bfn.  Coefficient  Atom+Function         Bfn.  Coefficient  Atom+Function  
  ----- ------------  ---------------      ----- ------------  ---------------
    50     12.345728   3 C  s                27     -7.910248   2 C  s         
    34     -5.525426   2 C  px               82     -4.168170   5 C  s         
    35     -2.812698   2 C  py               58     -2.495760   3 C  py        
    13     -2.283557   1 O  pz               71     -2.037543   4 H  s         
    57     -1.885084   3 C  px               72     -1.792684   4 H  s         

 Vector   50  Occ=0.000000D+00  E= 2.912559D-01
              MO Center=  3.6D-01,  8.4D-01,  1.5D-02, r^2= 1.3D+01
   Bfn.  Coefficient  Atom+Function         Bfn.  Coefficient  Atom+Function  
  ----- ------------  ---------------      ----- ------------  ---------------
    27     24.499608   2 C  s                82    -21.115625   5 C  s         
    35     -8.256929   2 C  py               50     -5.581065   3 C  s         
    90     -4.132229   5 C  py                4     -3.091490   1 O  s         
    12      2.670301   1 O  py               26     -1.603748   2 C  s         
   146      1.553420   9 F  s               112      1.376136   7 H  s         

 Vector   51  Occ=0.000000D+00  E= 3.055228D-01
              MO Center=  3.4D-01,  7.9D-01,  5.1D-02, r^2= 1.1D+01
   Bfn.  Coefficient  Atom+Function         Bfn.  Coefficient  Atom+Function  
  ----- ------------  ---------------      ----- ------------  ---------------
    27     22.808321   2 C  s                50    -18.223753   3 C  s         
    34      7.390637   2 C  px               58      5.685373   3 C  py        
    82     -4.481373   5 C  s               103      2.558329   6 H  s         
   113     -2.386164   7 H  s                57      2.064917   3 C  px        
    72      1.853437   4 H  s               123     -1.609842   8 F  s         

 Vector   52  Occ=0.000000D+00  E= 3.203231D-01
              MO Center=  5.0D-01,  2.1D-01,  2.8D-02, r^2= 1.2D+01
   Bfn.  Coefficient  Atom+Function         Bfn.  Coefficient  Atom+Function  
  ----- ------------  ---------------      ----- ------------  ---------------
    50      7.372356   3 C  s                35     -5.172707   2 C  py        
    82     -4.994533   5 C  s                 4     -2.526261   1 O  s         
    12      2.397222   1 O  py               81      1.874185   5 C  s         
    57     -1.862456   3 C  px              123     -1.724505   8 F  s         
   130      1.722689   8 F  px               26      1.462108   2 C  s         

 Vector   53  Occ=0.000000D+00  E= 3.378740D-01
              MO Center= -4.3D-01,  2.9D-01,  2.5D-01, r^2= 1.2D+01
   Bfn.  Coefficient  Atom+Function         Bfn.  Coefficient  Atom+Function  
  ----- ------------  ---------------      ----- ------------  ---------------
    50     20.117100   3 C  s                27    -16.741470   2 C  s         
    35     -8.643453   2 C  py               34     -7.911080   2 C  px        
    82     -4.422676   5 C  s                32      3.980562   2 C  py        
    49     -3.854519   3 C  s                12      3.177294   1 O  py        
    87      2.945955   5 C  py               11      2.841445   1 O  px        

 Vector   54  Occ=0.000000D+00  E= 3.495935D-01
              MO Center=  5.0D-01, -5.7D-01, -1.1D-01, r^2= 9.4D+00
   Bfn.  Coefficient  Atom+Function         Bfn.  Coefficient  Atom+Function  
  ----- ------------  ---------------      ----- ------------  ---------------
    91      3.901504   5 C  pz               36     -3.734674   2 C  pz        
    27      3.571061   2 C  s                82     -2.117910   5 C  s         
     4     -1.626189   1 O  s               132     -1.538178   8 F  pz        
   154     -1.273138   9 F  py               59      1.213269   3 C  pz        
    50     -1.080294   3 C  s               178     -0.917852  10 F  pz        

 Vector   55  Occ=0.000000D+00  E= 3.609521D-01
              MO Center=  2.3D-01, -2.6D-01, -2.1D-01, r^2= 9.8D+00
   Bfn.  Coefficient  Atom+Function         Bfn.  Coefficient  Atom+Function  
  ----- ------------  ---------------      ----- ------------  ---------------
    50     -5.192215   3 C  s                27      5.073012   2 C  s         
    34      4.767565   2 C  px               89     -2.827882   5 C  px        
   103      2.515044   6 H  s                31     -1.982997   2 C  px        
   131     -1.568121   8 F  py               71      1.308127   4 H  s         
    58      1.235714   3 C  py               46     -1.199299   2 C  d  2      

 Vector   56  Occ=0.000000D+00  E= 3.687035D-01
              MO Center= -4.0D-01, -4.4D-01,  3.1D-01, r^2= 1.1D+01
   Bfn.  Coefficient  Atom+Function         Bfn.  Coefficient  Atom+Function  
  ----- ------------  ---------------      ----- ------------  ---------------
    27     14.264961   2 C  s                50    -11.996468   3 C  s         
    35      5.896823   2 C  py               57      4.554120   3 C  px        
    34      3.914219   2 C  px              104     -3.172774   6 H  s         
   103     -2.767649   6 H  s                90     -2.354701   5 C  py        
    89      1.928697   5 C  px               36     -1.802692   2 C  pz        

 Vector   57  Occ=0.000000D+00  E= 3.714124D-01
              MO Center= -1.5D-01, -4.0D-01,  8.0D-02, r^2= 1.1D+01
   Bfn.  Coefficient  Atom+Function         Bfn.  Coefficient  Atom+Function  
  ----- ------------  ---------------      ----- ------------  ---------------
    27      5.249862   2 C  s                50     -4.837301   3 C  s         
    35      2.762657   2 C  py               57      2.176068   3 C  px        
   103     -1.978890   6 H  s               155     -1.650855   9 F  pz        
   178     -1.580851  10 F  pz               34      1.503552   2 C  px        
    91      1.499088   5 C  pz              104     -1.489303   6 H  s         

 Vector   58  Occ=0.000000D+00  E= 3.802526D-01
              MO Center=  3.1D-01,  5.5D-01, -7.7D-02, r^2= 1.1D+01
   Bfn.  Coefficient  Atom+Function         Bfn.  Coefficient  Atom+Function  
  ----- ------------  ---------------      ----- ------------  ---------------
    82     13.506628   5 C  s                50     -9.394352   3 C  s         
    35      6.671544   2 C  py               27     -6.545848   2 C  s         
    34      5.629599   2 C  px              103      2.733252   6 H  s         
    89     -2.696863   5 C  px              123     -2.591936   8 F  s         
    81     -2.518204   5 C  s                54     -2.398280   3 C  px        

 Vector   59  Occ=0.000000D+00  E= 3.886056D-01
              MO Center=  6.0D-01, -3.4D-01,  1.1D-03, r^2= 1.0D+01
   Bfn.  Coefficient  Atom+Function         Bfn.  Coefficient  Atom+Function  
  ----- ------------  ---------------      ----- ------------  ---------------
    50      6.376060   3 C  s                82     -4.504090   5 C  s         
    34     -4.248729   2 C  px               35     -3.650474   2 C  py        
    91     -2.320810   5 C  pz               89      2.199245   5 C  px        
   132      2.204777   8 F  pz              103     -1.886206   6 H  s         
    36      1.729514   2 C  pz              169     -1.604385  10 F  s         

 Vector   60  Occ=0.000000D+00  E= 3.929616D-01
              MO Center=  7.7D-01, -1.4D-01,  8.3D-02, r^2= 1.0D+01
   Bfn.  Coefficient  Atom+Function         Bfn.  Coefficient  Atom+Function  
  ----- ------------  ---------------      ----- ------------  ---------------
    27      5.230660   2 C  s                58      4.958227   3 C  py        
    89      3.768497   5 C  px              113     -3.284928   7 H  s         
    82      2.950068   5 C  s                 4     -2.659695   1 O  s         
    50     -2.582897   3 C  s               112     -2.400382   7 H  s         
   131      2.244591   8 F  py               34     -2.074793   2 C  px        

 Vector   61  Occ=0.000000D+00  E= 4.081293D-01
              MO Center= -1.4D-01,  7.9D-02,  7.1D-02, r^2= 1.1D+01
   Bfn.  Coefficient  Atom+Function         Bfn.  Coefficient  Atom+Function  
  ----- ------------  ---------------      ----- ------------  ---------------
    50     15.776597   3 C  s                27     -9.108387   2 C  s         
    34     -7.203273   2 C  px               35     -5.610144   2 C  py        
    82     -5.515373   5 C  s               103     -3.020078   6 H  s         
    58     -2.703312   3 C  py              113      1.999393   7 H  s         
     4     -1.765207   1 O  s               146      1.759491   9 F  s         

 Vector   62  Occ=0.000000D+00  E= 4.126387D-01
              MO Center=  7.2D-02, -2.8D-01,  1.0D-01, r^2= 1.2D+01
   Bfn.  Coefficient  Atom+Function         Bfn.  Coefficient  Atom+Function  
  ----- ------------  ---------------      ----- ------------  ---------------
    82    -13.242896   5 C  s                27     12.539454   2 C  s         
    50     -5.816164   3 C  s                35     -5.660001   2 C  py        
    26     -3.026273   2 C  s                34      2.610480   2 C  px        
    54     -2.492271   3 C  px              103      2.492541   6 H  s         
    89      2.374434   5 C  px              112      2.055146   7 H  s         

 Vector   63  Occ=0.000000D+00  E= 4.227936D-01
              MO Center=  2.3D-01,  4.1D-01, -2.9D-01, r^2= 9.5D+00
   Bfn.  Coefficient  Atom+Function         Bfn.  Coefficient  Atom+Function  
  ----- ------------  ---------------      ----- ------------  ---------------
    27      7.514446   2 C  s                50     -6.072516   3 C  s         
     4     -3.178131   1 O  s                35      2.420650   2 C  py        
    91     -2.381826   5 C  pz               82      1.979915   5 C  s         
   155      1.706653   9 F  pz               32      1.612371   2 C  py        
   154      1.494810   9 F  py               58      1.484995   3 C  py        

 Vector   64  Occ=0.000000D+00  E= 4.283558D-01
              MO Center=  2.0D-01,  7.1D-01,  7.5D-02, r^2= 9.2D+00
   Bfn.  Coefficient  Atom+Function         Bfn.  Coefficient  Atom+Function  
  ----- ------------  ---------------      ----- ------------  ---------------
    27     35.827018   2 C  s                50    -24.872578   3 C  s         
     4    -11.154016   1 O  s                34      5.952178   2 C  px        
    49      5.053694   3 C  s                32     -4.984863   2 C  py        
    57      4.848068   3 C  px               31     -4.158754   2 C  px        
    54     -4.146995   3 C  px              123     -3.687349   8 F  s         

 Vector   65  Occ=0.000000D+00  E= 4.398905D-01
              MO Center= -1.7D-01, -1.6D-01,  2.7D-01, r^2= 9.2D+00
   Bfn.  Coefficient  Atom+Function         Bfn.  Coefficient  Atom+Function  
  ----- ------------  ---------------      ----- ------------  ---------------
    82     14.099831   5 C  s                50     -9.991660   3 C  s         
     4      8.557655   1 O  s                35      7.221484   2 C  py        
    34      4.833509   2 C  px               27     -4.269673   2 C  s         
    32     -3.979717   2 C  py               87     -3.934739   5 C  py        
   146     -3.697961   9 F  s                57      3.433924   3 C  px        

 Vector   66  Occ=0.000000D+00  E= 4.673034D-01
              MO Center=  5.7D-02,  3.6D-01, -9.3D-03, r^2= 9.3D+00
   Bfn.  Coefficient  Atom+Function         Bfn.  Coefficient  Atom+Function  
  ----- ------------  ---------------      ----- ------------  ---------------
    82     15.633121   5 C  s                35      6.245032   2 C  py        
    27     -6.019751   2 C  s                50     -4.717970   3 C  s         
   169     -4.434854  10 F  s               113     -3.211402   7 H  s         
    34      3.062421   2 C  px              112     -2.786114   7 H  s         
    58      2.598434   3 C  py               26      2.224690   2 C  s         

 Vector   67  Occ=0.000000D+00  E= 4.854531D-01
              MO Center= -4.1D-01,  1.2D+00, -5.5D-02, r^2= 8.0D+00
   Bfn.  Coefficient  Atom+Function         Bfn.  Coefficient  Atom+Function  
  ----- ------------  ---------------      ----- ------------  ---------------
     4      5.918823   1 O  s                27     -5.773888   2 C  s         
    50      4.193539   3 C  s                34      3.429100   2 C  px        
    57     -2.821261   3 C  px               31      2.664693   2 C  px        
    54      2.339618   3 C  px              112     -2.348043   7 H  s         
   103     -2.235144   6 H  s                82     -1.881324   5 C  s         

 Vector   68  Occ=0.000000D+00  E= 4.913318D-01
              MO Center= -1.6D-01,  5.0D-01, -2.9D-01, r^2= 9.2D+00
   Bfn.  Coefficient  Atom+Function         Bfn.  Coefficient  Atom+Function  
  ----- ------------  ---------------      ----- ------------  ---------------
    82     10.398648   5 C  s                27     -7.574719   2 C  s         
   146     -4.437146   9 F  s                31      3.961026   2 C  px        
   103     -3.754500   6 H  s                55      3.513036   3 C  py        
    54      3.417213   3 C  px              112     -3.358155   7 H  s         
    49     -3.275169   3 C  s                 4      3.233254   1 O  s         

 Vector   69  Occ=0.000000D+00  E= 5.026125D-01
              MO Center=  8.7D-01,  7.1D-01, -2.5D-01, r^2= 1.0D+01
   Bfn.  Coefficient  Atom+Function         Bfn.  Coefficient  Atom+Function  
  ----- ------------  ---------------      ----- ------------  ---------------
    82      7.195689   5 C  s                27     -6.405175   2 C  s         
   123     -5.150545   8 F  s                 4      4.646498   1 O  s         
   146      3.746897   9 F  s                54      3.408725   3 C  px        
    86      3.147966   5 C  px               71     -2.666743   4 H  s         
   103     -2.522487   6 H  s               112     -2.522578   7 H  s         


 center of mass
 --------------
 x =  -0.02430608 y =  -0.13515095 z =   0.00896119

 moments of inertia (a.u.)
 ------------------
         730.608787918922          10.743042372243          -3.490904908165
          10.743042372243         500.285791963712           1.945544850799
          -3.490904908165           1.945544850799         906.339486700946

  Mulliken analysis of the total density
  --------------------------------------

    Atom       Charge   Shell Charges
 -----------   ------   -------------------------------------------------------
    1 O    8     8.88   2.00  0.82  1.05  0.19  2.80  1.86  0.11  0.01  0.02
    2 C    6     5.62   2.01  0.66  0.47 -0.05  1.95  0.33  0.19  0.15 -0.08
    3 C    6     5.33   2.01  0.65  0.60 -0.27  1.99  0.36  0.04  0.06 -0.11
    4 H    1     0.78   0.66  0.03  0.00  0.07  0.02
    5 C    6     3.93   2.01  0.68 -0.18 -0.19  1.70 -0.21 -0.01  0.29 -0.16
    6 H    1     1.25   0.76  0.49  0.01  0.03 -0.04
    7 H    1     1.24   0.76  0.49  0.00  0.03 -0.05
    8 F    9     9.68   2.00  0.89  1.09  0.18  3.31  2.08  0.10  0.01  0.02
    9 F    9     9.65   2.00  0.89  1.09  0.15  3.31  2.09  0.09  0.01  0.02
   10 F    9     9.64   2.00  0.89  1.09  0.15  3.31  2.08  0.09  0.01  0.02

       Multipole analysis of the density wrt the origin
       ------------------------------------------------

     L   x y z        total         open         nuclear
     -   - - -        -----         ----         -------
     0   0 0 0     -0.000000      0.000000     56.000000

     1   1 0 0      0.103422      0.000000     -0.000000
     1   0 1 0      0.415696      0.000000      0.000000
     1   0 0 1     -0.343898      0.000000      0.000000

     2   2 0 0    -26.132552      0.000000    181.233932
     2   1 1 0      1.852456      0.000000      1.903296
     2   1 0 1      1.509948      0.000000      3.488385
     2   0 2 0    -30.013481      0.000000    296.199520
     2   0 1 1     -0.509566      0.000000     -1.793742
     2   0 0 2    -30.460565      0.000000     77.395510

                   NWChem MP2 Semi-direct Energy/Gradient Module
                   ---------------------------------------------


                                    7 Ref Open



int_init: setting std/high accuracies to  1.0D-16  1.0D-32
  Basis functions       =    188
  Molecular orbitals    =    188
  Frozen core           =      7
  Frozen virtuals       =      0
  Active alpha occupied =     21
  Active beta occupied  =     21
  Active alpha virtual  =    160
  Active beta virtual   =    160
  Use MO symmetry       = F
  Use skeleton AO sym   = F

  AO/Fock/Back tols     =   1.0D-15  1.0D-15  1.0D-15

 GA uses MA = F    GA memory limited = T

 Available: 
  local mem=  2.12D+09
 global mem=  5.90D+08
 local disk=  0.00D+00

int_init: setting std/high accuracies to  1.0D-16  1.0D-32
  mp2_memr nvloc                     3
  nvloc new                     3
   1 passes of  21:        5242880                      89113                   4731990.
   1 passes of  21: M   2121721563           G      589820386           F    2116478683.

 Semi-direct pass number   1 of   1  for RHF alpha+beta  at        9.3s

int_init: setting std/high accuracies to  1.0D-16  1.0D-32
  vrange nnbf                 17759
  mp2_eaftype                    14  avail_ma_in_mb                 18499
 EAF : mp2_eaftype filesize          14    1932194.
  mp2_eaf for mointskh                     14
Node 0 wrote      9.0 Mb in      0.0 s     Agg I/O rate: 27776.7 Mb/s
 Done moints_semi at       10.2s
  mp2_eaftype                    14  avail_ma_in_mb                 18485
 EAF : mp2_eaftype filesize          14    1932194.
  mp2_eaf for kh                    14
  mp2_eaftype                    10  avail_ma_in_mb                 18485
 EAF : mp2_eaftype filesize          10     423360.
  mp2_eaf for ta tb                    10
  mp2_eaf for ta                     10
  mp2_eaf for tb                     10
 Done maket at       10.3s
 Done pijab at       10.3s
 Done wijab at       10.3s
 Done lai at       10.4s

int_init: setting std/high accuracies to  1.0D-16  1.0D-32
  mp2_eaftype                    13  avail_ma_in_mb                 18464
 EAF : mp2_eaftype filesize          13    1765151.
  mp2_eaf for 2pdm                     13
 Done nonsep at       12.6s
 Done multipass loop at       12.6s


          -------------------------------------------
          SCF energy                -488.568785837702
          Correlation energy          -1.217923984146
          Singlet pairs               -0.723654658720
          Triplet pairs               -0.494269325425
          Total MP2 energy          -489.786709821848
          -------------------------------------------



          ---------------------------------------------------
                    Spin Component Scaled (SCS) MP2
          Same spin pairs                     -0.329512883617
          Same spin scaling factor             0.333333333333
          Opposite spin pairs                 -0.888411100529
          Opposite spin scaling fact.          1.200000000000
          SCS-MP2 correlation energy          -1.175930948507
          Total SCS-MP2 energy              -489.744716786209
          ---------------------------------------------------

 Start laifock at       12.6s

int_init: setting std/high accuracies to  1.0D-16  1.0D-32
 Done laifock at       13.0s
                                NWChem CPHF Module
                                ------------------



int_init: setting std/high accuracies to  1.0D-16  1.0D-32
    scftype = RHF 
    nclosed =   28
      nopen =    0
  variables =     4480
  tolerance =   1.0D-06
  max. iter =  999

 SCF residual:    4.0168310160426531E-011

            ----- linear solve (tol: 1.0E-06 prod-acc: 3.3E-14) -----

               iter nbas    rnorm     rnorm-scal   ratio     time
               ---- ---- ----------- ----------- --------- -------
                  1    1  8.9582E-02  4.0869E-01    0.0000    12.1
                  2    2  1.5692E-02  7.1591E-02    0.1752    12.4
                  3    3  4.4612E-03  2.0353E-02    0.2843    12.6
                  4    4  1.6797E-03  7.6630E-03    0.3765    12.9
                  5    5  4.2830E-04  1.9540E-03    0.2550    13.1
                  6    6  1.2994E-04  5.9282E-04    0.3034    13.4
                  7    7  4.7413E-05  2.1631E-04    0.3649    13.6
                  8    8  1.4856E-05  6.7777E-05    0.3133    13.9
                  9    9  5.8128E-06  2.6519E-05    0.3913    14.1
                 10   10  1.6714E-06  7.6253E-06    0.2875    14.4
                 11   11  5.4712E-07  2.4961E-06    0.3273    14.6
                 12   12  1.3644E-07  6.2246E-07    0.2494    14.9

 CPHF converged to   6.2D-07 in   12 iters

 Start make_tot_dens at       16.8s
 Done make_tot_dens at       16.8s

int_init: setting std/high accuracies to  1.0D-16  1.0D-32
                Dipole Moments (a.u.)
                --------------
         Nuclear       SCF       SCF+MP2
       ----------- ----------- -----------
 X      -0.000000    0.103422    0.036000
 Y       0.000000    0.415696    0.335814
 Z       0.000000   -0.343898   -0.324178


 MP2 RHF      natural orbital occupation numbers


              1      
    1    2.0000
    2    2.0000
    3    2.0000
    4    2.0000
    5    2.0000
    6    2.0000
    7    2.0000
    8    1.9900
    9    1.9890
   10    1.9889
   11    1.9859
   12    1.9809
   13    1.9766
   14    1.9750
   15    1.9750
   16    1.9736
   17    1.9728
   18    1.9726
   19    1.9696
   20    1.9677
   21    1.9664
   22    1.9658
   23    1.9621
   24    1.9591
   25    1.9582
   26    1.9565
   27    1.9547
   28    1.9312
   29    0.0524
   30    0.0383
   31    0.0365
   32    0.0328
   33    0.0302
   34    0.0263
   35    0.0247
   36    0.0208
   37    0.0184
   38    0.0180
   39    0.0173
   40    0.0155
   41    0.0154
   42    0.0148
   43    0.0143
   44    0.0137
   45    0.0122
   46    0.0121
   47    0.0099
   48    0.0095
   49    0.0090
   50    0.0087
   51    0.0085
   52    0.0079
   53    0.0076
   54    0.0073
   55    0.0062
   56    0.0059
   57    0.0057
   58    0.0057
   59    0.0057
   60    0.0055
   61    0.0054
   62    0.0052
   63    0.0051
   64    0.0050
   65    0.0048
   66    0.0047
   67    0.0046
   68    0.0045
   69    0.0044
   70    0.0044
   71    0.0044
   72    0.0041
   73    0.0040
   74    0.0040
   75    0.0035
   76    0.0028
   77    0.0027
   78    0.0024
   79    0.0020
   80    0.0017
   81    0.0017
   82    0.0016
   83    0.0016
   84    0.0015
   85    0.0014
   86    0.0014
   87    0.0012
   88    0.0011
   89    0.0011
   90    0.0010
   91    0.0010
   92    0.0010
   93    0.0009
   94    0.0008
   95    0.0007
   96    0.0007
   97    0.0006
   98    0.0006
   99    0.0006
  100    0.0006
  101    0.0005
  102    0.0005
  103    0.0005
  104    0.0005
  105    0.0005
  106    0.0004
  107    0.0004
  108    0.0004
  109    0.0004
  110    0.0004
  111    0.0004
  112    0.0004
  113    0.0003
  114    0.0003
  115    0.0003
  116    0.0003
  117    0.0003
  118    0.0003
  119    0.0003
  120    0.0003
  121    0.0003
  122    0.0003
  123    0.0002
  124    0.0002
  125    0.0002
  126    0.0002
  127    0.0002
  128    0.0002
  129    0.0002
  130    0.0002
  131    0.0001
  132    0.0001
  133    0.0001
  134    0.0001
  135    0.0001
  136    0.0001
  137    0.0001
  138    0.0001
  139    0.0001
  140    0.0001
  141    0.0001
  142    0.0001
  143    0.0001
  144    0.0001
  145    0.0001
  146    0.0001
  147    0.0001
  148    0.0001
  149    0.0001
  150    0.0000
  151    0.0000
  152    0.0000
  153    0.0000
  154    0.0000
  155    0.0000
  156    0.0000
  157    0.0000
  158    0.0000
  159    0.0000
  160    0.0000
  161    0.0000
  162    0.0000
  163    0.0000
  164    0.0000
  165    0.0000
  166    0.0000
  167    0.0000
  168    0.0000
  169    0.0000
  170    0.0000
  171    0.0000
  172    0.0000
  173    0.0000
  174    0.0000
  175    0.0000
  176   -0.0000
  177   -0.0000
  178   -0.0000
  179   -0.0000
  180   -0.0000
  181   -0.0000
  182   -0.0000
  183   -0.0000
  184   -0.0001
  185   -0.0001
  186   -0.0002
  187   -0.0002
  188   -0.0003

  MP2 natural orbitals output to ./7R2.mp2nos


int_init: setting std/high accuracies to  1.0D-16  1.0D-32

int_init: setting std/high accuracies to  1.0D-16  1.0D-32


                         mp2 ENERGY GRADIENTS

    atom               coordinates                        gradient
                 x          y          z           x          y          z
   1 O      -2.233469   2.872830   0.018062    0.028224   0.021844   0.019653
   2 C       0.107694   1.759970   0.018062   -0.002838  -0.000555   0.006695
   3 C       2.257301   3.119101   0.018062   -0.000100   0.000568  -0.000833
   4 H      -3.448915   1.773446  -0.993383   -0.025527  -0.022090  -0.022258
   5 C       0.083560  -1.087330   0.018062    0.002636   0.000027  -0.007059
   6 H       4.074950   2.160208   0.018062   -0.000616   0.000001  -0.002695
   7 H       2.171833   5.177688   0.018062    0.000054   0.000018   0.000945
   8 F       2.408777  -2.116791   0.018062   -0.000727   0.000523   0.000907
   9 F      -1.183357  -1.988517  -2.042019    0.001132  -0.000026   0.002503
  10 F      -1.183357  -1.988517   2.078142   -0.002237  -0.000309   0.002142

                 ----------------------------------------
                 |  Time  |  1-e(secs)   |  2-e(secs)   |
                 ----------------------------------------
                 |  CPU   |       0.00   |       0.86   |
                 ----------------------------------------
                 |  WALL  |       0.00   |       0.86   |
                 ----------------------------------------
 -----------------------
 Performance information
 -----------------------

 Timer overhead =  2.32D-07 seconds/call

               Nr. of calls         CPU time (s)                 Wall time (s)                GFlops
             ---------------    -------------------     ------------------------------   -------------------
Name         Min   Avg   Max    Min     Avg     Max     Min     Avg     Max   Mx/calls   Min     Max     Sum
mp2: moin     1     1     1   0.71    0.75    0.78     0.95    0.95    0.95    0.95      0.0     0.0     0.0   
mp2: make     1     1     1   4.13E-2 5.62E-2 6.91E-2  7.02E-2 7.04E-2 7.08E-2 7.08E-2   0.0     0.0     0.0   
mp2: pija     1     1     1   7.45E-3 7.46E-3 7.82E-3  7.45E-3 7.46E-3 7.82E-3 7.82E-3   0.0     0.0     0.0   
mp2: wija     1     1     1   7.99E-3 7.99E-3 8.04E-3  7.99E-3 7.99E-3 8.04E-3 8.04E-3   0.0     0.0     0.0   
mp2: lai      1     1     1   0.11    0.11    0.11     0.11    0.11    0.11    0.11      0.0     0.0     0.0   
mp2: back     1     1     1   0.10    0.11    0.11     0.11    0.11    0.11    0.11      0.0     0.0     0.0   
mp2: nons     1     1     1    1.3     1.6     2.0      1.3     1.6     2.0     2.0      0.0     0.0     0.0   
mp2: laif     1     1     1   0.37    0.38    0.39     0.40    0.40    0.40    0.40      0.0     0.0     0.0   
mp2: cphf     1     1     1    3.4     3.4     3.5      3.9     3.9     3.9     3.9      0.0     0.0     0.0   
mp2: wijf     1     1     1   0.36    0.37    0.37     0.39    0.39    0.39    0.39      0.0     0.0     0.0   
mp2: sep      1     1     1   0.89    0.89    0.90     0.94    0.94    0.94    0.94      0.0     0.0     0.0   
mp2: tota     1     1     1    8.2     8.3     8.4      9.1     9.1     9.1     9.1      0.0     0.0     0.0   

 The average no. of pstat calls per process was 1.20D+01
 with a timing overhead of 2.78D-06s


@ Step       Energy      Delta E   Gmax     Grms     Xrms     Xmax   Walltime
@ ---- ---------------- -------- -------- -------- -------- -------- --------
@    0    -489.78670982  0.0D+00  0.02822  0.01070  0.00000  0.00000     18.3
                                                                    

                                 NWChem SCF Module
                                 -----------------


                                    7 Ref Open



  ao basis        = "ao basis"
  functions       =   188
  atoms           =    10
  closed shells   =    28
  open shells     =     0
  charge          =   0.00
  wavefunction    = RHF 
  input vectors   = ./7R2.movecs
  output vectors  = ./7R2.movecs
  use symmetry    = F
  symmetry adapt  = F


 Summary of "ao basis" -> "ao basis" (spherical)
 ------------------------------------------------------------------------------
       Tag                 Description            Shells   Functions and Types
 ---------------- ------------------------------  ------  ---------------------
 O                        aug-cc-pVDZ                9       23   4s3p2d
 C                        aug-cc-pVDZ                9       23   4s3p2d
 H                        aug-cc-pVDZ                5        9   3s2p
 F                        aug-cc-pVDZ                9       23   4s3p2d



int_init: setting std/high accuracies to  1.0D-16  1.0D-32

 Forming initial guess at      18.3s


 Forcing the number of linearly dependent vectors to be  0

 Loading old vectors from job with title :

7 Ref Open


 Starting SCF solution at      18.3s



 ----------------------------------------------
         Quadratically convergent ROHF

 Convergence threshold     :          1.000E-09
 Maximum no. of iterations :           99
 Final Fock-matrix accuracy:          1.000E-15
 ----------------------------------------------


              iter       energy          gnorm     gmax       time
             ----- ------------------- --------- --------- --------
                 1     -488.5715386021  1.85D-01  3.84D-02     16.6
                 2     -488.5736263131  1.22D-02  1.46D-03     17.5
                 3     -488.5736439509  1.27D-04  1.67D-05     18.9
                 4     -488.5736439531  5.28D-09  8.58D-10     21.6
                 5     -488.5736439531  8.83D-11  2.00D-11     23.0


       Final RHF  results 
       ------------------ 

         Total SCF energy =   -488.573643953071
      One-electron energy =  -1335.737593090060
      Two-electron energy =    515.213515344870
 Nuclear repulsion energy =    331.950433792119

        Time for solution =      6.8s


             Final eigenvalues
             -----------------

              1      
    1  -26.3674
    2  -26.3628
    3  -26.3610
    4  -20.6231
    5  -11.5380
    6  -11.3461
    7  -11.2684
    8   -1.7375
    9   -1.6499
   10   -1.6427
   11   -1.4297
   12   -1.0929
   13   -0.9873
   14   -0.8706
   15   -0.8300
   16   -0.8283
   17   -0.8041
   18   -0.7209
   19   -0.7192
   20   -0.6878
   21   -0.6779
   22   -0.6717
   23   -0.6593
   24   -0.6463
   25   -0.6222
   26   -0.5810
   27   -0.5405
   28   -0.3886
   29    0.0352
   30    0.0458
   31    0.0551
   32    0.0844
   33    0.0909
   34    0.1046
   35    0.1076
   36    0.1258
   37    0.1385
   38    0.1458

                       ROHF Final Molecular Orbital Analysis
                       -------------------------------------

 Vector   11  Occ=2.000000D+00  E=-1.429712D+00
              MO Center= -1.1D+00,  1.3D+00, -6.4D-02, r^2= 6.3D-01
   Bfn.  Coefficient  Atom+Function         Bfn.  Coefficient  Atom+Function  
  ----- ------------  ---------------      ----- ------------  ---------------
     3      0.482103   1 O  s                 2      0.413784   1 O  s         
    27     -0.232248   2 C  s                70      0.194404   4 H  s         

 Vector   12  Occ=2.000000D+00  E=-1.092922D+00
              MO Center=  3.2D-01,  7.2D-01, -7.3D-03, r^2= 2.0D+00
   Bfn.  Coefficient  Atom+Function         Bfn.  Coefficient  Atom+Function  
  ----- ------------  ---------------      ----- ------------  ---------------
    25      0.272595   2 C  s                48      0.229541   3 C  s         
    26      0.207440   2 C  s                80      0.196718   5 C  s         
    49      0.151949   3 C  s         

 Vector   13  Occ=2.000000D+00  E=-9.873006D-01
              MO Center=  2.8D-01, -2.1D-03,  3.2D-03, r^2= 3.2D+00
   Bfn.  Coefficient  Atom+Function         Bfn.  Coefficient  Atom+Function  
  ----- ------------  ---------------      ----- ------------  ---------------
    82      0.357581   5 C  s                80     -0.295008   5 C  s         
    50     -0.247536   3 C  s                49      0.241954   3 C  s         
    48      0.213038   3 C  s               124      0.178963   8 F  px        
    29      0.173282   2 C  py              149     -0.162200   9 F  pz        
   172      0.160530  10 F  pz               54     -0.158196   3 C  px        

 Vector   14  Occ=2.000000D+00  E=-8.705932D-01
              MO Center=  2.2D-01, -1.8D-01,  1.1D-02, r^2= 3.0D+00
   Bfn.  Coefficient  Atom+Function         Bfn.  Coefficient  Atom+Function  
  ----- ------------  ---------------      ----- ------------  ---------------
    84      0.302398   5 C  py              124      0.267411   8 F  px        
    26      0.264385   2 C  s               127      0.176703   8 F  px        
    49     -0.160509   3 C  s                82      0.156936   5 C  s         
    29     -0.153372   2 C  py               48     -0.151886   3 C  s         

 Vector   15  Occ=2.000000D+00  E=-8.299597D-01
              MO Center=  1.5D-01, -8.9D-01,  1.1D-01, r^2= 2.2D+00
   Bfn.  Coefficient  Atom+Function         Bfn.  Coefficient  Atom+Function  
  ----- ------------  ---------------      ----- ------------  ---------------
   172      0.308079  10 F  pz               83      0.296314   5 C  px        
   124     -0.249059   8 F  px              125      0.237405   8 F  py        
   149     -0.233010   9 F  pz              175      0.193954  10 F  pz        
    32     -0.181738   2 C  py              152     -0.152673   9 F  pz        

 Vector   16  Occ=2.000000D+00  E=-8.283454D-01
              MO Center= -1.3D-01, -9.7D-01, -8.9D-02, r^2= 1.9D+00
   Bfn.  Coefficient  Atom+Function         Bfn.  Coefficient  Atom+Function  
  ----- ------------  ---------------      ----- ------------  ---------------
    85      0.298012   5 C  pz              126      0.280720   8 F  pz        
   170      0.273141  10 F  px              147     -0.230204   9 F  px        
   149     -0.224454   9 F  pz              129      0.190223   8 F  pz        
   173      0.175976  10 F  px        

 Vector   17  Occ=2.000000D+00  E=-8.040888D-01
              MO Center= -3.6D-01,  1.0D+00, -8.0D-02, r^2= 3.0D+00
   Bfn.  Coefficient  Atom+Function         Bfn.  Coefficient  Atom+Function  
  ----- ------------  ---------------      ----- ------------  ---------------
     5      0.362006   1 O  px               50      0.302072   3 C  s         
    27     -0.286626   2 C  s                70     -0.282514   4 H  s         
    49     -0.247017   3 C  s                26      0.200817   2 C  s         
     8      0.195424   1 O  px              102     -0.160460   6 H  s         
    28     -0.150675   2 C  px        

 Vector   18  Occ=2.000000D+00  E=-7.208934D-01
[...]
           6    -0.00166     0.05088    -0.02196    -0.02095    -0.00345    -0.00136
           7    -0.01087     0.01067     0.01544     0.00636    -0.05219    -0.04523
           8    -0.00050    -0.02802    -0.08943    -0.02028     0.13938    -0.05209
           9     0.14103    -0.07626     0.03703    -0.02569     0.00006    -0.00209
          10     0.05633    -0.00993    -0.10037     0.20160    -0.00833    -0.10513
          11     0.00477     0.02907     0.12189     0.33516     0.17070     0.11451
          12    -0.21937     0.00649     0.18729    -0.83662     0.00928     0.01960
          13    -0.00167    -0.01876    -0.03439    -0.01544    -0.00057     0.00110
          14     0.00023    -0.00173    -0.00360    -0.00147    -0.03028    -0.00086
          15     0.00203     0.05871    -0.03159     0.00985    -0.00533    -0.00034
          16    -0.02364    -0.00579    -0.02365    -0.00548     0.03867    -0.09094
          17    -0.00361    -0.04523    -0.16867    -0.02825     0.31277    -0.14023
          18     0.23965    -0.01994    -0.00850     0.05205     0.01593    -0.00931
          19    -0.00686     0.04977     0.10038     0.02406    -0.25820     0.05587
          20    -0.00011    -0.02943    -0.08488    -0.02027     0.13358    -0.04938
          21     0.15614    -0.22692     0.12045    -0.06359    -0.01858     0.00173
          22    -0.00802     0.00802     0.01715     0.00251    -0.01409    -0.03397
          23     0.00028     0.06081     0.09864     0.02288    -0.07310    -0.09489
          24    -0.07360     0.02658    -0.01224     0.00683    -0.00107     0.02060
          25    -0.06334    -0.01003     0.01102     0.00272     0.00108     0.07228
          26    -0.00049     0.06603    -0.12798    -0.01964    -0.07070     0.03486
          27     0.04883     0.01788     0.00427    -0.00235     0.01485    -0.06536
          28     0.07269     0.00793    -0.00276     0.00538    -0.00440     0.09562
          29    -0.00139    -0.15497     0.00153    -0.00999    -0.05528     0.01694
          30     0.03615     0.01057    -0.01029     0.00310    -0.01444     0.05268

                   13          14          15          16          17          18
 
 P.Frequency      482.38      565.59      603.53      671.53      739.58      770.75
 
           1    -0.00105    -0.08623    -0.03261    -0.00310    -0.00101    -0.05306
           2    -0.00048     0.03130    -0.04331     0.00950     0.00583     0.01793
           3    -0.01956    -0.00514    -0.00104    -0.02673    -0.03597     0.00254
           4    -0.00496    -0.03040     0.03907    -0.01808    -0.00095     0.01342
           5     0.00468     0.08585     0.10231    -0.00076    -0.00098     0.06026
           6     0.10430    -0.00125     0.01046     0.21946     0.04518    -0.02191
           7     0.00704     0.02702     0.09661     0.00197    -0.00059     0.05472
           8     0.00226     0.00548     0.06785    -0.00341     0.00400     0.05841
           9    -0.01985     0.00123     0.00503    -0.02106    -0.00247     0.00579
          10     0.03526    -0.02489     0.07818     0.06669     0.06510    -0.00673
          11    -0.02290    -0.01355    -0.15850    -0.03426     0.00182    -0.04155
          12    -0.04355    -0.03869     0.00126    -0.07102    -0.13698     0.01797
          13    -0.00537     0.06395    -0.04487     0.00555    -0.00116     0.00438
          14     0.00172     0.03560     0.05432    -0.01084    -0.00957    -0.05168
          15     0.05885     0.00069    -0.00658    -0.03954     0.00109     0.00848
          16     0.00252    -0.06819     0.04304     0.01232     0.08272    -0.00637
          17     0.00390    -0.18675    -0.04779     0.01586    -0.00397    -0.05079
          18     0.03168    -0.03375    -0.03144    -0.02171    -0.76817     0.06936
          19     0.02237     0.25747     0.24400     0.00231    -0.06679     0.21647
          20     0.00011     0.01310     0.07467    -0.00718     0.01246     0.06493
          21    -0.16225     0.03746     0.03541    -0.22400     0.54906    -0.02038
          22    -0.02935     0.05406    -0.11930     0.02810     0.00980     0.10354
          23    -0.00173    -0.07434     0.01263    -0.00944     0.00047    -0.01827
          24    -0.13369    -0.01280     0.02463     0.03093    -0.00110    -0.01272
          25     0.10869     0.00624     0.01925    -0.06204     0.00103    -0.06589
          26    -0.02400    -0.00487    -0.06540    -0.04428     0.00682    -0.01995
          27     0.01263     0.10976    -0.02797    -0.03932    -0.00276    -0.09264
          28    -0.07957    -0.03468     0.05076     0.03889    -0.01258    -0.04957
          29     0.02167    -0.01739    -0.04557     0.05657    -0.00861    -0.01774
          30     0.05624    -0.09120    -0.00168    -0.05264     0.02538     0.10450

                   19          20          21          22          23          24
 
 P.Frequency      879.49      967.42     1109.41     1142.10     1200.35     1282.24
 
           1     0.00139    -0.12181    -0.01726    -0.04720    -0.03761     0.00813
           2    -0.00204     0.04145    -0.00571     0.01764     0.02928    -0.06544
           3     0.00533    -0.00600    -0.00540    -0.00815    -0.00206    -0.02056
           4     0.00578     0.04023     0.01902     0.04815     0.01963    -0.01829
           5    -0.00213    -0.01955    -0.03377    -0.08723    -0.05286    -0.02429
           6    -0.04659    -0.00793     0.03032    -0.00450     0.00586     0.02278
           7    -0.01585     0.11929     0.01762     0.02157    -0.00412     0.04327
           8     0.00385    -0.06590     0.04387     0.07258     0.00862     0.01142
           9     0.14128     0.01502    -0.00108    -0.00079    -0.00020     0.00233
          10    -0.00885    -0.03019    -0.11243    -0.16070    -0.03482    -0.62468
          11     0.01656    -0.06533     0.10563     0.11471     0.03301     0.56767
          12    -0.00731     0.00264    -0.01923     0.02122    -0.02255     0.02613
          13    -0.00171    -0.01865    -0.06785    -0.06062     0.23591     0.01551
          14    -0.00039    -0.00904    -0.07756    -0.14589    -0.04778     0.09807
          15     0.00473    -0.00455    -0.21666     0.12310    -0.03164     0.01376
          16     0.04825     0.37220    -0.01984    -0.03493     0.00197     0.09936
          17    -0.01657     0.41093    -0.03116    -0.05562     0.01000     0.10143
          18    -0.52078     0.03222     0.02020    -0.01570     0.00487    -0.01818
          19     0.07289    -0.38428     0.16508     0.28576     0.10554     0.06817
          20    -0.00956    -0.07546     0.04917     0.08459     0.01148     0.01690
          21    -0.66669    -0.04593    -0.04313     0.07111    -0.00257     0.02283
          22    -0.00047     0.00361     0.00007    -0.01181    -0.08481     0.00831
          23     0.00113    -0.00129     0.01088     0.02316     0.04121    -0.01181
          24    -0.00074    -0.00023     0.01556    -0.00654     0.00815    -0.00197
          25    -0.00007     0.00853     0.04224     0.00948    -0.02309    -0.01190
          26    -0.00013     0.00806     0.03837     0.01613    -0.00443    -0.01383
          27    -0.00081     0.01027     0.06469     0.00015    -0.01038    -0.01357
          28     0.00085     0.00368    -0.00980     0.03153    -0.02309    -0.00457
          29     0.00039     0.00368    -0.00839     0.03964    -0.00620    -0.00947
          30    -0.00235    -0.00600     0.04492    -0.06523     0.02145     0.00666

                   25          26          27          28          29          30
 
 P.Frequency     1399.84     1440.73     1737.59     3220.00     3339.31     3794.01
 
           1     0.06024    -0.01134     0.02187     0.00028    -0.00070     0.04133
           2    -0.03555     0.02940     0.01048    -0.00023     0.00008     0.03746
           3     0.00267     0.00513     0.00621    -0.00008     0.00000     0.02340
           4    -0.14678    -0.00023    -0.18010     0.00764     0.00024     0.00011
           5     0.11270    -0.11343    -0.12000     0.00491    -0.00165     0.00193
           6    -0.01306    -0.00397    -0.01738     0.00061     0.00010     0.00063
           7     0.01161    -0.06059     0.13302    -0.04993     0.05612    -0.00070
           8    -0.03605    -0.00925     0.09113    -0.04380    -0.07630    -0.00024
           9     0.00214    -0.00520     0.01158    -0.00436     0.00711     0.00003
          10    -0.00684     0.17255     0.14677    -0.00219    -0.00033    -0.64340
          11     0.04021    -0.16019    -0.11616     0.00050     0.00067    -0.61447
          12     0.00530    -0.00991    -0.01355     0.00085    -0.00099    -0.37756
          13     0.01895    -0.02221     0.00821    -0.00027     0.00062    -0.00067
          14    -0.12102     0.10637     0.03339    -0.00000     0.00017    -0.00065
          15     0.00772    -0.00678    -0.00112    -0.00006     0.00001    -0.00049
          16     0.25402     0.17995     0.02229     0.53162    -0.64839    -0.00122
          17     0.41681     0.43264    -0.17856    -0.28972     0.33991     0.00036
          18     0.00856     0.01549     0.00465     0.06047    -0.07391    -0.00152
          19     0.22859     0.58809    -0.12135    -0.02826    -0.01350    -0.00041
          20    -0.01756     0.01638     0.11093     0.75315     0.58571    -0.00084
          21     0.02482     0.05617    -0.01862    -0.01519    -0.01073     0.00063
          22    -0.01207     0.01555     0.00261     0.00012    -0.00023     0.00004
          23     0.00927    -0.01360    -0.00494     0.00026    -0.00016     0.00013
          24     0.00080    -0.00107    -0.00032     0.00003    -0.00002     0.00005
          25     0.00566    -0.00146     0.00121    -0.00004    -0.00002     0.00014
          26     0.01297    -0.00765     0.00207    -0.00007     0.00005     0.00023
          27     0.00818    -0.00368     0.00149    -0.00004     0.00000     0.00017
          28     0.00386    -0.00198    -0.00021    -0.00001    -0.00002     0.00004
          29     0.01241    -0.00852     0.00095    -0.00005     0.00003     0.00007
          30    -0.01125     0.00722    -0.00057     0.00005     0.00000     0.00005



 ----------------------------------------------------------------------------
 Normal Eigenvalue ||    Projected Derivative Dipole Moments (debye/angs)
  Mode   [cm**-1]  ||      [d/dqX]             [d/dqY]           [d/dqZ]
 ------ ---------- || ------------------ ------------------ -----------------
    1       -0.000 ||       0.001              -0.031            -0.079
    2       -0.000 ||      -0.005              -0.017             0.020
    3       -0.000 ||      -0.035               0.005            -0.647
    4        0.000 ||      -0.046               0.000            -0.151
    5        0.000 ||       0.015              -0.004            -0.119
    6        0.000 ||       0.018              -0.001            -1.356
    7       64.798 ||       0.056              -0.006            -0.065
    8      241.135 ||      -0.080              -0.047             0.072
    9      247.907 ||      -0.387              -0.006             0.198
   10      291.834 ||       0.524               0.670            -1.276
   11      368.273 ||      -0.132               0.275            -0.227
   12      413.168 ||      -0.330               0.052            -0.209
   13      482.383 ||       0.043              -0.037            -0.017
   14      565.592 ||       0.237               0.356            -1.462
   15      603.535 ||       0.372               0.380            -1.609
   16      671.528 ||       0.122              -0.191            -0.142
   17      739.585 ||       0.228              -0.048            -0.375
   18      770.745 ||       0.318               0.005            -0.836
   19      879.490 ||      -0.100              -0.003             0.982
   20      967.422 ||       0.709              -0.184             0.369
   21     1109.414 ||      -0.681              -0.592            -1.714
   22     1142.101 ||      -0.360              -1.343             2.750
   23     1200.351 ||       2.589              -0.429             0.504
   24     1282.244 ||      -0.995               1.820             0.402
   25     1399.841 ||      -1.243              -0.777            -1.861
   26     1440.729 ||       0.997               0.860             1.874
   27     1737.589 ||      -0.938              -0.051             1.841
   28     3219.995 ||       0.210               0.001            -0.060
   29     3339.310 ||      -0.073               0.022             0.024
   30     3794.012 ||      -1.364              -0.704            -0.557
 ----------------------------------------------------------------------------



  
  
 ----------------------------------------------------------------------------
 Normal Eigenvalue ||           Projected Infra Red Intensities
  Mode   [cm**-1]  || [atomic units] [(debye/angs)**2] [(KM/mol)] [arbitrary]
 ------ ---------- || -------------- ----------------- ---------- -----------
    1       -0.000 ||    0.000310           0.007         0.303       0.039
    2       -0.000 ||    0.000031           0.001         0.030       0.004
    3       -0.000 ||    0.018175           0.419        17.718       2.255
    4        0.000 ||    0.001076           0.025         1.049       0.134
    5        0.000 ||    0.000624           0.014         0.609       0.077
    6        0.000 ||    0.079724           1.839        77.719       9.893
    7       64.798 ||    0.000322           0.007         0.314       0.040
    8      241.135 ||    0.000602           0.014         0.586       0.075
    9      247.907 ||    0.008201           0.189         7.994       1.018
   10      291.834 ||    0.101920           2.351        99.357      12.647
   11      368.273 ||    0.006265           0.145         6.107       0.777
   12      413.168 ||    0.006724           0.155         6.555       0.834
   13      482.383 ||    0.000152           0.004         0.148       0.019
   14      565.592 ||    0.100521           2.319        97.993      12.473
   15      603.535 ||    0.124532           2.873       121.400      15.453
   16      671.528 ||    0.003112           0.072         3.034       0.386
   17      739.585 ||    0.008459           0.195         8.246       1.050
   18      770.745 ||    0.034660           0.800        33.789       4.301
   19      879.490 ||    0.042254           0.975        41.191       5.243
   20      967.422 ||    0.029129           0.672        28.397       3.615
   21     1109.414 ||    0.162585           3.751       158.496      20.175
   22     1142.101 ||    0.411500           9.494       401.150      51.062
   23     1200.351 ||    0.309636           7.144       301.849      38.422
   24     1282.244 ||    0.193423           4.462       188.559      24.001
   25     1399.841 ||    0.243209           5.611       237.092      30.179
   26     1440.729 ||    0.227442           5.247       221.722      28.223
   27     1737.589 ||    0.185147           4.271       180.491      22.974
   28     3219.995 ||    0.002074           0.048         2.022       0.257
   29     3339.310 ||    0.000275           0.006         0.268       0.034
   30     3794.012 ||    0.115564           2.666       112.658      14.340
 ----------------------------------------------------------------------------



 vib:animation  F

 Task  times  cpu:      823.2s     wall:      888.7s


                                NWChem Input Module
                                -------------------


 Summary of allocated global arrays
-----------------------------------
  No active global arrays


MA_summarize_allocated_blocks: starting scan ...
MA_summarize_allocated_blocks: scan completed: 0 heap blocks, 0 stack blocks
MA usage statistics:

	allocation statistics:
					      heap	     stack
					      ----	     -----
	current number of blocks	         0	         0
	maximum number of blocks	        22	        39
	current total bytes		         0	         0
	maximum total bytes		  35697304	  26337416
	maximum total K-bytes		     35698	     26338
	maximum total M-bytes		        36	        27


                                     CITATION
                                     --------
                Please cite the following reference when publishing
                           results obtained with NWChem:

          E. Apra, E. J. Bylaska, W. A. de Jong, N. Govind, K. Kowalski,
       T. P. Straatsma, M. Valiev, H. J. J. van Dam, Y. Alexeev, J. Anchell,
       V. Anisimov, F. W. Aquino, R. Atta-Fynn, J. Autschbach, N. P. Bauman,
     J. C. Becca, D. E. Bernholdt, K. Bhaskaran-Nair, S. Bogatko, P. Borowski,
         J. Boschen, J. Brabec, A. Bruner, E. Cauet, Y. Chen, G. N. Chuev,
      C. J. Cramer, J. Daily, M. J. O. Deegan, T. H. Dunning Jr., M. Dupuis,
   K. G. Dyall, G. I. Fann, S. A. Fischer, A. Fonari, H. Fruchtl, L. Gagliardi,
      J. Garza, N. Gawande, S. Ghosh, K. Glaesemann, A. W. Gotz, J. Hammond,
       V. Helms, E. D. Hermes, K. Hirao, S. Hirata, M. Jacquelin, L. Jensen,
   B. G. Johnson, H. Jonsson, R. A. Kendall, M. Klemm, R. Kobayashi, V. Konkov,
      S. Krishnamoorthy, M. Krishnan, Z. Lin, R. D. Lins, R. J. Littlefield,
      A. J. Logsdail, K. Lopata, W. Ma, A. V. Marenich, J. Martin del Campo,
   D. Mejia-Rodriguez, J. E. Moore, J. M. Mullin, T. Nakajima, D. R. Nascimento,
    J. A. Nichols, P. J. Nichols, J. Nieplocha, A. Otero-de-la-Roza, B. Palmer,
    A. Panyala, T. Pirojsirikul, B. Peng, R. Peverati, J. Pittner, L. Pollack,
   R. M. Richard, P. Sadayappan, G. C. Schatz, W. A. Shelton, D. W. Silverstein,
   D. M. A. Smith, T. A. Soares, D. Song, M. Swart, H. L. Taylor, G. S. Thomas,
            V. Tipparaju, D. G. Truhlar, K. Tsemekhman, T. Van Voorhis,
      A. Vazquez-Mayagoitia, P. Verma, O. Villa, A. Vishnu, K. D. Vogiatzis,
        D. Wang, J. H. Weare, M. J. Williamson, T. L. Windus, K. Wolinski,
        A. T. Wong, Q. Wu, C. Yang, Q. Yu, M. Zacharias, Z. Zhang, Y. Zhao,
                                and R. J. Harrison
                        "NWChem: Past, present, and future
                         J. Chem. Phys. 152, 184102 (2020)
                               doi:10.1063/5.0004997

                                      AUTHORS
                                      -------
  E. Apra, E. J. Bylaska, N. Govind, K. Kowalski, M. Valiev, D. Mejia-Rodriguez,
       A. Kunitsa, N. P. Bauman, A. Panyala, W. A. de Jong, T. P. Straatsma,
   H. J. J. van Dam, D. Wang, T. L. Windus, J. Hammond, J. Autschbach, A. Woods,
    K. Bhaskaran-Nair, J. Brabec, K. Lopata, S. A. Fischer, S. Krishnamoorthy,
     M. Jacquelin, W. Ma, M. Klemm, O. Villa, Y. Chen, V. Anisimov, F. Aquino,
     S. Hirata, M. T. Hackler, E. Hermes, L. Jensen, J. E. Moore, J. C. Becca,
      V. Konjkov, T. Risthaus, M. Malagoli, A. Marenich, A. Otero-de-la-Roza,
        J. Mullin, P. Nichols, R. Peverati, J. Pittner, Y. Zhao, P.-D. Fan,
        A. Fonari, M. J. Williamson, R. J. Harrison, J. R. Rehr, M. Dupuis,
     D. Silverstein, D. M. A. Smith, J. Nieplocha, V. Tipparaju, M. Krishnan,
     B. E. Van Kuiken, A. Vazquez-Mayagoitia, M. Swart, Q. Wu, T. Van Voorhis,
     A. A. Auer, M. Nooijen, L. D. Crosby, E. Brown, G. Cisneros, G. I. Fann,
   H. Fruchtl, J. Garza, K. Hirao, R. A. Kendall, J. A. Nichols, K. Tsemekhman,
    K. Wolinski, J. Anchell, D. E. Bernholdt, P. Borowski, T. Clark, D. Clerc,
   H. Dachsel, M. J. O. Deegan, K. Dyall, D. Elwood, E. Glendening, M. Gutowski,
   A. C. Hess, J. Jaffe, B. G. Johnson, J. Ju, R. Kobayashi, R. Kutteh, Z. Lin,
   R. Littlefield, X. Long, B. Meng, T. Nakajima, S. Niu, L. Pollack, M. Rosing,
   K. Glaesemann, G. Sandrone, M. Stave, H. Taylor, G. Thomas, J. H. van Lenthe,
                               A. T. Wong, Z. Zhang.

 Total times  cpu:     1345.3s     wall:     1457.6s
