 Entering Gaussian System, Link 0=g16
 Input=8.gjf
 Output=8.log
 Initial command:
 /sw/contrib/gaussian/g16/A03/g16/l1.exe "/gscratch/scrubbed/gds001/Gau-6591.inp" -scrdir="/gscratch/scrubbed/gds001/"
 Entering Link 1 = /sw/contrib/gaussian/g16/A03/g16/l1.exe PID=      6592.
  
 Copyright (c) 1988,1990,1992,1993,1995,1998,2003,2009,2016,
            Gaussian, Inc.  All Rights Reserved.
  
 This is part of the Gaussian(R) 16 program.  It is based on
 the Gaussian(R) 09 system (copyright 2009, Gaussian, Inc.),
 the Gaussian(R) 03 system (copyright 2003, Gaussian, Inc.),
 the Gaussian(R) 98 system (copyright 1998, Gaussian, Inc.),
 the Gaussian(R) 94 system (copyright 1995, Gaussian, Inc.),
 the Gaussian 92(TM) system (copyright 1992, Gaussian, Inc.),
 the Gaussian 90(TM) system (copyright 1990, Gaussian, Inc.),
 the Gaussian 88(TM) system (copyright 1988, Gaussian, Inc.),
 the Gaussian 86(TM) system (copyright 1986, Carnegie Mellon
 University), and the Gaussian 82(TM) system (copyright 1983,
 Carnegie Mellon University). Gaussian is a federally registered
 trademark of Gaussian, Inc.
  
 This software contains proprietary and confidential information,
 including trade secrets, belonging to Gaussian, Inc.
  
 This software is provided under written license and may be
 used, copied, transmitted, or stored only in accord with that
 written license.
  
 The following legend is applicable only to US Government
 contracts under FAR:
  
                    RESTRICTED RIGHTS LEGEND
  
 Use, reproduction and disclosure by the US Government is
 subject to restrictions as set forth in subparagraphs (a)
 and (c) of the Commercial Computer Software - Restricted
 Rights clause in FAR 52.227-19.
  
 Gaussian, Inc.
 340 Quinnipiac St., Bldg. 40, Wallingford CT 06492
  
  
 ---------------------------------------------------------------
 Warning -- This program may not be used in any manner that
 competes with the business of Gaussian, Inc. or will provide
 assistance to any competitor of Gaussian, Inc.  The licensee
 of this program is prohibited from giving any competitor of
 Gaussian, Inc. access to this program.  By using this program,
 the user acknowledges that Gaussian, Inc. is engaged in the
 business of creating and licensing software in the field of
 computational chemistry and represents and warrants to the
 licensee that it is not a competitor of Gaussian, Inc. and that
 it will not use this program in any manner prohibited above.
 ---------------------------------------------------------------
  

 Cite this work as:
 Gaussian 16, Revision A.03,
 M. J. Frisch, G. W. Trucks, H. B. Schlegel, G. E. Scuseria, 
 M. A. Robb, J. R. Cheeseman, G. Scalmani, V. Barone, 
 G. A. Petersson, H. Nakatsuji, X. Li, M. Caricato, A. V. Marenich, 
 J. Bloino, B. G. Janesko, R. Gomperts, B. Mennucci, H. P. Hratchian, 
 J. V. Ortiz, A. F. Izmaylov, J. L. Sonnenberg, D. Williams-Young, 
 F. Ding, F. Lipparini, F. Egidi, J. Goings, B. Peng, A. Petrone, 
 T. Henderson, D. Ranasinghe, V. G. Zakrzewski, J. Gao, N. Rega, 
 G. Zheng, W. Liang, M. Hada, M. Ehara, K. Toyota, R. Fukuda, 
 J. Hasegawa, M. Ishida, T. Nakajima, Y. Honda, O. Kitao, H. Nakai, 
 T. Vreven, K. Throssell, J. A. Montgomery, Jr., J. E. Peralta, 
 F. Ogliaro, M. J. Bearpark, J. J. Heyd, E. N. Brothers, K. N. Kudin, 
 V. N. Staroverov, T. A. Keith, R. Kobayashi, J. Normand, 
 K. Raghavachari, A. P. Rendell, J. C. Burant, S. S. Iyengar, 
 J. Tomasi, M. Cossi, J. M. Millam, M. Klene, C. Adamo, R. Cammi, 
 J. W. Ochterski, R. L. Martin, K. Morokuma, O. Farkas, 
 J. B. Foresman, and D. J. Fox, Gaussian, Inc., Wallingford CT, 2016.
 
 ******************************************
 Gaussian 16:  ES64L-G16RevA.03 25-Dec-2016
                27-Oct-2020 
 ******************************************
 %nprocshared=28
 Will use up to   28 processors via shared memory.
 %mem=41GB
 %chk=8.chk
 -------------------------------------------------------
 # MP2/6-31G** Opt=(Recalc=50) Freq=(vibrot, anharmonic)
 -------------------------------------------------------
 1/10=4,18=20,19=15,38=1,71=50,80=1/1,3;
 2/9=110,12=2,17=6,18=5,40=1/2;
 3/5=1,6=6,7=101,11=9,25=1,30=1,71=2,140=1/1,2,3;
 4//1;
 5/5=2,38=5/2;
 8/6=3,8=1,10=2,19=11,30=-1/1;
 9/15=3,16=-3/6;
 11/6=1,8=1,15=11,17=12,24=-1,27=1,28=-2,29=300,32=6,42=3/1,2,10;
 10/6=2,21=1/2;
 8/6=4,8=1,10=2,19=11,30=-1/11,4;
 10/5=1,20=4/2;
 11/12=2,14=11,16=1,17=2,28=-2,42=3/2,10,12;
 6/7=2,8=2,9=2,10=2/1;
 7/10=1,12=2,25=1,44=2/1,2,3,16;
 1/10=4,18=20,19=15,71=50,80=1/3(3);
 2/9=110/2;
 7/9=1,25=1,44=-1/16;
 99//99;
 2/9=110/2;
 3/5=1,6=6,7=101,11=9,25=1,30=1,71=2,140=1/1,2,3;
 4/5=5,16=3,69=1/1;
 5/5=2,38=5/2;
 8/6=3,8=1,10=2,19=11,30=-1/1;
 9/15=3,16=-3/6;
 11/6=1,8=1,15=11,17=12,24=-1,27=1,28=-2,29=300,32=6,42=3/1,2,10;
 10/6=2,21=1/2;
 8/6=4,8=1,10=2,19=11,30=-1/11,4;
 10/5=1,20=4/2;
 11/12=2,14=11,16=1,17=2,28=-2,42=3/2,10,12;
 7/10=1,12=2,25=1,44=2/1,2,3,16;
 1/18=20,19=15,71=50,80=1/3(-12);
 2/9=110/2;
 6/7=2,8=2,9=2,10=2/1;
 7/9=1,25=1,44=-1/16;
 99//99;
 ---
 COH
 ---
 Symbolic Z-matrix:
 Charge =  0 Multiplicity = 1
 C                    -1.70061   2.66952   0. 
 C                    -1.71039   1.32773   0. 
 C                    -0.45576   0.55357   0. 
 O                    -0.55863   3.44606   0. 
 O                     0.64344   1.09809   0. 
 C                    -3.01166   3.377     0. 
 H                    -2.6314    0.75523   0. 
 H                    -0.57832  -0.54195   0. 
 H                     0.21776   2.84036   0. 
 O                    -4.09194   2.79759   0. 
 H                    -2.93805   4.47739   0. 
 

 GradGradGradGradGradGradGradGradGradGradGradGradGradGradGradGradGradGrad
 Berny optimization.
 Initialization pass.
                           ----------------------------
                           !    Initial Parameters    !
                           ! (Angstroms and Degrees)  !
 --------------------------                            --------------------------
 ! Name  Definition              Value          Derivative Info.                !
 --------------------------------------------------------------------------------
 ! R1    R(1,2)                  1.3418         calculate D2E/DX2 analytically  !
 ! R2    R(1,4)                  1.381          calculate D2E/DX2 analytically  !
 ! R3    R(1,6)                  1.4897         calculate D2E/DX2 analytically  !
 ! R4    R(2,3)                  1.4742         calculate D2E/DX2 analytically  !
 ! R5    R(2,7)                  1.0844         calculate D2E/DX2 analytically  !
 ! R6    R(3,5)                  1.2267         calculate D2E/DX2 analytically  !
 ! R7    R(3,8)                  1.1024         calculate D2E/DX2 analytically  !
 ! R8    R(4,9)                  0.9847         calculate D2E/DX2 analytically  !
 ! R9    R(6,10)                 1.2259         calculate D2E/DX2 analytically  !
 ! R10   R(6,11)                 1.1029         calculate D2E/DX2 analytically  !
 ! A1    A(2,1,4)              124.6329         calculate D2E/DX2 analytically  !
 ! A2    A(2,1,6)              117.9351         calculate D2E/DX2 analytically  !
 ! A3    A(4,1,6)              117.432          calculate D2E/DX2 analytically  !
 ! A4    A(1,2,3)              121.2588         calculate D2E/DX2 analytically  !
 ! A5    A(1,2,7)              122.2826         calculate D2E/DX2 analytically  !
 ! A6    A(3,2,7)              116.4585         calculate D2E/DX2 analytically  !
 ! A7    A(2,3,5)              121.9708         calculate D2E/DX2 analytically  !
 ! A8    A(2,3,8)              115.2928         calculate D2E/DX2 analytically  !
 ! A9    A(5,3,8)              122.7364         calculate D2E/DX2 analytically  !
 ! A10   A(1,4,9)              107.8247         calculate D2E/DX2 analytically  !
 ! A11   A(1,6,10)             123.4406         calculate D2E/DX2 analytically  !
 ! A12   A(1,6,11)             114.5259         calculate D2E/DX2 analytically  !
 ! A13   A(10,6,11)            122.0335         calculate D2E/DX2 analytically  !
 ! D1    D(4,1,2,3)              0.0            calculate D2E/DX2 analytically  !
 ! D2    D(4,1,2,7)            180.0            calculate D2E/DX2 analytically  !
 ! D3    D(6,1,2,3)            180.0            calculate D2E/DX2 analytically  !
 ! D4    D(6,1,2,7)              0.0            calculate D2E/DX2 analytically  !
 ! D5    D(2,1,4,9)              0.0            calculate D2E/DX2 analytically  !
 ! D6    D(6,1,4,9)            180.0            calculate D2E/DX2 analytically  !
 ! D7    D(2,1,6,10)             0.0            calculate D2E/DX2 analytically  !
 ! D8    D(2,1,6,11)           180.0            calculate D2E/DX2 analytically  !
 ! D9    D(4,1,6,10)           180.0            calculate D2E/DX2 analytically  !
 ! D10   D(4,1,6,11)             0.0            calculate D2E/DX2 analytically  !
 ! D11   D(1,2,3,5)              0.0            calculate D2E/DX2 analytically  !
 ! D12   D(1,2,3,8)            180.0            calculate D2E/DX2 analytically  !
 ! D13   D(7,2,3,5)            180.0            calculate D2E/DX2 analytically  !
 ! D14   D(7,2,3,8)              0.0            calculate D2E/DX2 analytically  !
 --------------------------------------------------------------------------------
 Trust Radius=3.00D-01 FncErr=1.00D-07 GrdErr=1.00D-07 EigMax=2.50D+02 EigMin=1.00D-04
 Number of steps in this run=     47 maximum allowed number of steps=    100.
 GradGradGradGradGradGradGradGradGradGradGradGradGradGradGradGradGradGrad

                          Input orientation:                          
 ---------------------------------------------------------------------
 Center     Atomic      Atomic             Coordinates (Angstroms)
 Number     Number       Type             X           Y           Z
 ---------------------------------------------------------------------
      1          6           0       -1.700614    2.669522    0.000000
      2          6           0       -1.710390    1.327729    0.000000
      3          6           0       -0.455761    0.553572    0.000000
      4          8           0       -0.558628    3.446064    0.000000
      5          8           0        0.643438    1.098095    0.000000
      6          6           0       -3.011655    3.376997    0.000000
      7          1           0       -2.631402    0.755225    0.000000
      8          1           0       -0.578323   -0.541953    0.000000
      9          1           0        0.217758    2.840361    0.000000
     10          8           0       -4.091940    2.797588    0.000000
     11          1           0       -2.938053    4.477392    0.000000
 ---------------------------------------------------------------------
                    Distance matrix (angstroms):
                    1          2          3          4          5
     1  C    0.000000
     2  C    1.341829   0.000000
     3  C    2.454975   1.474250   0.000000
     4  O    1.380996   2.411203   2.894321   0.000000
     5  O    2.822049   2.365002   1.226679   2.637787   0.000000
     6  C    1.489748   2.427507   3.808454   2.454000   4.307331
     7  H    2.128591   1.084446   2.184966   3.396617   3.292740
     8  H    3.401928   2.185701   1.102360   3.988066   2.045106
     9  H    1.925963   2.450675   2.383911   0.984708   1.793515
    10  O    2.394753   2.798618   4.272868   3.592327   5.031111
    11  H    2.190811   3.380464   4.643074   2.593319   4.924096
                    6          7          8          9         10
     6  C    0.000000
     7  H    2.649204   0.000000
     8  H    4.612947   2.428540   0.000000
     9  H    3.273696   3.530652   3.474737   0.000000
    10  O    1.225859   2.510859   4.847477   4.309910   0.000000
    11  H    1.102854   3.734778   5.546364   3.555139   2.037940
                   11
    11  H    0.000000
 Stoichiometry    C4H4O3
 Framework group  CS[SG(C4H4O3)]
 Deg. of freedom    19
 Full point group                 CS      NOp   2
 Largest Abelian subgroup         CS      NOp   2
 Largest concise Abelian subgroup C1      NOp   1
                         Standard orientation:                         
 ---------------------------------------------------------------------
 Center     Atomic      Atomic             Coordinates (Angstroms)
 Number     Number       Type             X           Y           Z
 ---------------------------------------------------------------------
      1          6           0        0.000000    0.511817    0.000000
      2          6           0        0.471710   -0.744366   -0.000000
      3          6           0       -0.439160   -1.903559   -0.000000
      4          8           0       -1.339675    0.847107    0.000000
      5          8           0       -1.658690   -1.771318    0.000000
      6          6           0        0.986811    1.627861   -0.000000
      7          1           0        1.533621   -0.964296   -0.000000
      8          1           0        0.053531   -2.889690   -0.000000
      9          1           0       -1.859682    0.010899    0.000000
     10          8           0        2.200612    1.456352   -0.000000
     11          1           0        0.538400    2.635440    0.000000
 ---------------------------------------------------------------------
 Rotational constants (GHZ):           6.3692718           1.7388187           1.3659207
 Standard basis: 6-31G(d,p) (6D, 7F)
 There are    93 symmetry adapted cartesian basis functions of A'  symmetry.
 There are    32 symmetry adapted cartesian basis functions of A"  symmetry.
 There are    93 symmetry adapted basis functions of A'  symmetry.
 There are    32 symmetry adapted basis functions of A"  symmetry.
   125 basis functions,   224 primitive gaussians,   125 cartesian basis functions
    26 alpha electrons       26 beta electrons
       nuclear repulsion energy       275.8249538800 Hartrees.
 NAtoms=   11 NActive=   11 NUniq=   11 SFac= 1.00D+00 NAtFMM=   60 NAOKFM=F Big=F
 Integral buffers will be    131072 words long.
 Raffenetti 1 integral format.
 Two-electron integral symmetry is turned on.
 One-electron integrals computed using PRISM.
 NBasis=   125 RedAO= T EigKep=  1.46D-03  NBF=    93    32
 NBsUse=   125 1.00D-06 EigRej= -1.00D+00 NBFU=    93    32
 ExpMin= 1.61D-01 ExpMax= 5.48D+03 ExpMxC= 8.25D+02 IAcc=3 IRadAn=         5 AccDes= 0.00D+00
 Harris functional with IExCor=  205 and IRadAn=       5 diagonalized for initial guess.
 HarFok:  IExCor=  205 AccDes= 0.00D+00 IRadAn=         5 IDoV= 1 UseB2=F ITyADJ=14
 ICtDFT=  3500011 ScaDFX=  1.000000  1.000000  1.000000  1.000000
 FoFCou: FMM=F IPFlag=           0 FMFlag=      100000 FMFlg1=           0
         NFxFlg=           0 DoJE=T BraDBF=F KetDBF=T FulRan=T
         wScrn=  0.000000 ICntrl=       500 IOpCl=  0 I1Cent=   200000004 NGrid=           0
         NMat0=    1 NMatS0=      1 NMatT0=    0 NMatD0=    1 NMtDS0=    0 NMtDT0=    0
 Petite list used in FoFCou.
 Initial guess orbital symmetries:
       Occupied  (A') (A') (A') (A') (A') (A') (A') (A') (A') (A')
                 (A') (A') (A') (A') (A') (A') (A') (A') (A') (A")
                 (A") (A') (A") (A') (A") (A')
       Virtual   (A") (A") (A") (A') (A') (A') (A') (A') (A') (A')
                 (A') (A') (A') (A") (A') (A") (A') (A') (A') (A')
                 (A') (A") (A") (A') (A') (A') (A') (A') (A') (A')
                 (A") (A") (A") (A') (A') (A') (A') (A') (A') (A')
                 (A') (A") (A") (A') (A") (A") (A") (A') (A") (A')
                 (A') (A') (A") (A') (A') (A") (A') (A') (A') (A")
                 (A') (A') (A') (A") (A') (A') (A") (A') (A') (A")
                 (A') (A") (A') (A") (A') (A") (A") (A") (A') (A')
                 (A") (A') (A') (A') (A') (A') (A') (A') (A') (A')
                 (A') (A') (A') (A') (A') (A') (A') (A') (A')
 The electronic state of the initial guess is 1-A'.
 Keep R1 ints in memory in symmetry-blocked form, NReq=47462677.
 Requested convergence on RMS density matrix=1.00D-08 within 128 cycles.
 Requested convergence on MAX density matrix=1.00D-06.
 Requested convergence on             energy=1.00D-06.
 No special actions if energy rises.
 SCF Done:  E(RHF) =  -378.355712313     A.U. after   15 cycles
            NFock= 15  Conv=0.73D-08     -V/T= 2.0033
 ExpMin= 1.61D-01 ExpMax= 5.48D+03 ExpMxC= 8.25D+02 IAcc=3 IRadAn=         5 AccDes= 0.00D+00
 HarFok:  IExCor=  205 AccDes= 0.00D+00 IRadAn=         5 IDoV=-2 UseB2=F ITyADJ=14
 ICtDFT= 12500011 ScaDFX=  1.000000  1.000000  1.000000  1.000000
 Range of M.O.s used for correlation:     8   125
 NBasis=   125 NAE=    26 NBE=    26 NFC=     7 NFV=     0
 NROrb=    118 NOA=    19 NOB=    19 NVA=    99 NVB=    99
 Disk-based method using ON**2 memory for 19 occupieds at a time.
 Permanent disk used for amplitudes=     8202051 words.
 Estimated scratch disk usage=    69803519 words.
 Actual    scratch disk usage=    65609215 words.
 JobTyp=1 Pass  1:  I=   8 to  26 NPSUse= 28 ParTrn=T ParDer=T DoDerP=T.
 (rs|ai) integrals will be sorted in core.
 Spin components of T(2) and E(2):
     alpha-alpha T2 =       0.4476988729D-01 E2=     -0.1410271085D+00
     alpha-beta  T2 =       0.2466151102D+00 E2=     -0.7774842849D+00
     beta-beta   T2 =       0.4476988729D-01 E2=     -0.1410271085D+00
 ANorm=    0.1155921660D+01
 E2 =    -0.1059538502D+01 EUMP2 =    -0.37941525081474D+03
 G2DrvN: will do    12 centers at a time, making    1 passes.
 Calling FoFCou, ICntrl=  3107 FMM=F I1Cent=   0 AccDes= 0.00D+00.
 End of G2Drv F.D. properties file   721 does not exist.
 End of G2Drv F.D. properties file   722 does not exist.
 End of G2Drv F.D. properties file   788 does not exist.
          IDoAtm=11111111111
          Differentiating once with respect to electric field.
                with respect to dipole field.
          Differentiating once with respect to nuclear coordinates.
 Keep R1 ints in memory in symmetry-blocked form, NReq=47464096.
          There are    36 degrees of freedom in the 1st order CPHF.  IDoFFX=6 NUNeed=    36.
     33 vectors produced by pass  0 Test12= 7.15D-15 2.78D-09 XBig12= 2.00D+01 3.38D+00.
 AX will form    33 AO Fock derivatives at one time.
     33 vectors produced by pass  1 Test12= 7.15D-15 2.78D-09 XBig12= 1.19D+00 1.62D-01.
     33 vectors produced by pass  2 Test12= 7.15D-15 2.78D-09 XBig12= 6.04D-02 5.70D-02.
     33 vectors produced by pass  3 Test12= 7.15D-15 2.78D-09 XBig12= 8.26D-04 4.84D-03.
     33 vectors produced by pass  4 Test12= 7.15D-15 2.78D-09 XBig12= 6.53D-06 3.17D-04.
     33 vectors produced by pass  5 Test12= 7.15D-15 2.78D-09 XBig12= 3.04D-08 2.45D-05.
     32 vectors produced by pass  6 Test12= 7.15D-15 2.78D-09 XBig12= 1.34D-10 1.54D-06.
      9 vectors produced by pass  7 Test12= 7.15D-15 2.78D-09 XBig12= 6.15D-13 9.31D-08.
      3 vectors produced by pass  8 Test12= 7.15D-15 2.78D-09 XBig12= 3.17D-15 8.14D-09.
 InvSVY:  IOpt=1 It=  1 EMax= 1.78D-15
 Solved reduced A of dimension   242 with    36 vectors.
 End of Minotr F.D. properties file   721 does not exist.
 End of Minotr F.D. properties file   722 does not exist.
 End of Minotr F.D. properties file   788 does not exist.
 MDV=  5502926848.
 Form MO integral derivatives with frozen-active canonical formalism.
 Discarding MO integrals.
 Reordered first order wavefunction length =     13250952
 In DefCFB: NBatch=  1 ICI= 26 ICA= 99 LFMax= 50
            Large arrays: LIAPS=   160875000 LIARS=    33783750 words.
 Semi-Direct transformation.
 ModeAB=           4 MOrb=            26 LenV=    5502435103
 LASXX=     21578050 LTotXX=    21578050 LenRXX=    43708951
 LTotAB=    22130901 MaxLAS=    25018500 LenRXY=           0
 NonZer=    65287001 LenScr=    98041856 LnRSAI=    25018500
 LnScr1=    37748736 LExtra=           0 Total=    204518043
 MaxDsk=          -1 SrtSym=           T ITran=            4
 JobTyp=0 Pass  1:  I=   1 to  26.
 (rs|ai) integrals will be sorted in core.
 Spin components of T(2) and E(2):
     alpha-alpha T2 =       0.4476988729D-01 E2=     -0.1410271085D+00
     alpha-beta  T2 =       0.2466151102D+00 E2=     -0.7774842849D+00
     beta-beta   T2 =       0.4476988729D-01 E2=     -0.1410271085D+00
 ANorm=    0.1634720089D+01
 E2 =    -0.1059538502D+01 EUMP2 =    -0.37941525081474D+03
          IDoAtm=11111111111
          Differentiating once with respect to electric field.
                with respect to dipole field.
          Differentiating once with respect to nuclear coordinates.
          There are     1 degrees of freedom in the 1st order CPHF.  IDoFFX=0 NUNeed=     1.
 LinEq1:  Iter=  0 NonCon=     1 RMS=6.70D-03 Max=1.60D-01 NDo=     1
 LinEq1:  Iter=  1 NonCon=     1 RMS=2.48D-03 Max=5.36D-02 NDo=     1
 LinEq1:  Iter=  2 NonCon=     1 RMS=7.88D-04 Max=1.30D-02 NDo=     1
 LinEq1:  Iter=  3 NonCon=     1 RMS=2.92D-04 Max=4.65D-03 NDo=     1
 LinEq1:  Iter=  4 NonCon=     1 RMS=8.66D-05 Max=8.35D-04 NDo=     1
 LinEq1:  Iter=  5 NonCon=     1 RMS=3.67D-05 Max=5.21D-04 NDo=     1
 LinEq1:  Iter=  6 NonCon=     1 RMS=1.21D-05 Max=2.08D-04 NDo=     1
 LinEq1:  Iter=  7 NonCon=     1 RMS=5.38D-06 Max=9.06D-05 NDo=     1
 LinEq1:  Iter=  8 NonCon=     1 RMS=1.99D-06 Max=3.42D-05 NDo=     1
 LinEq1:  Iter=  9 NonCon=     1 RMS=6.86D-07 Max=2.05D-05 NDo=     1
 LinEq1:  Iter= 10 NonCon=     1 RMS=2.34D-07 Max=2.21D-06 NDo=     1
 LinEq1:  Iter= 11 NonCon=     1 RMS=8.21D-08 Max=1.78D-06 NDo=     1
 LinEq1:  Iter= 12 NonCon=     1 RMS=2.26D-08 Max=2.96D-07 NDo=     1
 LinEq1:  Iter= 13 NonCon=     1 RMS=6.79D-09 Max=8.49D-08 NDo=     1
 LinEq1:  Iter= 14 NonCon=     1 RMS=1.57D-09 Max=1.96D-08 NDo=     1
 LinEq1:  Iter= 15 NonCon=     1 RMS=4.04D-10 Max=4.14D-09 NDo=     1
 LinEq1:  Iter= 16 NonCon=     1 RMS=9.71D-11 Max=1.04D-09 NDo=     1
 LinEq1:  Iter= 17 NonCon=     0 RMS=3.07D-11 Max=2.71D-10 NDo=     1
 Linear equations converged to 1.000D-10 1.000D-09 after    17 iterations.
 End of Minotr F.D. properties file   721 does not exist.
 End of Minotr F.D. properties file   722 does not exist.
 End of Minotr F.D. properties file   788 does not exist.
 Symmetrizing basis deriv contribution to polar:
 IMax=3 JMax=2 DiffMx= 0.00D+00
 G2DrvN: will do    12 centers at a time, making    1 passes.
 Calling FoFCou, ICntrl=  3107 FMM=F I1Cent=   0 AccDes= 0.00D+00.
 End of G2Drv F.D. properties file   721 does not exist.
 End of G2Drv F.D. properties file   722 does not exist.
 End of G2Drv F.D. properties file   788 does not exist.
 R2 and R3 integrals will be kept in memory, NReq=    63023625.
 DD1Dir will call FoFMem   1 times, MxPair=       702
 NAB=   351 NAA=     0 NBB=     0.
 Discarding MO integrals.

 **********************************************************************

            Population analysis using the SCF density.

 **********************************************************************

 Orbital symmetries:
       Occupied  (A') (A') (A') (A') (A') (A') (A') (A') (A') (A')
                 (A') (A') (A') (A') (A') (A') (A') (A') (A') (A")
                 (A') (A") (A") (A') (A') (A")
       Virtual   (A") (A") (A') (A') (A') (A") (A') (A') (A') (A')
                 (A') (A') (A') (A") (A") (A') (A') (A') (A') (A")
                 (A") (A') (A') (A') (A') (A') (A') (A') (A') (A')
                 (A') (A") (A') (A") (A") (A') (A') (A') (A') (A')
                 (A') (A") (A") (A') (A") (A") (A") (A') (A') (A")
                 (A') (A') (A') (A") (A') (A") (A') (A') (A') (A")
                 (A') (A') (A') (A") (A') (A') (A") (A') (A") (A')
                 (A') (A") (A") (A') (A') (A") (A") (A") (A') (A')
                 (A") (A') (A') (A') (A') (A') (A') (A') (A') (A')
                 (A') (A') (A') (A') (A') (A') (A') (A') (A')
 The electronic state is 1-A'.
 Alpha  occ. eigenvalues --  -20.61693 -20.60039 -20.59067 -11.36797 -11.36542
 Alpha  occ. eigenvalues --  -11.35335 -11.25821  -1.42920  -1.41148  -1.39802
 Alpha  occ. eigenvalues --   -1.09300  -0.96387  -0.86096  -0.78247  -0.73370
 Alpha  occ. eigenvalues --   -0.70003  -0.66132  -0.64984  -0.63818  -0.61276
 Alpha  occ. eigenvalues --   -0.56978  -0.55352  -0.53731  -0.46900  -0.44312
 Alpha  occ. eigenvalues --   -0.37910
 Alpha virt. eigenvalues --    0.03318   0.15991   0.23616   0.27767   0.27967
 Alpha virt. eigenvalues --    0.27975   0.30786   0.37469   0.41473   0.46041
 Alpha virt. eigenvalues --    0.49995   0.52864   0.57809   0.70870   0.74000
 Alpha virt. eigenvalues --    0.74146   0.77128   0.78159   0.82039   0.83779
 Alpha virt. eigenvalues --    0.89078   0.89860   0.91889   0.96207   1.00953
 Alpha virt. eigenvalues --    1.03026   1.05380   1.07065   1.08282   1.14178
 Alpha virt. eigenvalues --    1.16910   1.21287   1.24994   1.25606   1.27942
 Alpha virt. eigenvalues --    1.28049   1.32143   1.37835   1.41906   1.44997
 Alpha virt. eigenvalues --    1.48784   1.51373   1.53091   1.56520   1.62411
 Alpha virt. eigenvalues --    1.70496   1.72915   1.78486   1.84753   1.85571
 Alpha virt. eigenvalues --    1.90796   1.98009   2.00183   2.00499   2.03624
 Alpha virt. eigenvalues --    2.07018   2.09651   2.14991   2.18339   2.21421
 Alpha virt. eigenvalues --    2.25973   2.31036   2.31473   2.32827   2.38452
 Alpha virt. eigenvalues --    2.41669   2.46969   2.57356   2.65001   2.67579
 Alpha virt. eigenvalues --    2.73020   2.74738   2.75749   2.77386   2.84590
 Alpha virt. eigenvalues --    2.89494   2.92318   2.92676   2.97407   3.03330
 Alpha virt. eigenvalues --    3.05454   3.11747   3.17678   3.25706   3.29719
 Alpha virt. eigenvalues --    3.35149   3.41156   3.56515   3.63536   3.72531
 Alpha virt. eigenvalues --    3.88694   4.04268   4.29759   4.36445   4.47378
 Alpha virt. eigenvalues --    4.61920   4.72374   4.82759   5.00430
          Condensed to atoms (all electrons):
               1          2          3          4          5          6
     1  C    4.753639   0.531480  -0.052658   0.287203   0.004762   0.315352
     2  C    0.531480   5.327872   0.365452  -0.067652  -0.080931  -0.054593
     3  C   -0.052658   0.365452   4.396598   0.000556   0.499051   0.001991
     4  O    0.287203  -0.067652   0.000556   8.210043  -0.025628  -0.029036
     5  O    0.004762  -0.080931   0.499051  -0.025628   8.178892   0.000193
     6  C    0.315352  -0.054593   0.001991  -0.029036   0.000193   4.434706
     7  H   -0.013344   0.379663  -0.022703   0.001613   0.001992  -0.003283
     8  H    0.003866  -0.086283   0.409878  -0.000165  -0.035248  -0.000030
     9  H   -0.017656  -0.008461  -0.005762   0.299216   0.041181   0.002144
    10  O   -0.076939   0.004049   0.000419   0.001007  -0.000001   0.551736
    11  H   -0.097318   0.007260   0.000016   0.005277   0.000006   0.410094
               7          8          9         10         11
     1  C   -0.013344   0.003866  -0.017656  -0.076939  -0.097318
     2  C    0.379663  -0.086283  -0.008461   0.004049   0.007260
     3  C   -0.022703   0.409878  -0.005762   0.000419   0.000016
     4  O    0.001613  -0.000165   0.299216   0.001007   0.005277
     5  O    0.001992  -0.035248   0.041181  -0.000001   0.000006
     6  C   -0.003283  -0.000030   0.002144   0.551736   0.410094
     7  H    0.441695   0.002137   0.000002   0.006433   0.000259
     8  H    0.002137   0.559454   0.000738  -0.000001   0.000002
     9  H    0.000002   0.000738   0.262794  -0.000054  -0.000230
    10  O    0.006433  -0.000001  -0.000054   8.044020  -0.039254
    11  H    0.000259   0.000002  -0.000230  -0.039254   0.554696
 Mulliken charges:
               1
     1  C    0.361613
     2  C   -0.317856
     3  C    0.407164
     4  O   -0.682434
     5  O   -0.584269
     6  C    0.370727
     7  H    0.205536
     8  H    0.145654
     9  H    0.426088
    10  O   -0.491415
    11  H    0.159192
 Sum of Mulliken charges =  -0.00000
 Mulliken charges with hydrogens summed into heavy atoms:
               1
     1  C    0.361613
     2  C   -0.112320
     3  C    0.552817
     4  O   -0.256346
     5  O   -0.584269
     6  C    0.529919
    10  O   -0.491415
 APT charges:
               1
     1  C    0.313479
     2  C   -0.498508
     3  C    0.822594
     4  O   -0.607931
     5  O   -0.576874
     6  C    0.718826
     7  H    0.079572
     8  H   -0.057664
     9  H    0.353176
    10  O   -0.495638
    11  H   -0.051031
 Sum of APT charges =  -0.00000
 APT charges with hydrogens summed into heavy atoms:
               1
     1  C    0.313479
     2  C   -0.418936
     3  C    0.764930
     4  O   -0.254755
     5  O   -0.576874
     6  C    0.667794
    10  O   -0.495638
 Electronic spatial extent (au):  <R**2>=            793.9780
 Charge=              0.0000 electrons
 Dipole moment (field-independent basis, Debye):
    X=              0.3805    Y=             -0.8720    Z=              0.0000  Tot=              0.9514
 Quadrupole moment (field-independent basis, Debye-Ang):
   XX=            -50.4971   YY=            -35.9505   ZZ=            -39.4784
   XY=             -6.5686   XZ=              0.0000   YZ=              0.0000
 Traceless Quadrupole moment (field-independent basis, Debye-Ang):
   XX=             -8.5218   YY=              6.0249   ZZ=              2.4969
   XY=             -6.5686   XZ=              0.0000   YZ=              0.0000
 Octapole moment (field-independent basis, Debye-Ang**2):
  XXX=            -18.4418  YYY=              0.7789  ZZZ=              0.0000  XYY=              8.4395
  XXY=             -5.8623  XXZ=              0.0000  XZZ=             -1.2801  YZZ=              1.1980
  YYZ=              0.0000  XYZ=              0.0000
 Hexadecapole moment (field-independent basis, Debye-Ang**3):
 XXXX=           -449.2705 YYYY=           -459.5965 ZZZZ=            -34.3979 XXXY=           -160.5987
 XXXZ=              0.0000 YYYX=           -135.9395 YYYZ=              0.0000 ZZZX=              0.0000
 ZZZY=              0.0000 XXYY=           -196.0348 XXZZ=            -73.1543 YYZZ=            -89.3487
 XXYZ=              0.0000 YYXZ=              0.0000 ZZXY=            -35.4938
 N-N= 2.758249538800D+02 E-N=-1.441386217071D+03  KE= 3.771041002186D+02
 Symmetry A'   KE= 3.634774034474D+02
 Symmetry A"   KE= 1.362669677121D+01
  Exact polarizability:  56.741   4.162  68.955   0.000   0.000  21.013
 Approx polarizability:  53.326  -1.594  52.508   0.000   0.000  23.082
 Calling FoFJK, ICntrl=  10100127 FMM=F ISym2X=1 I1Cent= 0 IOpClX= 0 NMat=1 NMatS=1 NMatT=0.
 ***** Axes restored to original set *****
 -------------------------------------------------------------------
 Center     Atomic                   Forces (Hartrees/Bohr)
 Number     Number              X              Y              Z
 -------------------------------------------------------------------
      1        6           0.022649384    0.016301432    0.000000000
      2        6           0.014426606   -0.039080092    0.000000000
      3        6          -0.033209842    0.006635323   -0.000000000
      4        8          -0.032153197   -0.005796491   -0.000000000
      5        8           0.023835817    0.001694307    0.000000000
      6        6           0.003199315    0.016345219   -0.000000000
      7        1          -0.001048898    0.008676453   -0.000000000
      8        1           0.005856025    0.000971618    0.000000000
      9        1          -0.006516318   -0.004324188   -0.000000000
     10        8           0.003733054   -0.000759918    0.000000000
     11        1          -0.000771947   -0.000663665   -0.000000000
 -------------------------------------------------------------------
 Cartesian Forces:  Max     0.039080092 RMS     0.013217536
 FormGI is forming the generalized inverse of G from B-inverse, IUseBI=4.

 GradGradGradGradGradGradGradGradGradGradGradGradGradGradGradGradGradGrad
 Berny optimization.
 Internal  Forces:  Max     0.037667872 RMS     0.010061917
 Search for a local minimum.
 Step number   1 out of a maximum of   47
 All quantities printed in internal units (Hartrees-Bohrs-Radians)
 Mixed Optimization -- RFO/linear search
 Second derivative matrix not updated -- analytic derivatives used.
 ITU=  0
     Eigenvalues ---    0.00405   0.00939   0.01421   0.02036   0.02657
     Eigenvalues ---    0.06471   0.07486   0.09037   0.10814   0.13561
     Eigenvalues ---    0.14126   0.18071   0.19604   0.19769   0.22058
     Eigenvalues ---    0.24572   0.30082   0.32052   0.33191   0.33923
     Eigenvalues ---    0.36815   0.37807   0.48520   0.51571   0.72468
     Eigenvalues ---    0.81247   0.84684
 RFO step:  Lambda=-1.11992689D-02 EMin= 4.05356107D-03
 Linear search not attempted -- first point.
 Iteration  1 RMS(Cart)=  0.06900591 RMS(Int)=  0.00162242
 Iteration  2 RMS(Cart)=  0.00203500 RMS(Int)=  0.00000037
 Iteration  3 RMS(Cart)=  0.00000052 RMS(Int)=  0.00000000
 ClnCor:  largest displacement from symmetrization is 6.27D-12 for atom     6.
 Variable       Old X    -DE/DX   Delta X   Delta X   Delta X     New X
                                 (Linear)    (Quad)   (Total)
    R1        2.53569   0.02103   0.00000   0.03982   0.03982   2.57551
    R2        2.60970  -0.03767   0.00000  -0.09693  -0.09693   2.51278
    R3        2.81522   0.00166   0.00000   0.00283   0.00283   2.81804
    R4        2.78593  -0.00788   0.00000  -0.05941  -0.05941   2.72652
    R5        2.04931  -0.00369   0.00000  -0.01054  -0.01054   2.03876
    R6        2.31809   0.02211   0.00000   0.03731   0.03731   2.35540
    R7        2.08316  -0.00162   0.00000  -0.00813  -0.00813   2.07503
    R8        1.86083  -0.00248   0.00000   0.01133   0.01133   1.87216
    R9        2.31654  -0.00293   0.00000  -0.00150  -0.00150   2.31504
   R10        2.08409  -0.00071   0.00000  -0.00332  -0.00332   2.08077
    A1        2.17525   0.00138   0.00000   0.00968   0.00968   2.18493
    A2        2.05836   0.01833   0.00000   0.06775   0.06775   2.12610
    A3        2.04958  -0.01972   0.00000  -0.07743  -0.07743   1.97215
    A4        2.11637   0.00021   0.00000  -0.02760  -0.02760   2.08876
    A5        2.13423  -0.00823   0.00000  -0.05583  -0.05583   2.07840
    A6        2.03258   0.00801   0.00000   0.08343   0.08343   2.11602
    A7        2.12879   0.01004   0.00000   0.01979   0.01979   2.14859
    A8        2.01224   0.00093   0.00000   0.03987   0.03987   2.05211
    A9        2.14215  -0.01097   0.00000  -0.05966  -0.05966   2.08249
   A10        1.88190  -0.01380   0.00000  -0.03819  -0.03819   1.84371
   A11        2.15445  -0.00426   0.00000  -0.01099  -0.01099   2.14345
   A12        1.99885   0.00289   0.00000  -0.00049  -0.00049   1.99836
   A13        2.12989   0.00138   0.00000   0.01149   0.01149   2.14137
    D1        0.00000   0.00000   0.00000  -0.00000   0.00000   0.00000
    D2        3.14159  -0.00000   0.00000  -0.00000   0.00000   3.14159
    D3        3.14159   0.00000   0.00000  -0.00000   0.00000   3.14159
    D4       -0.00000   0.00000   0.00000  -0.00000   0.00000   0.00000
    D5       -0.00000   0.00000   0.00000   0.00000   0.00000   0.00000
    D6        3.14159  -0.00000   0.00000   0.00000   0.00000   3.14159
    D7        0.00000  -0.00000   0.00000  -0.00000   0.00000   0.00000
    D8        3.14159  -0.00000   0.00000  -0.00000   0.00000   3.14159
    D9        3.14159   0.00000   0.00000  -0.00000   0.00000   3.14159
   D10       -0.00000  -0.00000   0.00000  -0.00000   0.00000   0.00000
   D11        0.00000   0.00000   0.00000   0.00000   0.00000   0.00000
   D12        3.14159  -0.00000   0.00000   0.00000   0.00000   3.14159
   D13        3.14159   0.00000   0.00000   0.00000   0.00000   3.14159
   D14       -0.00000  -0.00000   0.00000   0.00000   0.00000   0.00000
         Item               Value     Threshold  Converged?
 Maximum Force            0.037668     0.000450     NO 
 RMS     Force            0.010062     0.000300     NO 
 Maximum Displacement     0.184077     0.001800     NO 
 RMS     Displacement     0.068896     0.001200     NO 
 Predicted change in Energy=-5.851616D-03
 GradGradGradGradGradGradGradGradGradGradGradGradGradGradGradGradGradGrad

                          Input orientation:                          
 ---------------------------------------------------------------------
 Center     Atomic      Atomic             Coordinates (Angstroms)
 Number     Number       Type             X           Y           Z
 ---------------------------------------------------------------------
      1          6           0       -1.720560    2.632735   -0.000000
      2          6           0       -1.709235    1.269883    0.000000
      3          6           0       -0.449790    0.565967    0.000000
      4          8           0       -0.640234    3.407982    0.000000
      5          8           0        0.653846    1.145238    0.000000
      6          6           0       -2.994215    3.408369   -0.000000
      7          1           0       -2.647678    0.737644   -0.000000
      8          1           0       -0.480914   -0.531651    0.000000
      9          1           0        0.132944    2.788551    0.000000
     10          8           0       -4.096714    2.874251   -0.000000
     11          1           0       -2.863017    4.501623   -0.000000
 ---------------------------------------------------------------------
                    Distance matrix (angstroms):
                    1          2          3          4          5
     1  C    0.000000
     2  C    1.362899   0.000000
     3  C    2.426187   1.442810   0.000000
     4  O    1.329704   2.390446   2.848389   0.000000
     5  O    2.801865   2.366366   1.246422   2.606656   0.000000
     6  C    1.491244   2.494854   3.814886   2.353981   4.293031
     7  H    2.109719   1.078867   2.204583   3.340739   3.326589
     8  H    3.398538   2.180435   1.098059   3.942853   2.024756
     9  H    1.860041   2.387463   2.297708   0.990706   1.723896
    10  O    2.388397   2.876466   4.316044   3.497445   5.055424
    11  H    2.190423   3.431524   4.616607   2.477260   4.861445
                    6          7          8          9         10
     6  C    0.000000
     7  H    2.693114   0.000000
     8  H    4.673376   2.511171   0.000000
     9  H    3.187993   3.455152   3.376472   0.000000
    10  O    1.225066   2.581627   4.967312   4.230526   0.000000
    11  H    1.101098   3.770134   5.568507   3.451144   2.042143
                   11
    11  H    0.000000
 Stoichiometry    C4H4O3
 Framework group  CS[SG(C4H4O3)]
 Deg. of freedom    19
 Full point group                 CS      NOp   2
 Largest Abelian subgroup         CS      NOp   2
 Largest concise Abelian subgroup C1      NOp   1
                         Standard orientation:                         
 ---------------------------------------------------------------------
 Center     Atomic      Atomic             Coordinates (Angstroms)
 Number     Number       Type             X           Y           Z
 ---------------------------------------------------------------------
      1          6           0        0.000000    0.475179    0.000000
      2          6           0        0.524748   -0.782650   -0.000000
      3          6           0       -0.357119   -1.924582   -0.000000
      4          8           0       -1.297973    0.763934   -0.000000
      5          8           0       -1.599574   -1.825215   -0.000000
      6          6           0        0.866774    1.688649    0.000000
      7          1           0        1.596810   -0.903630    0.000000
      8          1           0        0.102516   -2.921812   -0.000000
      9          1           0       -1.765808   -0.109352   -0.000000
     10          8           0        2.090453    1.630362    0.000000
     11          1           0        0.316817    2.642569    0.000000
 ---------------------------------------------------------------------
 Rotational constants (GHZ):           6.7293764           1.7268110           1.3741844
 Standard basis: 6-31G(d,p) (6D, 7F)
 There are    93 symmetry adapted cartesian basis functions of A'  symmetry.
 There are    32 symmetry adapted cartesian basis functions of A"  symmetry.
 There are    93 symmetry adapted basis functions of A'  symmetry.
 There are    32 symmetry adapted basis functions of A"  symmetry.
   125 basis functions,   224 primitive gaussians,   125 cartesian basis functions
    26 alpha electrons       26 beta electrons
       nuclear repulsion energy       277.3060459061 Hartrees.
 NAtoms=   11 NActive=   11 NUniq=   11 SFac= 1.00D+00 NAtFMM=   60 NAOKFM=F Big=F
 Integral buffers will be    131072 words long.
 Raffenetti 1 integral format.
 Two-electron integral symmetry is turned on.
 One-electron integrals computed using PRISM.
 NBasis=   125 RedAO= T EigKep=  1.53D-03  NBF=    93    32
 NBsUse=   125 1.00D-06 EigRej= -1.00D+00 NBFU=    93    32
 Initial guess from the checkpoint file:  "8.chk"
 B after Tr=     0.000000   -0.000000   -0.000000
         Rot=    0.999655    0.000000   -0.000000   -0.026276 Ang=  -3.01 deg.
 Initial guess orbital symmetries:
       Occupied  (A') (A') (A') (A') (A') (A') (A') (A') (A') (A')
                 (A') (A') (A') (A') (A') (A') (A') (A') (A') (A")
                 (A') (A") (A") (A') (A') (A")
       Virtual   (A") (A") (A') (A') (A') (A") (A') (A') (A') (A')
                 (A') (A') (A') (A") (A") (A') (A') (A') (A') (A")
                 (A") (A') (A') (A') (A') (A') (A') (A') (A') (A')
                 (A') (A") (A') (A") (A") (A') (A') (A') (A') (A')
                 (A') (A") (A") (A') (A") (A") (A") (A') (A') (A")
                 (A') (A') (A') (A") (A') (A") (A') (A') (A') (A")
                 (A') (A') (A') (A") (A') (A') (A") (A') (A") (A')
                 (A') (A") (A") (A') (A') (A") (A") (A") (A') (A')
                 (A") (A') (A') (A') (A') (A') (A') (A') (A') (A')
                 (A') (A') (A') (A') (A') (A') (A') (A') (A')
 ExpMin= 1.61D-01 ExpMax= 5.48D+03 ExpMxC= 8.25D+02 IAcc=2 IRadAn=         4 AccDes= 0.00D+00
 Harris functional with IExCor=  205 and IRadAn=       4 diagonalized for initial guess.
 HarFok:  IExCor=  205 AccDes= 0.00D+00 IRadAn=         4 IDoV= 1 UseB2=F ITyADJ=14
 ICtDFT=  3500011 ScaDFX=  1.000000  1.000000  1.000000  1.000000
 FoFCou: FMM=F IPFlag=           0 FMFlag=      100000 FMFlg1=           0
         NFxFlg=           0 DoJE=T BraDBF=F KetDBF=T FulRan=T
         wScrn=  0.000000 ICntrl=       500 IOpCl=  0 I1Cent=   200000004 NGrid=           0
         NMat0=    1 NMatS0=      1 NMatT0=    0 NMatD0=    1 NMtDS0=    0 NMtDT0=    0
 Petite list used in FoFCou.
 Keep R1 ints in memory in symmetry-blocked form, NReq=47462677.
 Requested convergence on RMS density matrix=1.00D-08 within 128 cycles.
 Requested convergence on MAX density matrix=1.00D-06.
 Requested convergence on             energy=1.00D-06.
 No special actions if energy rises.
 SCF Done:  E(RHF) =  -378.359779359     A.U. after   14 cycles
            NFock= 14  Conv=0.34D-08     -V/T= 2.0031
 ExpMin= 1.61D-01 ExpMax= 5.48D+03 ExpMxC= 8.25D+02 IAcc=3 IRadAn=         5 AccDes= 0.00D+00
 HarFok:  IExCor=  205 AccDes= 0.00D+00 IRadAn=         5 IDoV=-2 UseB2=F ITyADJ=14
 ICtDFT= 12500011 ScaDFX=  1.000000  1.000000  1.000000  1.000000
 Range of M.O.s used for correlation:     8   125
 NBasis=   125 NAE=    26 NBE=    26 NFC=     7 NFV=     0
 NROrb=    118 NOA=    19 NOB=    19 NVA=    99 NVB=    99
 Fully direct method using O(ONN) memory.
 JobTyp=1 Pass  1:  I=   8 to  26 NPSUse= 28 ParTrn=T ParDer=T DoDerP=T.
 Spin components of T(2) and E(2):
     alpha-alpha T2 =       0.4501636388D-01 E2=     -0.1416914213D+00
     alpha-beta  T2 =       0.2464640670D+00 E2=     -0.7777015918D+00
     beta-beta   T2 =       0.4501636388D-01 E2=     -0.1416914213D+00
 ANorm=    0.1156069546D+01
 E2 =    -0.1061084434D+01 EUMP2 =    -0.37942086379375D+03
          IDoAtm=11111111111
          Differentiating once with respect to electric field.
                with respect to dipole field.
          Differentiating once with respect to nuclear coordinates.
 Keep R1 ints in memory in symmetry-blocked form, NReq=47464096.
          There are     1 degrees of freedom in the 1st order CPHF.  IDoFFX=0 NUNeed=     1.
 LinEq1:  Iter=  0 NonCon=     1 RMS=6.86D-03 Max=1.56D-01 NDo=     1
 AX will form     1 AO Fock derivatives at one time.
 LinEq1:  Iter=  1 NonCon=     1 RMS=2.53D-03 Max=5.33D-02 NDo=     1
 LinEq1:  Iter=  2 NonCon=     1 RMS=8.30D-04 Max=1.27D-02 NDo=     1
 LinEq1:  Iter=  3 NonCon=     1 RMS=3.18D-04 Max=5.17D-03 NDo=     1
 LinEq1:  Iter=  4 NonCon=     1 RMS=9.85D-05 Max=1.48D-03 NDo=     1
 LinEq1:  Iter=  5 NonCon=     1 RMS=4.36D-05 Max=6.93D-04 NDo=     1
 LinEq1:  Iter=  6 NonCon=     1 RMS=1.66D-05 Max=4.58D-04 NDo=     1
 LinEq1:  Iter=  7 NonCon=     1 RMS=6.12D-06 Max=9.43D-05 NDo=     1
 LinEq1:  Iter=  8 NonCon=     1 RMS=2.55D-06 Max=4.39D-05 NDo=     1
 LinEq1:  Iter=  9 NonCon=     1 RMS=8.35D-07 Max=1.54D-05 NDo=     1
 LinEq1:  Iter= 10 NonCon=     1 RMS=3.08D-07 Max=3.00D-06 NDo=     1
 LinEq1:  Iter= 11 NonCon=     1 RMS=9.53D-08 Max=1.37D-06 NDo=     1
 LinEq1:  Iter= 12 NonCon=     1 RMS=2.92D-08 Max=4.39D-07 NDo=     1
 LinEq1:  Iter= 13 NonCon=     1 RMS=7.46D-09 Max=6.90D-08 NDo=     1
 LinEq1:  Iter= 14 NonCon=     1 RMS=1.72D-09 Max=2.20D-08 NDo=     1
 LinEq1:  Iter= 15 NonCon=     1 RMS=5.17D-10 Max=6.43D-09 NDo=     1
 LinEq1:  Iter= 16 NonCon=     1 RMS=1.50D-10 Max=1.55D-09 NDo=     1
 LinEq1:  Iter= 17 NonCon=     0 RMS=3.87D-11 Max=3.52D-10 NDo=     1
 Linear equations converged to 1.000D-10 1.000D-09 after    17 iterations.
 End of Minotr F.D. properties file   721 does not exist.
 End of Minotr F.D. properties file   722 does not exist.
 End of Minotr F.D. properties file   788 does not exist.
 Symmetrizing basis deriv contribution to polar:
 IMax=3 JMax=2 DiffMx= 0.00D+00
 Calling FoFJK, ICntrl=  10002127 FMM=F ISym2X=1 I1Cent= 0 IOpClX= 0 NMat=1 NMatS=1 NMatT=0.
 ***** Axes restored to original set *****
 -------------------------------------------------------------------
 Center     Atomic                   Forces (Hartrees/Bohr)
 Number     Number              X              Y              Z
 -------------------------------------------------------------------
      1        6          -0.004768925   -0.001522073   -0.000000000
      2        6           0.000175738   -0.003013628    0.000000000
      3        6          -0.001781042   -0.000845180   -0.000000000
      4        8           0.004107751    0.003537439    0.000000000
      5        8           0.002081246    0.001180068    0.000000000
      6        6          -0.001501528    0.000577081   -0.000000000
      7        1          -0.000342165    0.000697315   -0.000000000
      8        1           0.000484068   -0.000026583    0.000000000
      9        1           0.001600491   -0.000852643    0.000000000
     10        8          -0.000094200    0.000351184   -0.000000000
     11        1           0.000038566   -0.000082982    0.000000000
 -------------------------------------------------------------------
 Cartesian Forces:  Max     0.004768925 RMS     0.001557241

 GradGradGradGradGradGradGradGradGradGradGradGradGradGradGradGradGradGrad
 Berny optimization.
 Using GEDIIS/GDIIS optimizer.
 FormGI is forming the generalized inverse of G from B-inverse, IUseBI=4.
 Internal  Forces:  Max     0.006202991 RMS     0.001332568
 Search for a local minimum.
 Step number   2 out of a maximum of   47
 All quantities printed in internal units (Hartrees-Bohrs-Radians)
 Mixed Optimization -- RFO/linear search
 Update second derivatives using D2CorX and points    1    2
 DE= -5.61D-03 DEPred=-5.85D-03 R= 9.59D-01
 TightC=F SS=  1.41D+00  RLast= 2.12D-01 DXNew= 5.0454D-01 6.3640D-01
 Trust test= 9.59D-01 RLast= 2.12D-01 DXMaxT set to 5.05D-01
 ITU=  1  0
 Use linear search instead of GDIIS.
     Eigenvalues ---    0.00405   0.00939   0.01420   0.02035   0.02655
     Eigenvalues ---    0.06471   0.07486   0.09037   0.10752   0.13560
     Eigenvalues ---    0.14092   0.18151   0.19530   0.19819   0.21766
     Eigenvalues ---    0.24497   0.30639   0.32434   0.33199   0.34560
     Eigenvalues ---    0.36592   0.37753   0.49337   0.53765   0.72470
     Eigenvalues ---    0.81271   0.83702
 RFO step:  Lambda=-1.53516691D-04 EMin= 4.05348166D-03
 Quartic linear search produced a step of -0.01961.
 Iteration  1 RMS(Cart)=  0.00652907 RMS(Int)=  0.00001837
 Iteration  2 RMS(Cart)=  0.00002464 RMS(Int)=  0.00000000
 Iteration  3 RMS(Cart)=  0.00000000 RMS(Int)=  0.00000000
 ClnCor:  largest displacement from symmetrization is 1.22D-10 for atom     9.
 Variable       Old X    -DE/DX   Delta X   Delta X   Delta X     New X
                                 (Linear)    (Quad)   (Total)
    R1        2.57551   0.00201  -0.00078   0.00477   0.00399   2.57950
    R2        2.51278   0.00620   0.00190   0.01273   0.01464   2.52741
    R3        2.81804   0.00177  -0.00006   0.00385   0.00380   2.82184
    R4        2.72652   0.00053   0.00117  -0.00079   0.00037   2.72689
    R5        2.03876  -0.00005   0.00021  -0.00028  -0.00008   2.03869
    R6        2.35540   0.00239  -0.00073   0.00418   0.00345   2.35885
    R7        2.07503   0.00001   0.00016  -0.00082  -0.00066   2.07437
    R8        1.87216   0.00178  -0.00022   0.00461   0.00439   1.87655
    R9        2.31504  -0.00007   0.00003  -0.00043  -0.00040   2.31464
   R10        2.08077  -0.00008   0.00007  -0.00054  -0.00048   2.08030
    A1        2.18493  -0.00173  -0.00019  -0.00476  -0.00495   2.17998
    A2        2.12610   0.00120  -0.00133   0.00695   0.00562   2.13173
    A3        1.97215   0.00052   0.00152  -0.00219  -0.00067   1.97148
    A4        2.08876  -0.00145   0.00054  -0.00287  -0.00233   2.08643
    A5        2.07840  -0.00007   0.00110  -0.00765  -0.00655   2.07185
    A6        2.11602   0.00152  -0.00164   0.01052   0.00888   2.12490
    A7        2.14859  -0.00046  -0.00039   0.00035  -0.00004   2.14855
    A8        2.05211   0.00073  -0.00078   0.00554   0.00476   2.05686
    A9        2.08249  -0.00027   0.00117  -0.00588  -0.00471   2.07778
   A10        1.84371   0.00063   0.00075  -0.00397  -0.00322   1.84048
   A11        2.14345   0.00058   0.00022   0.00039   0.00060   2.14406
   A12        1.99836  -0.00034   0.00001  -0.00158  -0.00157   1.99679
   A13        2.14137  -0.00024  -0.00023   0.00119   0.00097   2.14234
    D1        0.00000   0.00000   0.00000   0.00000   0.00000   0.00000
    D2        3.14159   0.00000   0.00000  -0.00000   0.00000   3.14159
    D3        3.14159   0.00000   0.00000   0.00000   0.00000   3.14159
    D4        0.00000   0.00000   0.00000  -0.00000  -0.00000   0.00000
    D5       -0.00000  -0.00000   0.00000  -0.00000   0.00000   0.00000
    D6        3.14159   0.00000   0.00000  -0.00000   0.00000   3.14159
    D7        0.00000  -0.00000   0.00000   0.00000   0.00000   0.00000
    D8        3.14159   0.00000   0.00000   0.00000   0.00000   3.14159
    D9        3.14159   0.00000   0.00000   0.00000   0.00000   3.14159
   D10       -0.00000  -0.00000   0.00000   0.00000   0.00000   0.00000
   D11        0.00000   0.00000   0.00000   0.00000  -0.00000   0.00000
   D12        3.14159   0.00000   0.00000  -0.00000   0.00000   3.14159
   D13        3.14159   0.00000   0.00000   0.00000   0.00000   3.14159
   D14       -0.00000   0.00000   0.00000   0.00000   0.00000   0.00000
         Item               Value     Threshold  Converged?
 Maximum Force            0.006203     0.000450     NO 
 RMS     Force            0.001333     0.000300     NO 
 Maximum Displacement     0.021091     0.001800     NO 
 RMS     Displacement     0.006533     0.001200     NO 
 Predicted change in Energy=-7.863274D-05
 GradGradGradGradGradGradGradGradGradGradGradGradGradGradGradGradGradGrad

                          Input orientation:                          
 ---------------------------------------------------------------------
 Center     Atomic      Atomic             Coordinates (Angstroms)
 Number     Number       Type             X           Y           Z
 ---------------------------------------------------------------------
      1          6           0       -1.725286    2.629744   -0.000000
      2          6           0       -1.711236    1.264805    0.000000
      3          6           0       -0.448594    0.566235    0.000000
      4          8           0       -0.636358    3.406277    0.000000
      5          8           0        0.654123    1.151164    0.000000
      6          6           0       -2.997822    3.411062   -0.000000
      7          1           0       -2.652067    0.736880   -0.000000
      8          1           0       -0.469753   -0.531269    0.000000
      9          1           0        0.134772    2.780607    0.000000
     10          8           0       -4.102388    2.881719   -0.000000
     11          1           0       -2.860961    4.503366   -0.000000
 ---------------------------------------------------------------------
                    Distance matrix (angstroms):
                    1          2          3          4          5
     1  C    0.000000
     2  C    1.365011   0.000000
     3  C    2.426523   1.443006   0.000000
     4  O    1.337449   2.396094   2.846242   0.000000
     5  O    2.801391   2.368088   1.248249   2.598245   0.000000
     6  C    1.493253   2.502343   3.819896   2.361470   4.294630
     7  H    2.107572   1.078827   2.210071   3.344961   3.332045
     8  H    3.401230   2.183383   1.097708   3.941069   2.023284
     9  H    1.866167   2.388599   2.289925   0.993028   1.710207
    10  O    2.390419   2.886524   4.325700   3.505500   5.061543
    11  H    2.190939   3.436589   4.617414   2.480416   4.857270
                    6          7          8          9         10
     6  C    0.000000
     7  H    2.696442   0.000000
     8  H    4.683279   2.524023   0.000000
     9  H    3.195407   3.455907   3.366596   0.000000
    10  O    1.224855   2.589164   4.984428   4.238367   0.000000
    11  H    1.100845   3.772275   5.573636   3.455766   2.042273
                   11
    11  H    0.000000
 Stoichiometry    C4H4O3
 Framework group  CS[SG(C4H4O3)]
 Deg. of freedom    19
 Full point group                 CS      NOp   2
 Largest Abelian subgroup         CS      NOp   2
 Largest concise Abelian subgroup C1      NOp   1
                         Standard orientation:                         
 ---------------------------------------------------------------------
 Center     Atomic      Atomic             Coordinates (Angstroms)
 Number     Number       Type             X           Y           Z
 ---------------------------------------------------------------------
      1          6           0        0.000000    0.472890   -0.000000
      2          6           0        0.536230   -0.782385   -0.000000
      3          6           0       -0.338715   -1.929877    0.000000
      4          8           0       -1.309317    0.745759    0.000000
      5          8           0       -1.583576   -1.837971    0.000000
      6          6           0        0.850715    1.700118   -0.000000
      7          1           0        1.609950   -0.887228   -0.000000
      8          1           0        0.122165   -2.926146    0.000000
      9          1           0       -1.763601   -0.137265    0.000000
     10          8           0        2.074907    1.659846   -0.000000
     11          1           0        0.286000    2.645082   -0.000000
 ---------------------------------------------------------------------
 Rotational constants (GHZ):           6.7282476           1.7218194           1.3709746
 Standard basis: 6-31G(d,p) (6D, 7F)
 There are    93 symmetry adapted cartesian basis functions of A'  symmetry.
 There are    32 symmetry adapted cartesian basis functions of A"  symmetry.
 There are    93 symmetry adapted basis functions of A'  symmetry.
 There are    32 symmetry adapted basis functions of A"  symmetry.
   125 basis functions,   224 primitive gaussians,   125 cartesian basis functions
    26 alpha electrons       26 beta electrons
       nuclear repulsion energy       276.9801111782 Hartrees.
 NAtoms=   11 NActive=   11 NUniq=   11 SFac= 1.00D+00 NAtFMM=   60 NAOKFM=F Big=F
 Integral buffers will be    131072 words long.
 Raffenetti 1 integral format.
 Two-electron integral symmetry is turned on.
 One-electron integrals computed using PRISM.
 NBasis=   125 RedAO= T EigKep=  1.55D-03  NBF=    93    32
 NBsUse=   125 1.00D-06 EigRej= -1.00D+00 NBFU=    93    32
 Initial guess from the checkpoint file:  "8.chk"
 B after Tr=    -0.000000    0.000000   -0.000000
         Rot=    0.999986    0.000000    0.000000   -0.005326 Ang=  -0.61 deg.
 Initial guess orbital symmetries:
       Occupied  (A') (A') (A') (A') (A') (A') (A') (A') (A') (A')
                 (A') (A') (A') (A') (A') (A') (A') (A') (A') (A")
                 (A') (A") (A") (A') (A') (A")
       Virtual   (A") (A") (A') (A') (A") (A') (A') (A') (A') (A')
                 (A') (A') (A') (A") (A') (A") (A') (A') (A') (A")
                 (A') (A") (A') (A') (A') (A') (A') (A') (A') (A')
                 (A') (A") (A") (A') (A') (A") (A') (A') (A') (A')
                 (A') (A") (A") (A') (A") (A") (A") (A') (A') (A")
                 (A') (A') (A") (A') (A') (A") (A') (A') (A') (A")
                 (A') (A') (A") (A') (A') (A') (A") (A') (A') (A")
                 (A') (A") (A") (A') (A') (A") (A") (A") (A') (A")
                 (A') (A') (A') (A') (A') (A') (A') (A') (A') (A')
                 (A') (A') (A') (A') (A') (A') (A') (A') (A')
 ExpMin= 1.61D-01 ExpMax= 5.48D+03 ExpMxC= 8.25D+02 IAcc=2 IRadAn=         4 AccDes= 0.00D+00
 Harris functional with IExCor=  205 and IRadAn=       4 diagonalized for initial guess.
 HarFok:  IExCor=  205 AccDes= 0.00D+00 IRadAn=         4 IDoV= 1 UseB2=F ITyADJ=14
 ICtDFT=  3500011 ScaDFX=  1.000000  1.000000  1.000000  1.000000
 FoFCou: FMM=F IPFlag=           0 FMFlag=      100000 FMFlg1=           0
         NFxFlg=           0 DoJE=T BraDBF=F KetDBF=T FulRan=T
         wScrn=  0.000000 ICntrl=       500 IOpCl=  0 I1Cent=   200000004 NGrid=           0
         NMat0=    1 NMatS0=      1 NMatT0=    0 NMatD0=    1 NMtDS0=    0 NMtDT0=    0
 Petite list used in FoFCou.
 Keep R1 ints in memory in symmetry-blocked form, NReq=47462677.
 Requested convergence on RMS density matrix=1.00D-08 within 128 cycles.
 Requested convergence on MAX density matrix=1.00D-06.
 Requested convergence on             energy=1.00D-06.
 No special actions if energy rises.
 SCF Done:  E(RHF) =  -378.359025948     A.U. after   11 cycles
            NFock= 11  Conv=0.78D-08     -V/T= 2.0032
 ExpMin= 1.61D-01 ExpMax= 5.48D+03 ExpMxC= 8.25D+02 IAcc=3 IRadAn=         5 AccDes= 0.00D+00
 HarFok:  IExCor=  205 AccDes= 0.00D+00 IRadAn=         5 IDoV=-2 UseB2=F ITyADJ=14
 ICtDFT= 12500011 ScaDFX=  1.000000  1.000000  1.000000  1.000000
 Range of M.O.s used for correlation:     8   125
 NBasis=   125 NAE=    26 NBE=    26 NFC=     7 NFV=     0
 NROrb=    118 NOA=    19 NOB=    19 NVA=    99 NVB=    99
 Fully direct method using O(ONN) memory.
 JobTyp=1 Pass  1:  I=   8 to  26 NPSUse= 28 ParTrn=T ParDer=T DoDerP=T.
 Spin components of T(2) and E(2):
     alpha-alpha T2 =       0.4511733228D-01 E2=     -0.1417977785D+00
     alpha-beta  T2 =       0.2470114458D+00 E2=     -0.7783107150D+00
     beta-beta   T2 =       0.4511733228D-01 E2=     -0.1417977785D+00
 ANorm=    0.1156393579D+01
 E2 =    -0.1061906272D+01 EUMP2 =    -0.37942093221960D+03
          IDoAtm=11111111111
          Differentiating once with respect to electric field.
                with respect to dipole field.
          Differentiating once with respect to nuclear coordinates.
 Keep R1 ints in memory in symmetry-blocked form, NReq=47464096.
          There are     1 degrees of freedom in the 1st order CPHF.  IDoFFX=0 NUNeed=     1.
 LinEq1:  Iter=  0 NonCon=     1 RMS=6.89D-03 Max=1.55D-01 NDo=     1
 AX will form     1 AO Fock derivatives at one time.
 LinEq1:  Iter=  1 NonCon=     1 RMS=2.55D-03 Max=5.35D-02 NDo=     1
 LinEq1:  Iter=  2 NonCon=     1 RMS=8.39D-04 Max=1.26D-02 NDo=     1
 LinEq1:  Iter=  3 NonCon=     1 RMS=3.21D-04 Max=5.29D-03 NDo=     1
 LinEq1:  Iter=  4 NonCon=     1 RMS=9.94D-05 Max=1.48D-03 NDo=     1
 LinEq1:  Iter=  5 NonCon=     1 RMS=4.41D-05 Max=7.02D-04 NDo=     1
 LinEq1:  Iter=  6 NonCon=     1 RMS=1.67D-05 Max=4.63D-04 NDo=     1
 LinEq1:  Iter=  7 NonCon=     1 RMS=6.06D-06 Max=9.51D-05 NDo=     1
 LinEq1:  Iter=  8 NonCon=     1 RMS=2.58D-06 Max=4.58D-05 NDo=     1
 LinEq1:  Iter=  9 NonCon=     1 RMS=8.40D-07 Max=1.51D-05 NDo=     1
 LinEq1:  Iter= 10 NonCon=     1 RMS=3.13D-07 Max=3.06D-06 NDo=     1
 LinEq1:  Iter= 11 NonCon=     1 RMS=9.73D-08 Max=1.41D-06 NDo=     1
 LinEq1:  Iter= 12 NonCon=     1 RMS=2.99D-08 Max=4.52D-07 NDo=     1
 LinEq1:  Iter= 13 NonCon=     1 RMS=7.58D-09 Max=6.39D-08 NDo=     1
 LinEq1:  Iter= 14 NonCon=     1 RMS=1.73D-09 Max=2.12D-08 NDo=     1
 LinEq1:  Iter= 15 NonCon=     1 RMS=5.24D-10 Max=6.56D-09 NDo=     1
 LinEq1:  Iter= 16 NonCon=     1 RMS=1.52D-10 Max=1.54D-09 NDo=     1
 LinEq1:  Iter= 17 NonCon=     0 RMS=3.98D-11 Max=3.66D-10 NDo=     1
 Linear equations converged to 1.000D-10 1.000D-09 after    17 iterations.
 End of Minotr F.D. properties file   721 does not exist.
 End of Minotr F.D. properties file   722 does not exist.
 End of Minotr F.D. properties file   788 does not exist.
 Symmetrizing basis deriv contribution to polar:
 IMax=3 JMax=2 DiffMx= 0.00D+00
 Calling FoFJK, ICntrl=  10002127 FMM=F ISym2X=1 I1Cent= 0 IOpClX= 0 NMat=1 NMatS=1 NMatT=0.
 ***** Axes restored to original set *****
 -------------------------------------------------------------------
 Center     Atomic                   Forces (Hartrees/Bohr)
 Number     Number              X              Y              Z
 -------------------------------------------------------------------
      1        6           0.001176772    0.001042834    0.000000000
      2        6          -0.000102953    0.000062709   -0.000000000
      3        6           0.000066645   -0.000243628    0.000000000
      4        8          -0.001429977   -0.000769364   -0.000000000
      5        8           0.000093610    0.000164900   -0.000000000
      6        6           0.000008346   -0.000087998    0.000000000
      7        1           0.000002756   -0.000112681    0.000000000
      8        1          -0.000066493   -0.000034095   -0.000000000
      9        1           0.000315158   -0.000111117    0.000000000
     10        8          -0.000074774    0.000077400   -0.000000000
     11        1           0.000010911    0.000011040    0.000000000
 -------------------------------------------------------------------
 Cartesian Forces:  Max     0.001429977 RMS     0.000403505

 GradGradGradGradGradGradGradGradGradGradGradGradGradGradGradGradGradGrad
 Berny optimization.
 Using GEDIIS/GDIIS optimizer.
 FormGI is forming the generalized inverse of G from B-inverse, IUseBI=4.
 Internal  Forces:  Max     0.001418881 RMS     0.000251742
 Search for a local minimum.
 Step number   3 out of a maximum of   47
 All quantities printed in internal units (Hartrees-Bohrs-Radians)
 Mixed Optimization -- En-DIIS/RFO-DIIS
 Update second derivatives using D2CorX and points    1    2    3
 DE= -6.84D-05 DEPred=-7.86D-05 R= 8.70D-01
 TightC=F SS=  1.41D+00  RLast= 2.28D-02 DXNew= 8.4853D-01 6.8386D-02
 Trust test= 8.70D-01 RLast= 2.28D-02 DXMaxT set to 5.05D-01
 ITU=  1  1  0
 Use linear search instead of GDIIS.
     Eigenvalues ---    0.00405   0.00939   0.01419   0.02035   0.02655
     Eigenvalues ---    0.06471   0.07486   0.09037   0.10786   0.13546
     Eigenvalues ---    0.14007   0.18130   0.19731   0.20134   0.22164
     Eigenvalues ---    0.24316   0.30763   0.32425   0.33232   0.34552
     Eigenvalues ---    0.36808   0.37799   0.49404   0.57528   0.72619
     Eigenvalues ---    0.81244   0.83109
 RFO step:  Lambda=-3.73003978D-06 EMin= 4.05347654D-03
 Quartic linear search produced a step of -0.11303.
 Iteration  1 RMS(Cart)=  0.00102724 RMS(Int)=  0.00000038
 Iteration  2 RMS(Cart)=  0.00000050 RMS(Int)=  0.00000000
 ClnCor:  largest displacement from symmetrization is 2.07D-15 for atom     4.
 Variable       Old X    -DE/DX   Delta X   Delta X   Delta X     New X
                                 (Linear)    (Quad)   (Total)
    R1        2.57950   0.00016  -0.00045   0.00099   0.00054   2.58004
    R2        2.52741  -0.00142  -0.00165  -0.00165  -0.00330   2.52411
    R3        2.82184   0.00005  -0.00043   0.00077   0.00034   2.82218
    R4        2.72689   0.00014  -0.00004   0.00036   0.00032   2.72721
    R5        2.03869   0.00005   0.00001   0.00009   0.00009   2.03878
    R6        2.35885   0.00016  -0.00039   0.00076   0.00037   2.35922
    R7        2.07437   0.00004   0.00007  -0.00002   0.00005   2.07442
    R8        1.87655   0.00031  -0.00050   0.00137   0.00087   1.87742
    R9        2.31464   0.00003   0.00005  -0.00007  -0.00002   2.31462
   R10        2.08030   0.00001   0.00005   0.00006   0.00011   2.08041
    A1        2.17998  -0.00004   0.00056  -0.00069  -0.00013   2.17985
    A2        2.13173   0.00011  -0.00064   0.00066   0.00003   2.13176
    A3        1.97148  -0.00007   0.00008   0.00003   0.00010   1.97158
    A4        2.08643  -0.00004   0.00026  -0.00092  -0.00065   2.08578
    A5        2.07185   0.00012   0.00074   0.00037   0.00111   2.07296
    A6        2.12490  -0.00008  -0.00100   0.00055  -0.00045   2.12445
    A7        2.14855  -0.00011   0.00000  -0.00034  -0.00033   2.14821
    A8        2.05686  -0.00001  -0.00054   0.00049  -0.00005   2.05681
    A9        2.07778   0.00013   0.00053  -0.00015   0.00038   2.07816
   A10        1.84048   0.00021   0.00036   0.00109   0.00146   1.84194
   A11        2.14406   0.00016  -0.00007   0.00085   0.00078   2.14484
   A12        1.99679  -0.00009   0.00018  -0.00079  -0.00061   1.99618
   A13        2.14234  -0.00007  -0.00011  -0.00006  -0.00017   2.14217
    D1        0.00000  -0.00000   0.00000   0.00000   0.00000   0.00000
    D2        3.14159  -0.00000   0.00000  -0.00000   0.00000   3.14159
    D3        3.14159  -0.00000   0.00000   0.00000   0.00000   3.14159
    D4        0.00000  -0.00000   0.00000  -0.00000  -0.00000   0.00000
    D5       -0.00000  -0.00000   0.00000  -0.00000   0.00000   0.00000
    D6        3.14159  -0.00000   0.00000   0.00000   0.00000   3.14159
    D7       -0.00000  -0.00000   0.00000  -0.00000   0.00000   0.00000
    D8        3.14159  -0.00000   0.00000  -0.00000   0.00000   3.14159
    D9        3.14159  -0.00000   0.00000  -0.00000   0.00000   3.14159
   D10        0.00000  -0.00000   0.00000  -0.00000   0.00000   0.00000
   D11       -0.00000  -0.00000   0.00000  -0.00000   0.00000   0.00000
   D12        3.14159  -0.00000   0.00000  -0.00000   0.00000   3.14159
   D13        3.14159  -0.00000   0.00000  -0.00000   0.00000   3.14159
   D14       -0.00000  -0.00000   0.00000  -0.00000   0.00000   0.00000
         Item               Value     Threshold  Converged?
 Maximum Force            0.001419     0.000450     NO 
 RMS     Force            0.000252     0.000300     YES
 Maximum Displacement     0.002657     0.001800     NO 
 RMS     Displacement     0.001027     0.001200     YES
 Predicted change in Energy=-2.968173D-06
 GradGradGradGradGradGradGradGradGradGradGradGradGradGradGradGradGradGrad

                          Input orientation:                          
 ---------------------------------------------------------------------
 Center     Atomic      Atomic             Coordinates (Angstroms)
 Number     Number       Type             X           Y           Z
 ---------------------------------------------------------------------
      1          6           0       -1.725291    2.629727   -0.000000
      2          6           0       -1.711465    1.264498    0.000000
      3          6           0       -0.448333    0.566464    0.000000
      4          8           0       -0.637557    3.404922    0.000000
      5          8           0        0.654076    1.152389    0.000000
      6          6           0       -2.997828    3.411385   -0.000000
      7          1           0       -2.651841    0.735662   -0.000000
      8          1           0       -0.469011   -0.531077    0.000000
      9          1           0        0.134658    2.779859    0.000000
     10          8           0       -4.102899    2.883126   -0.000000
     11          1           0       -2.860079    4.503639   -0.000000
 ---------------------------------------------------------------------
                    Distance matrix (angstroms):
                    1          2          3          4          5
     1  C    0.000000
     2  C    1.365299   0.000000
     3  C    2.426454   1.443175   0.000000
     4  O    1.335700   2.394722   2.844758   0.000000
     5  O    2.800699   2.368196   1.248445   2.596578   0.000000
     6  C    1.493432   2.502769   3.820144   2.360280   4.294120
     7  H    2.108548   1.078877   2.209995   3.343993   3.332079
     8  H    3.401312   2.183525   1.097736   3.939606   2.023705
     9  H    1.865999   2.388407   2.288886   0.993488   1.708348
    10  O    2.391072   2.887718   4.326982   3.504407   5.062041
    11  H    2.190728   3.436764   4.617127   2.479271   4.855941
                    6          7          8          9         10
     6  C    0.000000
     7  H    2.697999   0.000000
     8  H    4.683794   2.523763   0.000000
     9  H    3.195511   3.455911   3.365519   0.000000
    10  O    1.224843   2.591750   4.986173   4.238815   0.000000
    11  H    1.100906   3.773726   5.573650   3.455411   2.042220
                   11
    11  H    0.000000
 Stoichiometry    C4H4O3
 Framework group  CS[SG(C4H4O3)]
 Deg. of freedom    19
 Full point group                 CS      NOp   2
 Largest Abelian subgroup         CS      NOp   2
 Largest concise Abelian subgroup C1      NOp   1
                         Standard orientation:                         
 ---------------------------------------------------------------------
 Center     Atomic      Atomic             Coordinates (Angstroms)
 Number     Number       Type             X           Y           Z
 ---------------------------------------------------------------------
      1          6           0        0.000000    0.472604   -0.000000
      2          6           0        0.536219   -0.782988    0.000000
      3          6           0       -0.339693   -1.929954    0.000000
      4          8           0       -1.307614    0.745075   -0.000000
      5          8           0       -1.584648   -1.836683   -0.000000
      6          6           0        0.850902    1.699920    0.000000
      7          1           0        1.609862   -0.889130    0.000000
      8          1           0        0.120497   -2.926573    0.000000
      9          1           0       -1.763369   -0.137709   -0.000000
     10          8           0        2.075111    1.660519    0.000000
     11          1           0        0.285645    2.644630   -0.000000
 ---------------------------------------------------------------------
 Rotational constants (GHZ):           6.7367575           1.7215130           1.3711332
 Standard basis: 6-31G(d,p) (6D, 7F)
 There are    93 symmetry adapted cartesian basis functions of A'  symmetry.
 There are    32 symmetry adapted cartesian basis functions of A"  symmetry.
 There are    93 symmetry adapted basis functions of A'  symmetry.
 There are    32 symmetry adapted basis functions of A"  symmetry.
   125 basis functions,   224 primitive gaussians,   125 cartesian basis functions
    26 alpha electrons       26 beta electrons
       nuclear repulsion energy       277.0148522075 Hartrees.
 NAtoms=   11 NActive=   11 NUniq=   11 SFac= 1.00D+00 NAtFMM=   60 NAOKFM=F Big=F
 Integral buffers will be    131072 words long.
 Raffenetti 1 integral format.
 Two-electron integral symmetry is turned on.
 One-electron integrals computed using PRISM.
 NBasis=   125 RedAO= T EigKep=  1.55D-03  NBF=    93    32
 NBsUse=   125 1.00D-06 EigRej= -1.00D+00 NBFU=    93    32
 Initial guess from the checkpoint file:  "8.chk"
 B after Tr=    -0.000000   -0.000000   -0.000000
         Rot=    1.000000    0.000000    0.000000    0.000126 Ang=   0.01 deg.
 Initial guess orbital symmetries:
       Occupied  (A') (A') (A') (A') (A') (A') (A') (A') (A') (A')
                 (A') (A') (A') (A') (A') (A') (A') (A') (A') (A")
                 (A') (A") (A") (A') (A') (A")
       Virtual   (A") (A") (A') (A') (A") (A') (A') (A') (A') (A')
                 (A') (A') (A') (A") (A') (A") (A') (A') (A') (A")
                 (A') (A") (A') (A') (A') (A') (A') (A') (A') (A')
                 (A') (A") (A") (A') (A') (A") (A') (A') (A') (A')
                 (A') (A") (A") (A') (A") (A") (A") (A') (A') (A")
                 (A') (A') (A") (A') (A') (A") (A') (A') (A') (A")
                 (A') (A') (A") (A') (A') (A') (A") (A') (A') (A")
                 (A') (A") (A") (A') (A') (A") (A") (A") (A') (A")
                 (A') (A') (A') (A') (A') (A') (A') (A') (A') (A')
                 (A') (A') (A') (A') (A') (A') (A') (A') (A')
 Keep R1 ints in memory in symmetry-blocked form, NReq=47462677.
 Requested convergence on RMS density matrix=1.00D-08 within 128 cycles.
 Requested convergence on MAX density matrix=1.00D-06.
 Requested convergence on             energy=1.00D-06.
 No special actions if energy rises.
 SCF Done:  E(RHF) =  -378.359057991     A.U. after   10 cycles
            NFock= 10  Conv=0.40D-08     -V/T= 2.0032
 ExpMin= 1.61D-01 ExpMax= 5.48D+03 ExpMxC= 8.25D+02 IAcc=3 IRadAn=         5 AccDes= 0.00D+00
 HarFok:  IExCor=  205 AccDes= 0.00D+00 IRadAn=         5 IDoV=-2 UseB2=F ITyADJ=14
 ICtDFT= 12500011 ScaDFX=  1.000000  1.000000  1.000000  1.000000
 Range of M.O.s used for correlation:     8   125
 NBasis=   125 NAE=    26 NBE=    26 NFC=     7 NFV=     0
 NROrb=    118 NOA=    19 NOB=    19 NVA=    99 NVB=    99
 Fully direct method using O(ONN) memory.
 JobTyp=1 Pass  1:  I=   8 to  26 NPSUse= 28 ParTrn=T ParDer=T DoDerP=T.
 Spin components of T(2) and E(2):
     alpha-alpha T2 =       0.4511595482D-01 E2=     -0.1418020602D+00
     alpha-beta  T2 =       0.2469772705D+00 E2=     -0.7782731707D+00
     beta-beta   T2 =       0.4511595482D-01 E2=     -0.1418020602D+00
 ANorm=    0.1156377611D+01
 E2 =    -0.1061877291D+01 EUMP2 =    -0.37942093528174D+03
          IDoAtm=11111111111
          Differentiating once with respect to electric field.
                with respect to dipole field.
          Differentiating once with respect to nuclear coordinates.
 Keep R1 ints in memory in symmetry-blocked form, NReq=47464096.
          There are     1 degrees of freedom in the 1st order CPHF.  IDoFFX=0 NUNeed=     1.
 LinEq1:  Iter=  0 NonCon=     1 RMS=6.89D-03 Max=1.55D-01 NDo=     1
 AX will form     1 AO Fock derivatives at one time.
 LinEq1:  Iter=  1 NonCon=     1 RMS=2.55D-03 Max=5.35D-02 NDo=     1
 LinEq1:  Iter=  2 NonCon=     1 RMS=8.40D-04 Max=1.26D-02 NDo=     1
 LinEq1:  Iter=  3 NonCon=     1 RMS=3.21D-04 Max=5.29D-03 NDo=     1
 LinEq1:  Iter=  4 NonCon=     1 RMS=9.96D-05 Max=1.50D-03 NDo=     1
 LinEq1:  Iter=  5 NonCon=     1 RMS=4.42D-05 Max=7.05D-04 NDo=     1
 LinEq1:  Iter=  6 NonCon=     1 RMS=1.68D-05 Max=4.65D-04 NDo=     1
 LinEq1:  Iter=  7 NonCon=     1 RMS=6.08D-06 Max=9.53D-05 NDo=     1
 LinEq1:  Iter=  8 NonCon=     1 RMS=2.58D-06 Max=4.55D-05 NDo=     1
 LinEq1:  Iter=  9 NonCon=     1 RMS=8.42D-07 Max=1.51D-05 NDo=     1
 LinEq1:  Iter= 10 NonCon=     1 RMS=3.13D-07 Max=3.07D-06 NDo=     1
 LinEq1:  Iter= 11 NonCon=     1 RMS=9.74D-08 Max=1.41D-06 NDo=     1
 LinEq1:  Iter= 12 NonCon=     1 RMS=2.99D-08 Max=4.54D-07 NDo=     1
 LinEq1:  Iter= 13 NonCon=     1 RMS=7.58D-09 Max=6.34D-08 NDo=     1
 LinEq1:  Iter= 14 NonCon=     1 RMS=1.73D-09 Max=2.12D-08 NDo=     1
 LinEq1:  Iter= 15 NonCon=     1 RMS=5.25D-10 Max=6.60D-09 NDo=     1
 LinEq1:  Iter= 16 NonCon=     1 RMS=1.52D-10 Max=1.55D-09 NDo=     1
 LinEq1:  Iter= 17 NonCon=     0 RMS=3.98D-11 Max=3.66D-10 NDo=     1
 Linear equations converged to 1.000D-10 1.000D-09 after    17 iterations.
 End of Minotr F.D. properties file   721 does not exist.
 End of Minotr F.D. properties file   722 does not exist.
 End of Minotr F.D. properties file   788 does not exist.
 Symmetrizing basis deriv contribution to polar:
 IMax=3 JMax=2 DiffMx= 0.00D+00
 Calling FoFJK, ICntrl=  10002127 FMM=F ISym2X=1 I1Cent= 0 IOpClX= 0 NMat=1 NMatS=1 NMatT=0.
 ***** Axes restored to original set *****
 -------------------------------------------------------------------
 Center     Atomic                   Forces (Hartrees/Bohr)
 Number     Number              X              Y              Z
 -------------------------------------------------------------------
      1        6           0.000024050    0.000008089    0.000000000
      2        6           0.000050121   -0.000006108    0.000000000
      3        6          -0.000054867    0.000010940   -0.000000000
      4        8          -0.000078135    0.000063425   -0.000000000
      5        8           0.000002648    0.000013387   -0.000000000
      6        6           0.000003327   -0.000013212    0.000000000
      7        1           0.000014690   -0.000019362    0.000000000
      8        1          -0.000008758    0.000000905   -0.000000000
      9        1           0.000044544   -0.000069810    0.000000000
     10        8           0.000000177    0.000011137   -0.000000000
     11        1           0.000002202    0.000000609    0.000000000
 -------------------------------------------------------------------
 Cartesian Forces:  Max     0.000078135 RMS     0.000027235

 GradGradGradGradGradGradGradGradGradGradGradGradGradGradGradGradGradGrad
 Berny optimization.
 Using GEDIIS/GDIIS optimizer.
 FormGI is forming the generalized inverse of G from B-inverse, IUseBI=4.
 Internal  Forces:  Max     0.000078544 RMS     0.000021534
 Search for a local minimum.
 Step number   4 out of a maximum of   47
 All quantities printed in internal units (Hartrees-Bohrs-Radians)
 Mixed Optimization -- En-DIIS/RFO-DIIS
 Swapping is turned off.
 Update second derivatives using D2CorX and points    1    2    3    4
 DE= -3.06D-06 DEPred=-2.97D-06 R= 1.03D+00
 TightC=F SS=  1.41D+00  RLast= 4.20D-03 DXNew= 8.4853D-01 1.2599D-02
 Trust test= 1.03D+00 RLast= 4.20D-03 DXMaxT set to 5.05D-01
 ITU=  1  1  1  0
     Eigenvalues ---    0.00405   0.00939   0.01419   0.02035   0.02655
     Eigenvalues ---    0.06471   0.07486   0.09037   0.10708   0.13523
     Eigenvalues ---    0.13945   0.18193   0.19780   0.20602   0.22479
     Eigenvalues ---    0.23868   0.30444   0.32040   0.33218   0.34803
     Eigenvalues ---    0.35515   0.37785   0.49493   0.57554   0.72774
     Eigenvalues ---    0.81261   0.83173
 En-DIIS/RFO-DIIS/Sim-DIIS IScMMF=       -3 using points:     4    3
 RFO step:  Lambda=-7.17684749D-08.
 DidBck=F Rises=F RFO-DIIS coefs:    1.03342   -0.03342
 Iteration  1 RMS(Cart)=  0.00022446 RMS(Int)=  0.00000002
 Iteration  2 RMS(Cart)=  0.00000003 RMS(Int)=  0.00000000
 ClnCor:  largest displacement from symmetrization is 1.56D-13 for atom     9.
 Variable       Old X    -DE/DX   Delta X   Delta X   Delta X     New X
                                 (Linear)    (Quad)   (Total)
    R1        2.58004   0.00000   0.00002   0.00002   0.00004   2.58008
    R2        2.52411  -0.00003  -0.00011   0.00001  -0.00010   2.52401
    R3        2.82218  -0.00001   0.00001  -0.00003  -0.00002   2.82216
    R4        2.72721  -0.00007   0.00001  -0.00024  -0.00023   2.72698
    R5        2.03878  -0.00000   0.00000  -0.00001  -0.00001   2.03877
    R6        2.35922   0.00001   0.00001   0.00005   0.00006   2.35928
    R7        2.07442  -0.00000   0.00000  -0.00001  -0.00001   2.07441
    R8        1.87742   0.00008   0.00003   0.00024   0.00027   1.87769
[...]
     3   6     0.00  -0.00   0.23     0.11   0.20   0.00     0.11  -0.13  -0.00
     4   8    -0.00   0.00   0.13    -0.09  -0.34   0.00     0.09   0.35  -0.00
     5   8     0.00  -0.00  -0.16     0.10   0.49  -0.00     0.15   0.17   0.00
     6   6     0.00  -0.00  -0.02    -0.11  -0.05   0.00    -0.18  -0.20   0.00
     7   1    -0.00   0.00  -0.18     0.18   0.14  -0.00     0.09   0.04  -0.00
     8   1     0.00   0.00   0.91    -0.15   0.09   0.00    -0.05  -0.21   0.00
     9   1    -0.00   0.00  -0.06     0.19  -0.56   0.00    -0.23   0.56   0.00
    10   8     0.00  -0.00   0.02    -0.12  -0.26   0.00    -0.20  -0.04  -0.00
    11   1     0.00   0.00   0.01     0.02   0.02   0.00    -0.34  -0.29  -0.00
                      7                      8                      9
                     A"                     A'                     A'
 Frequencies --    545.8414               605.9567               804.2288
 Red. masses --      4.4355                 9.7991                 4.9958
 Frc consts  --      0.7786                 2.1199                 1.9038
 IR Inten    --      0.0855                45.3220                 2.3739
  Atom  AN      X      Y      Z        X      Y      Z        X      Y      Z
     1   6     0.00   0.00   0.48     0.29   0.11   0.00     0.03   0.10  -0.00
     2   6     0.00   0.00  -0.24     0.15   0.08   0.00    -0.10  -0.15  -0.00
     3   6    -0.00   0.00   0.00    -0.10   0.20  -0.00     0.02  -0.36  -0.00
     4   8    -0.00  -0.00  -0.13     0.38  -0.00  -0.00    -0.01   0.00   0.00
     5   8    -0.00  -0.00   0.02    -0.15  -0.20   0.00     0.07   0.11   0.00
     6   6     0.00   0.00   0.04    -0.25   0.21   0.00    -0.00   0.39   0.00
     7   1    -0.00  -0.00  -0.12     0.11  -0.29  -0.00    -0.10  -0.16   0.00
     8   1    -0.00  -0.00   0.29     0.07   0.27  -0.00    -0.19  -0.46   0.00
     9   1     0.00  -0.00  -0.42     0.25   0.08  -0.00     0.14  -0.09   0.00
    10   8     0.00   0.00  -0.04    -0.31  -0.27  -0.00    -0.03  -0.09  -0.00
    11   1     0.00   0.00  -0.65    -0.17   0.26   0.00     0.23   0.53  -0.00
                     10                     11                     12
                     A"                     A"                     A'
 Frequencies --    804.4789               898.1461               948.1667
 Red. masses --      1.1103                 1.1461                 5.1263
 Frc consts  --      0.4234                 0.5447                 2.7153
 IR Inten    --     51.0888                94.7722                 0.5870
  Atom  AN      X      Y      Z        X      Y      Z        X      Y      Z
     1   6    -0.00  -0.00  -0.01    -0.00  -0.00   0.05    -0.01  -0.10  -0.00
     2   6     0.00   0.00  -0.09    -0.00  -0.00  -0.02     0.48  -0.08   0.00
     3   6    -0.00   0.00  -0.03     0.00   0.00   0.05    -0.07   0.01  -0.00
     4   8     0.00  -0.00   0.01     0.00  -0.00  -0.07    -0.23   0.08  -0.00
     5   8    -0.00  -0.00   0.01     0.00  -0.00  -0.04    -0.12  -0.06   0.00
     6   6     0.00  -0.00   0.00     0.00   0.00  -0.01     0.02   0.15   0.00
     7   1     0.00   0.00   0.96    -0.00  -0.00  -0.23     0.50  -0.09  -0.00
     8   1     0.00   0.00   0.06     0.00   0.00  -0.05    -0.32  -0.11   0.00
     9   1    -0.00   0.00   0.25    -0.00   0.00   0.96    -0.40   0.20   0.00
    10   8     0.00   0.00  -0.00     0.00  -0.00   0.00     0.03  -0.01  -0.00
    11   1    -0.00  -0.00  -0.04     0.00   0.00   0.07     0.16   0.23  -0.00
                     13                     14                     15
                     A"                     A"                     A'
 Frequencies --   1008.5597              1025.2989              1085.7270
 Red. masses --      1.7097                 1.6702                 1.6820
 Frc consts  --      1.0246                 1.0345                 1.1682
 IR Inten    --      0.4770                 0.3613                54.2788
  Atom  AN      X      Y      Z        X      Y      Z        X      Y      Z
     1   6     0.00   0.00   0.09    -0.00   0.00   0.06    -0.01   0.06  -0.00
     2   6     0.00   0.00  -0.06     0.00   0.00   0.06     0.07   0.12   0.00
     3   6    -0.00  -0.00   0.11    -0.00  -0.00  -0.19    -0.03  -0.15   0.00
     4   8    -0.00   0.00   0.00    -0.00   0.00  -0.01     0.05  -0.02  -0.00
     5   8    -0.00  -0.00  -0.02    -0.00  -0.00   0.04    -0.07   0.00  -0.00
     6   6    -0.00  -0.00  -0.19     0.00   0.00  -0.12    -0.01  -0.06   0.00
     7   1     0.00   0.00   0.12     0.00   0.00  -0.04     0.15   0.87  -0.00
     8   1    -0.00  -0.00  -0.50    -0.00  -0.00   0.83    -0.25  -0.25  -0.00
     9   1     0.00  -0.00  -0.22     0.00  -0.00   0.09     0.14  -0.06   0.00
    10   8    -0.00  -0.00   0.04     0.00  -0.00   0.03    -0.00   0.01  -0.00
    11   1    -0.00  -0.00   0.79     0.00  -0.00   0.49    -0.03  -0.08  -0.00
                     16                     17                     18
                     A'                     A'                     A'
 Frequencies --   1212.5088              1397.0575              1419.8358
 Red. masses --      2.3882                 1.4109                 1.4422
 Frc consts  --      2.0686                 1.6225                 1.7130
 IR Inten    --    215.7975                15.2230               143.0998
  Atom  AN      X      Y      Z        X      Y      Z        X      Y      Z
     1   6     0.13   0.23  -0.00    -0.12   0.02  -0.00    -0.02  -0.01  -0.00
     2   6     0.06   0.06   0.00     0.03   0.03  -0.00     0.01  -0.14  -0.00
     3   6    -0.01  -0.09   0.00     0.01  -0.01   0.00     0.06   0.04  -0.00
     4   8    -0.11   0.04  -0.00     0.07  -0.00  -0.00    -0.03   0.08  -0.00
     5   8     0.00   0.00  -0.00     0.00  -0.01  -0.00    -0.07  -0.01   0.00
     6   6    -0.02  -0.14   0.00    -0.01  -0.09  -0.00    -0.00   0.00   0.00
     7   1    -0.01  -0.71  -0.00    -0.00  -0.31   0.00     0.05   0.29   0.00
     8   1    -0.10  -0.14   0.00    -0.15  -0.09  -0.00     0.29   0.16  -0.00
     9   1     0.42  -0.28   0.00     0.06  -0.02   0.00     0.73  -0.45  -0.00
    10   8    -0.02   0.00  -0.00    -0.05   0.04   0.00    -0.01   0.00  -0.00
    11   1    -0.19  -0.25  -0.00     0.83   0.39  -0.00     0.13   0.08  -0.00
                     19                     20                     21
                     A'                     A'                     A'
 Frequencies --   1444.7935              1491.6218              1682.6852
 Red. masses --      1.3174                 2.7995                 4.3111
 Frc consts  --      1.6202                 3.6699                 7.1918
 IR Inten    --     17.5706                27.8003               124.1021
  Atom  AN      X      Y      Z        X      Y      Z        X      Y      Z
     1   6     0.06   0.01   0.00     0.30  -0.00  -0.00     0.00   0.27   0.00
     2   6     0.02   0.03  -0.00    -0.09  -0.08   0.00    -0.03  -0.25  -0.00
     3   6    -0.01  -0.10  -0.00    -0.08   0.08  -0.00     0.32   0.07  -0.00
     4   8    -0.02  -0.02   0.00    -0.12  -0.01  -0.00     0.02  -0.05   0.00
     5   8    -0.07   0.05   0.00     0.10  -0.01  -0.00    -0.17  -0.00   0.00
     6   6    -0.00  -0.03  -0.00     0.01  -0.07   0.00    -0.07  -0.06  -0.00
     7   1     0.02   0.00   0.00    -0.03   0.54  -0.00     0.03   0.17   0.00
     8   1     0.87   0.27   0.00    -0.28   0.00   0.00    -0.26  -0.16   0.00
     9   1    -0.26   0.16  -0.00    -0.17   0.09   0.00    -0.70   0.32  -0.00
    10   8    -0.02   0.01  -0.00    -0.08   0.02   0.00     0.04   0.01   0.00
    11   1     0.20   0.08   0.00     0.61   0.25  -0.00     0.00  -0.03   0.00
                     22                     23                     24
                     A'                     A'                     A'
 Frequencies --   1711.8023              1767.3407              3075.5332
 Red. masses --      7.3929                 7.7778                 1.0879
 Frc consts  --     12.7636                14.3135                 6.0626
 IR Inten    --    145.6446                44.1816                88.2912
  Atom  AN      X      Y      Z        X      Y      Z        X      Y      Z
     1   6     0.17  -0.30   0.00    -0.16   0.20  -0.00     0.00   0.00  -0.00
     2   6    -0.11   0.28  -0.00     0.07  -0.17  -0.00    -0.00  -0.00  -0.00
     3   6     0.40  -0.02   0.00    -0.12   0.02   0.00     0.00  -0.00   0.00
     4   8    -0.08   0.04   0.00     0.04  -0.04  -0.00    -0.00  -0.00   0.00
     5   8    -0.24   0.02   0.00     0.07  -0.01  -0.00    -0.00   0.00  -0.00
     6   6     0.26   0.06  -0.00     0.56   0.00   0.00     0.04  -0.08   0.00
     7   1    -0.21  -0.34   0.00     0.14   0.15   0.00     0.00   0.00   0.00
     8   1    -0.38  -0.36  -0.00     0.17   0.14  -0.00    -0.02   0.04  -0.00
     9   1     0.07  -0.10   0.00    -0.21   0.10   0.00    -0.00   0.00   0.00
    10   8    -0.19  -0.00   0.00    -0.36   0.01  -0.00    -0.00   0.00  -0.00
    11   1     0.07  -0.06   0.00    -0.28  -0.46  -0.00    -0.49   0.87  -0.00
                     25                     26                     27
                     A'                     A'                     A'
 Frequencies --   3101.8813              3318.8960              3331.7800
 Red. masses --      1.0888                 1.0920                 1.0682
 Frc consts  --      6.1724                 7.0868                 6.9863
 IR Inten    --     95.9688                10.2783               132.6282
  Atom  AN      X      Y      Z        X      Y      Z        X      Y      Z
     1   6    -0.00   0.00  -0.00    -0.00  -0.00  -0.00    -0.01   0.00   0.00
     2   6    -0.00   0.00  -0.00    -0.09   0.01   0.00     0.02  -0.01   0.00
     3   6     0.03  -0.08   0.00     0.00   0.01  -0.00     0.01   0.00  -0.00
     4   8     0.00   0.00   0.00    -0.00  -0.01   0.00    -0.03  -0.05  -0.00
     5   8     0.00   0.00  -0.00    -0.00   0.00   0.00    -0.01   0.00   0.00
     6   6    -0.00   0.00   0.00    -0.00   0.00   0.00     0.00   0.00   0.00
     7   1     0.03  -0.01   0.00     0.97  -0.10   0.00    -0.18   0.01  -0.00
     8   1    -0.40   0.91  -0.00     0.00  -0.02   0.00    -0.02   0.03   0.00
     9   1    -0.02  -0.02   0.00     0.11   0.15  -0.00     0.54   0.82  -0.00
    10   8    -0.00  -0.00  -0.00     0.00  -0.00  -0.00     0.00   0.00   0.00
    11   1     0.02  -0.04  -0.00     0.00   0.00  -0.00     0.00  -0.01  -0.00

 -------------------
 - Thermochemistry -
 -------------------
 Temperature   298.150 Kelvin.  Pressure   1.00000 Atm.
 Atom     1 has atomic number  6 and mass  12.00000
 Atom     2 has atomic number  6 and mass  12.00000
 Atom     3 has atomic number  6 and mass  12.00000
 Atom     4 has atomic number  8 and mass  15.99491
 Atom     5 has atomic number  8 and mass  15.99491
 Atom     6 has atomic number  6 and mass  12.00000
 Atom     7 has atomic number  1 and mass   1.00783
 Atom     8 has atomic number  1 and mass   1.00783
 Atom     9 has atomic number  1 and mass   1.00783
 Atom    10 has atomic number  8 and mass  15.99491
 Atom    11 has atomic number  1 and mass   1.00783
 Molecular mass:   100.01604 amu.
 Principal axes and moments of inertia in atomic units:
                           1         2         3
     Eigenvalues --   267.894641048.345971316.24061
           X            0.60780   0.79409   0.00000
           Y            0.79409  -0.60780   0.00000
           Z           -0.00000  -0.00000   1.00000
 This molecule is an asymmetric top.
 Rotational symmetry number  1.
 Rotational temperatures (Kelvin)      0.32331     0.08262     0.06580
 Rotational constants (GHZ):           6.73676     1.72151     1.37113
 Zero-point vibrational energy     204614.2 (Joules/Mol)
                                   48.90396 (Kcal/Mol)
 Warning -- explicit consideration of   8 degrees of freedom as
           vibrations may cause significant error
 Vibrational temperatures:    174.95   263.18   295.51   395.68   410.97
          (Kelvin)            656.26   785.34   871.84  1157.11  1157.47
                             1292.23  1364.20  1451.09  1475.18  1562.12
                             1744.53  2010.05  2042.83  2078.74  2146.11
                             2421.01  2462.90  2542.81  4425.01  4462.92
                             4775.15  4793.69
 
 Zero-point correction=                           0.077933 (Hartree/Particle)
 Thermal correction to Energy=                    0.084495
 Thermal correction to Enthalpy=                  0.085440
 Thermal correction to Gibbs Free Energy=         0.047223
 Sum of electronic and zero-point Energies=           -379.343002
 Sum of electronic and thermal Energies=              -379.336440
 Sum of electronic and thermal Enthalpies=            -379.335496
 Sum of electronic and thermal Free Energies=         -379.373713
 
                     E (Thermal)             CV                S
                      KCal/Mol        Cal/Mol-Kelvin    Cal/Mol-Kelvin
 Total                   53.022             22.435             80.434
 Electronic               0.000              0.000              0.000
 Translational            0.889              2.981             39.718
 Rotational               0.889              2.981             27.405
 Vibrational             51.244             16.473             13.311
 Vibration     1          0.609              1.931              3.075
 Vibration     2          0.630              1.863              2.298
 Vibration     3          0.640              1.832              2.084
 Vibration     4          0.677              1.720              1.565
 Vibration     5          0.683              1.700              1.500
 Vibration     6          0.814              1.347              0.777
 Vibration     7          0.901              1.149              0.553
 Vibration     8          0.965              1.019              0.440
                       Q            Log10(Q)             Ln(Q)
 Total Bot       0.190138D-21        -21.720932        -50.014293
 Total V=0       0.133635D+15         14.125920         32.526133
 Vib (Bot)       0.222209D-34        -34.653238        -79.792028
 Vib (Bot)    1  0.168000D+01          0.225310          0.518795
 Vib (Bot)    2  0.109689D+01          0.040164          0.092481
 Vib (Bot)    3  0.968796D+00         -0.013768         -0.031702
 Vib (Bot)    4  0.700938D+00         -0.154320         -0.355336
 Vib (Bot)    5  0.671085D+00         -0.173222         -0.398859
 Vib (Bot)    6  0.374090D+00         -0.427024         -0.983258
 Vib (Bot)    7  0.288652D+00         -0.539626         -1.242535
 Vib (Bot)    8  0.244908D+00         -0.610996         -1.406871
 Vib (V=0)       0.156176D+02          1.193614          2.748398
 Vib (V=0)    1  0.225283D+01          0.352728          0.812186
 Vib (V=0)    2  0.170548D+01          0.231846          0.533844
 Vib (V=0)    3  0.159021D+01          0.201455          0.463868
 Vib (V=0)    4  0.136100D+01          0.133857          0.308217
 Vib (V=0)    5  0.133687D+01          0.126090          0.290333
 Vib (V=0)    6  0.112445D+01          0.050942          0.117298
 Vib (V=0)    7  0.107734D+01          0.032352          0.074494
 Vib (V=0)    8  0.105676D+01          0.023976          0.055206
 Electronic      0.100000D+01          0.000000          0.000000
 Translational   0.393150D+08          7.594558         17.487117
 Rotational      0.217644D+06          5.337748         12.290618
 ***** Axes restored to original set *****
 -------------------------------------------------------------------
 Center     Atomic                   Forces (Hartrees/Bohr)
 Number     Number              X              Y              Z
 -------------------------------------------------------------------
      1        6           0.000024047    0.000008070    0.000000000
      2        6           0.000050112   -0.000006096    0.000000000
      3        6          -0.000054826    0.000010959   -0.000000000
      4        8          -0.000078120    0.000063433   -0.000000000
      5        8           0.000002621    0.000013378   -0.000000000
      6        6           0.000003315   -0.000013229    0.000000000
      7        1           0.000014689   -0.000019364    0.000000000
      8        1          -0.000008763    0.000000898   -0.000000000
      9        1           0.000044543   -0.000069811    0.000000000
     10        8           0.000000175    0.000011140   -0.000000000
     11        1           0.000002206    0.000000621    0.000000000
 -------------------------------------------------------------------
 Cartesian Forces:  Max     0.000078120 RMS     0.000027232

 **********************************************************************

             Second-order Perturbative Anharmonic Analysis

 **********************************************************************

     ==================================================
                      Reference System
     ==================================================

 NOTE: The system is set in Eckart orientation for the anharmonic
       treatment.
 
 Atom           X                  Y                  Z
 ----------------------------------------------------------------
  C       0.3665008724500    0.2774186037704   -0.0000000000000
  C      -0.3046362260036   -0.9115374392611    0.0000000000000
  C      -1.7478101157630   -0.9131131929300    0.0000000000000
  O      -0.2119026228939    1.4813884809683    0.0000000000000
  O      -2.4304299516251    0.1321829441855    0.0000000000000
  C       1.8582784635113    0.3476903469542   -0.0000000000000
  H       0.2636387707309   -1.8286189904815   -0.0000000000000
  H      -2.2595100050102   -1.8842915211920    0.0000000000000
  H      -1.1899198301340    1.3067417738227    0.0000000000000
  O       2.5710663381766   -0.6483883997122   -0.0000000000000
  H       2.2648985193268    1.3707509936929   -0.0000000000000
 ----------------------------------------------------------------

     ==================================================
               Analysis of the Rotor Symmetry
     ==================================================

 Framework Group : CS  
 Rotor Type      : Asymmetric Top
 Asymm. param.   : Kappa = -0.869398
 Inertia moments : X=   267.89464 , Y=  1048.34597 , Z=  1316.24061
 Representation  : IIIr Representation, Ix < Iy < Iz

 Axes Definition for the Symmetric-Top Representation
 ----------------------------------------------------
 Axis Z automatically chosen to be collinear with X from Eckart orient.
 NOTE: In Vibro-rotational analysis, this will be referred to as the
       spectroscopic orientation.

     ==================================================
                   Data Source Definition
     ==================================================

 Main data sources
 -----------------
 Harmonic data taken from: current calculation
 Anharmonic data taken from: current calculation

     ==================================================
           Input Data Extraction and Preparation
     ==================================================

 Data for Harmonic Potential Energy Surface
 ------------------------------------------

 Definition of the model system: Active modes
 --------------------------------------------
 The 27 Active Modes are:
     1     2     3     4     5     6     7     8     9    10    11    12    13
    14    15    16    17    18    19    20    21    22    23    24    25    26
    27

 Data for Anharmonic Potential Energy Surface
 --------------------------------------------
 ERROR: Missing anharmonic PES.
 Error termination via Lnk1e in /sw/contrib/gaussian/g16/A03/g16/l717.exe at Tue Oct 27 14:51:48 2020.
 Job cpu time:       1 days 18 hours 34 minutes 49.4 seconds.
 Elapsed time:       0 days  1 hours 33 minutes 35.8 seconds.
 File lengths (MBytes):  RWF=   1804 Int=      0 D2E=      0 Chk=     48 Scr=      8
