 argument  1 = 8cC.nw
 


============================== echo of input deck ==============================
echo
start 8cC
title "H,CHO,H Chelate"
charge 0

geometry
 zmatrix
  O
  C  1  R1
  C  2  R2  1  A1
  C  3  R3  2  A2  1  D0
  O  4  R4  3  A3  2  D0
  H  1  R5  2  A4  3  D0
  H  2  R6  3  A5  4  D180
  C  3  R7  2  A6  1  D180
  H  4  R8  3  A7  2  D180
  O  8  R9  3  A8  2  D0
  H  8  R10 3  A9  2  D180
  variables
    R1  1.329
    R2  1.363
    A1  124.5
    R3  1.440
    A2  119.5
    R4  1.249
    A3  123.5
    R5  0.994
    A4  105.4
    R6  1.085
    A5  122.5
    R7  1.478
    A6  120.0
    R8  1.099
    A7  117.6
    R9  1.250
    A8  120.0
    R10 1.000
    A9  120.0
  constants
    D0  0.000
    D180 180.0
 end
end

basis spherical
 * library aug-cc-pVDZ
end

set lindep:n_dep 0

set cphf:maxsub 95
set cphf:maxiter 999
set int:acc_std 1d-16
set fock:densityscreen f

scf
 maxiter 99
 vectors input atomic
 thresh 1d-9
 tol2e 1d-15
end

mp2
 freeze atomic
 tight
end

driver
 clear
 maxiter 99
 tight
end

set "mp2:aotol2e fock" 1d-15
set mp2:aotol2e 1d-15
set mp2:backtol 1d-15


task mp2 optimize
task mp2 frequencies


================================================================================


                                         
                                         
 
 
             Northwest Computational Chemistry Package (NWChem) 7.0.0
             --------------------------------------------------------
 
 
                    Environmental Molecular Sciences Laboratory
                       Pacific Northwest National Laboratory
                                Richland, WA 99352
 
                              Copyright (c) 1994-2020
                       Pacific Northwest National Laboratory
                            Battelle Memorial Institute
 
             NWChem is an open-source computational chemistry package
                        distributed under the terms of the
                      Educational Community License (ECL) 2.0
             A copy of the license is included with this distribution
                              in the LICENSE.TXT file
 
                                  ACKNOWLEDGMENT
                                  --------------

            This software and its documentation were developed at the
            EMSL at Pacific Northwest National Laboratory, a multiprogram
            national laboratory, operated for the U.S. Department of Energy
            by Battelle under Contract Number DE-AC05-76RL01830. Support
            for this work was provided by the Department of Energy Office
            of Biological and Environmental Research, Office of Basic
            Energy Sciences, and the Office of Advanced Scientific Computing.


           Job information
           ---------------

    hostname        = compute-0-19.local
    program         = /scratch/nwchem.277679
    date            = Wed Mar 31 12:17:43 2021

    compiled        = Wed_Mar_31_10:43:23_2021
    source          = /home/edo/nwchem-7.0.1
    nwchem branch   = 7.0.1
    nwchem revision = de46fdf
    ga revision     = 5.7.1
    use scalapack   = T
    input           = 8cC.nw
    prefix          = 8cC.
    data base       = ./8cC.db
    status          = startup
    nproc           =       11
    time left       =     -1s



           Memory information
           ------------------

    heap     =  215205455 doubles =   1641.9 Mbytes
    stack    =  215205457 doubles =   1641.9 Mbytes
    global   =  122974549 doubles =    938.2 Mbytes (distinct from heap & stack)
    total    =  553385461 doubles =   4222.0 Mbytes
    verify   = yes
    hardfail = no 


           Directory information
           ---------------------
 
  0 permanent = .
  0 scratch   = /scratch
 
 
 
 
                                NWChem Input Module
                                -------------------
 
 
                                  H,CHO,H Chelate
                                  ---------------

 Scaling coordinates for geometry "geometry" by  1.889725989
 (inverse scale =  0.529177249)

 CS  symmetry detected
 
 
                             Geometry "geometry" -> ""
                             -------------------------
 
 Output coordinates in angstroms (scale by  1.889725989 to convert to a.u.)
 
  No.       Tag          Charge          X              Y              Z
 ---- ---------------- ---------- -------------- -------------- --------------
    1 O                    8.0000    -1.58207924     1.31224414     0.00000000
    2 C                    6.0000    -1.10194352     0.07300619     0.00000000
    3 C                    6.0000     0.22438195    -0.24104755     0.00000000
    4 C                    6.0000     1.20317242     0.81515755     0.00000000
    5 O                    8.0000     0.90781533     2.02873292     0.00000000
    6 H                    1.0000    -0.78385713     1.90459324     0.00000000
    7 H                    1.0000    -1.88007431    -0.68312704     0.00000000
    8 C                    6.0000     0.64857143    -1.65686791     0.00000000
    9 H                    1.0000     2.26361773     0.52661510     0.00000000
   10 O                    8.0000    -0.20904161    -2.56626324     0.00000000
   11 H                    1.0000     1.62166422    -1.88728151     0.00000000
 
      Atomic Mass 
      ----------- 
 
      O                 15.994910
      C                 12.000000
      H                  1.007825
 

 Effective nuclear repulsion energy (a.u.)     278.2607327500

            Nuclear Dipole moment (a.u.) 
            ----------------------------
        X                 Y               Z
 ---------------- ---------------- ----------------
    -0.0000000000     0.0000000000     0.0000000000
 
      Symmetry information
      --------------------
 
 Group name             Cs        
 Group number              2
 Group order               2
 No. of unique centers    11
 
      Symmetry unique atoms
 
     1    2    3    4    5    6    7    8    9   10   11
 


                                Z-matrix (user)
                                -------- 

 Units are Angstrom for bonds and degrees for angles

  Constants are marked with an asterisk (*).

  Constrained variables are marked with a plus sign (+).

 
      Type          Name      I     J     K     L     M      Value
      ----------- --------  ----- ----- ----- ----- ----- ----------
    1 Stretch      R1          2     1                       1.32900
    2 Stretch      R2          3     2                       1.36300
    3 Bend         A1          3     2     1               124.50000
    4 Stretch      R3          4     3                       1.44000
    5 Bend         A2          4     3     2               119.50000
    6*Torsion      D0          4     3     2     1           0.00000
    7 Stretch      R4          5     4                       1.24900
    8 Bend         A3          5     4     3               123.50000
    9*Torsion      D0          5     4     3     2           0.00000
   10 Stretch      R5          6     1                       0.99400
   11 Bend         A4          6     1     2               105.40000
   12*Torsion      D0          6     1     2     3           0.00000
   13 Stretch      R6          7     2                       1.08500
   14 Bend         A5          7     2     3               122.50000
   15*Torsion      D180        7     2     3     4         180.00000
   16 Stretch      R7          8     3                       1.47800
   17 Bend         A6          8     3     2               120.00000
   18*Torsion      D180        8     3     2     1         180.00000
   19 Stretch      R8          9     4                       1.09900
   20 Bend         A7          9     4     3               117.60000
   21*Torsion      D180        9     4     3     2         180.00000
   22 Stretch      R9         10     8                       1.25000
   23 Bend         A8         10     8     3               120.00000
   24*Torsion      D0         10     8     3     2           0.00000
   25 Stretch      R10        11     8                       1.00000
   26 Bend         A9         11     8     3               120.00000
   27*Torsion      D180       11     8     3     2         180.00000
 
 
            XYZ format geometry
            -------------------
    11
 geometry
 O                    -1.58207924     1.31224414     0.00000000
 C                    -1.10194352     0.07300619     0.00000000
 C                     0.22438195    -0.24104755     0.00000000
 C                     1.20317242     0.81515755     0.00000000
 O                     0.90781533     2.02873292     0.00000000
 H                    -0.78385713     1.90459324     0.00000000
 H                    -1.88007431    -0.68312704     0.00000000
 C                     0.64857143    -1.65686791     0.00000000
 H                     2.26361773     0.52661510     0.00000000
 O                    -0.20904161    -2.56626324     0.00000000
 H                     1.62166422    -1.88728151     0.00000000
 
 ==============================================================================
                                internuclear distances
 ------------------------------------------------------------------------------
       center one      |      center two      | atomic units |  angstroms
 ------------------------------------------------------------------------------
    2 C                |   1 O                |     2.51145  |     1.32900
    3 C                |   2 C                |     2.57570  |     1.36300
    4 C                |   3 C                |     2.72121  |     1.44000
    5 O                |   4 C                |     2.36027  |     1.24900
    6 H                |   1 O                |     1.87839  |     0.99400
    7 H                |   2 C                |     2.05035  |     1.08500
    8 C                |   3 C                |     2.79302  |     1.47800
    9 H                |   4 C                |     2.07681  |     1.09900
   10 O                |   8 C                |     2.36216  |     1.25000
   11 H                |   8 C                |     1.88973  |     1.00000
 ------------------------------------------------------------------------------
                         number of included internuclear distances:         10
 ==============================================================================



 ==============================================================================
                                 internuclear angles
 ------------------------------------------------------------------------------
        center 1       |       center 2       |       center 3       |  degrees
 ------------------------------------------------------------------------------
    2 C                |   1 O                |   6 H                |   105.40
    1 O                |   2 C                |   3 C                |   124.50
    1 O                |   2 C                |   7 H                |   113.00
    3 C                |   2 C                |   7 H                |   122.50
    2 C                |   3 C                |   4 C                |   119.50
    2 C                |   3 C                |   8 C                |   120.00
    4 C                |   3 C                |   8 C                |   120.50
    3 C                |   4 C                |   5 O                |   123.50
    3 C                |   4 C                |   9 H                |   117.60
    5 O                |   4 C                |   9 H                |   118.90
    3 C                |   8 C                |  10 O                |   120.00
    3 C                |   8 C                |  11 H                |   120.00
   10 O                |   8 C                |  11 H                |   120.00
 ------------------------------------------------------------------------------
                            number of included internuclear angles:         13
 ==============================================================================





 Summary of "ao basis" -> "" (spherical)
 ------------------------------------------------------------------------------
       Tag                 Description            Shells   Functions and Types
 ---------------- ------------------------------  ------  ---------------------
 *                        aug-cc-pVDZ                 on all atoms 


 
  Deleted DRIVER restart files 
 
 
 
                           NWChem Geometry Optimization
                           ----------------------------
 
 
 
 
                                  H,CHO,H Chelate
 
 
 maximum gradient threshold         (gmax) =   0.000015
 rms gradient threshold             (grms) =   0.000010
 maximum cartesian step threshold   (xmax) =   0.000060
 rms cartesian step threshold       (xrms) =   0.000040
 fixed trust radius                (trust) =   0.300000
 maximum step size to saddle      (sadstp) =   0.100000
 energy precision                  (eprec) =   1.0D-07
 maximum number of steps          (nptopt) =   99
 initial hessian option           (inhess) =    0
 line search option               (linopt) =    1
 hessian update option            (modupd) =    1
 saddle point option              (modsad) =    0
 initial eigen-mode to follow     (moddir) =    0
 initial variable to follow       (vardir) =    0
 follow first negative mode     (firstneg) =    T
 apply conjugacy                    (opcg) =    F
 source of zmatrix                         =   user    


          -------------------
          Energy Minimization
          -------------------

 
 Names of Z-matrix variables 
    1 R1           2 R2           3 A1           4 R3           5 A2      
    6 D0           7 R4           8 A3           9 D0          10 R5      
   11 A4          12 D0          13 R6          14 A5          15 D180    
   16 R7          17 A6          18 D180        19 R8          20 A7      
   21 D180        22 R9          23 A8          24 D0          25 R10     
   26 A9          27 D180    
 
 Variables with the same non-blank name are constrained to be equal
 
     variables named       D0 =     6    9   12   24 
     variables named     D180 =    15   18   21   27 

 Number of frozen variables =    8
           Frozen variables =    6    9   12   15   18   21   24   27
 
 Using diagonal initial Hessian 
 Scaling for Hessian diagonals: bonds = 1.00  angles = 0.25  torsions = 0.10

          --------
          Step   0
          --------
 
 
                         Geometry "geometry" -> "geometry"
                         ---------------------------------
 
 Output coordinates in angstroms (scale by  1.889725989 to convert to a.u.)
 
  No.       Tag          Charge          X              Y              Z
 ---- ---------------- ---------- -------------- -------------- --------------
    1 O                    8.0000    -1.58207924     1.31224414     0.00000000
    2 C                    6.0000    -1.10194352     0.07300619     0.00000000
    3 C                    6.0000     0.22438195    -0.24104755     0.00000000
    4 C                    6.0000     1.20317242     0.81515755     0.00000000
    5 O                    8.0000     0.90781533     2.02873292     0.00000000
    6 H                    1.0000    -0.78385713     1.90459324     0.00000000
    7 H                    1.0000    -1.88007431    -0.68312704     0.00000000
    8 C                    6.0000     0.64857143    -1.65686791     0.00000000
    9 H                    1.0000     2.26361773     0.52661510     0.00000000
   10 O                    8.0000    -0.20904161    -2.56626324     0.00000000
   11 H                    1.0000     1.62166422    -1.88728151     0.00000000
 
      Atomic Mass 
      ----------- 
 
      O                 15.994910
      C                 12.000000
      H                  1.007825
 

 Effective nuclear repulsion energy (a.u.)     278.2607327500

            Nuclear Dipole moment (a.u.) 
            ----------------------------
        X                 Y               Z
 ---------------- ---------------- ----------------
    -0.0000000000     0.0000000000     0.0000000000
 
      Symmetry information
      --------------------
 
 Group name             Cs        
 Group number              2
 Group order               2
 No. of unique centers    11
 
      Symmetry unique atoms
 
     1    2    3    4    5    6    7    8    9   10   11
 
                      Basis "ao basis" -> "ao basis" (spherical)
                      -----
  O (Oxygen)
  ----------
            Exponent  Coefficients 
       -------------- ---------------------------------------------------------
  1 S  1.17200000E+04  0.000710
  1 S  1.75900000E+03  0.005470
  1 S  4.00800000E+02  0.027837
  1 S  1.13700000E+02  0.104800
  1 S  3.70300000E+01  0.283062
  1 S  1.32700000E+01  0.448719
  1 S  5.02500000E+00  0.270952
  1 S  1.01300000E+00  0.015458
 
  2 S  1.17200000E+04 -0.000160
  2 S  1.75900000E+03 -0.001263
  2 S  4.00800000E+02 -0.006267
  2 S  1.13700000E+02 -0.025716
  2 S  3.70300000E+01 -0.070924
  2 S  1.32700000E+01 -0.165411
  2 S  5.02500000E+00 -0.116955
  2 S  1.01300000E+00  0.557368
 
  3 S  3.02300000E-01  1.000000
 
  4 S  7.89600000E-02  1.000000
 
  5 P  1.77000000E+01  0.043018
  5 P  3.85400000E+00  0.228913
  5 P  1.04600000E+00  0.508728
 
  6 P  2.75300000E-01  1.000000
 
  7 P  6.85600000E-02  1.000000
 
  8 D  1.18500000E+00  1.000000
 
  9 D  3.32000000E-01  1.000000
 
  C (Carbon)
  ----------
            Exponent  Coefficients 
       -------------- ---------------------------------------------------------
  1 S  6.66500000E+03  0.000692
  1 S  1.00000000E+03  0.005329
  1 S  2.28000000E+02  0.027077
  1 S  6.47100000E+01  0.101718
  1 S  2.10600000E+01  0.274740
  1 S  7.49500000E+00  0.448564
  1 S  2.79700000E+00  0.285074
  1 S  5.21500000E-01  0.015204
 
  2 S  6.66500000E+03 -0.000146
  2 S  1.00000000E+03 -0.001154
  2 S  2.28000000E+02 -0.005725
  2 S  6.47100000E+01 -0.023312
  2 S  2.10600000E+01 -0.063955
  2 S  7.49500000E+00 -0.149981
  2 S  2.79700000E+00 -0.127262
  2 S  5.21500000E-01  0.544529
 
  3 S  1.59600000E-01  1.000000
 
  4 S  4.69000000E-02  1.000000
 
  5 P  9.43900000E+00  0.038109
  5 P  2.00200000E+00  0.209480
  5 P  5.45600000E-01  0.508557
 
  6 P  1.51700000E-01  1.000000
 
  7 P  4.04100000E-02  1.000000
 
  8 D  5.50000000E-01  1.000000
 
  9 D  1.51000000E-01  1.000000
 
  H (Hydrogen)
  ------------
            Exponent  Coefficients 
       -------------- ---------------------------------------------------------
  1 S  1.30100000E+01  0.019685
  1 S  1.96200000E+00  0.137977
  1 S  4.44600000E-01  0.478148
 
  2 S  1.22000000E-01  1.000000
 
  3 S  2.97400000E-02  1.000000
 
  4 P  7.27000000E-01  1.000000
 
  5 P  1.41000000E-01  1.000000
 


 Summary of "ao basis" -> "ao basis" (spherical)
 ------------------------------------------------------------------------------
       Tag                 Description            Shells   Functions and Types
 ---------------- ------------------------------  ------  ---------------------
 O                        aug-cc-pVDZ                9       23   4s3p2d
 C                        aug-cc-pVDZ                9       23   4s3p2d
 H                        aug-cc-pVDZ                5        9   3s2p


                                 NWChem SCF Module
                                 -----------------
 
 
                                  H,CHO,H Chelate
 
 

  ao basis        = "ao basis"
  functions       =   197
  atoms           =    11
  closed shells   =    26
  open shells     =     0
  charge          =   0.00
  wavefunction    = RHF 
  input vectors   = atomic
  output vectors  = ./8cC.movecs
  use symmetry    = T
  symmetry adapt  = T


 Summary of "ao basis" -> "ao basis" (spherical)
 ------------------------------------------------------------------------------
       Tag                 Description            Shells   Functions and Types
 ---------------- ------------------------------  ------  ---------------------
 O                        aug-cc-pVDZ                9       23   4s3p2d
 C                        aug-cc-pVDZ                9       23   4s3p2d
 H                        aug-cc-pVDZ                5        9   3s2p


      Symmetry analysis of basis
      --------------------------
 
        a'        140
        a"         57
 

int_init: setting std/high accuracies to  1.0D-16  1.0D-32

 Forming initial guess at       0.4s


 Forcing the number of linearly dependent vectors to be  0
 
      Superposition of Atomic Density Guess
      -------------------------------------
 
 Sum of atomic energies:        -376.96587037
 
      Non-variational initial energy
      ------------------------------

 Total energy =    -380.482321
 1-e energy   =   -1065.486821
 2-e energy   =     406.743767
 HOMO         =      -0.325563
 LUMO         =      -0.078962
 
 
      Symmetry analysis of molecular orbitals - initial
      -------------------------------------------------
 
  Numbering of irreducible representations: 
 
     1 a'          2 a"      
 
  Orbital symmetries:
 
     1 a'          2 a'          3 a'          4 a'          5 a'      
     6 a'          7 a'          8 a'          9 a'         10 a'      
    11 a'         12 a'         13 a'         14 a'         15 a'      
    16 a'         17 a'         18 a"         19 a'         20 a"      
    21 a'         22 a"         23 a'         24 a'         25 a'      
    26 a"         27 a"         28 a"         29 a'         30 a'      
    31 a'         32 a'         33 a"         34 a'         35 a'      
    36 a'      
 

 Starting SCF solution at       2.9s



 ----------------------------------------------
         Quadratically convergent ROHF

 Convergence threshold     :          1.000E-09
 Maximum no. of iterations :           99
 Final Fock-matrix accuracy:          1.000E-15
 ----------------------------------------------

 Warning: symmetry breaking in RHF:   7.757779525713416E-014

              iter       energy          gnorm     gmax       time
             ----- ------------------- --------- --------- --------
                 1     -378.2017515920  1.81D+00  3.73D-01      5.8
 Warning: symmetry breaking in RHF:   2.096879745519738E-013
 Warning: symmetry breaking in RHF:   1.510336539936420E-013
                 2     -378.3772828033  5.45D-01  6.96D-02     12.4
 Warning: symmetry breaking in RHF:   1.583331780417581E-013
                 3     -378.4059932029  2.20D-02  6.15D-03     22.3
 Warning: symmetry breaking in RHF:   1.565718858236954E-013
                 4     -378.4061099901  3.24D-04  8.20D-05     36.6
 Warning: symmetry breaking in RHF:   1.566294384170963E-013
                 5     -378.4061100073  4.66D-08  9.24D-09     60.9
 Warning: symmetry breaking in RHF:   1.580590621814957E-013
                 6     -378.4061100073  5.95D-11  1.05D-11     79.4


       Final RHF  results 
       ------------------ 

         Total SCF energy =   -378.406110007271
      One-electron energy =  -1068.768051120339
      Two-electron energy =    412.101208363063
 Nuclear repulsion energy =    278.260732750004

        Time for solution =     76.9s


 
       Symmetry analysis of molecular orbitals - final
       -----------------------------------------------
 
  Numbering of irreducible representations: 
 
     1 a'          2 a"      
 
  Orbital symmetries:
 
     1 a'          2 a'          3 a'          4 a'          5 a'      
     6 a'          7 a'          8 a'          9 a'         10 a'      
    11 a'         12 a'         13 a'         14 a'         15 a'      
    16 a'         17 a'         18 a'         19 a"         20 a'      
    21 a'         22 a"         23 a"         24 a'         25 a'      
    26 a"         27 a'         28 a"         29 a'         30 a'      
    31 a'         32 a"         33 a'         34 a"         35 a'      
    36 a'      
 
             Final eigenvalues
             -----------------

              1      
    1  -20.6449
    2  -20.5907
    3  -20.5716
    4  -11.3865
    5  -11.3771
    6  -11.3585
    7  -11.2641
    8   -1.4656
    9   -1.4052
   10   -1.3839
   11   -1.1164
   12   -0.9490
   13   -0.8838
   14   -0.8510
   15   -0.7511
   16   -0.6972
   17   -0.6695
   18   -0.6665
   19   -0.6288
   20   -0.6230
   21   -0.6069
   22   -0.5613
   23   -0.5343
   24   -0.4661
   25   -0.4447
   26   -0.3850
   27    0.0291
   28    0.0344
   29    0.0429
   30    0.0507
   31    0.0639
   32    0.0756
   33    0.0935
   34    0.0992
   35    0.1020
   36    0.1292
 
                       ROHF Final Molecular Orbital Analysis
                       -------------------------------------
 
 Vector    8  Occ=2.000000D+00  E=-1.465633D+00  Symmetry=a'
              MO Center= -1.2D+00,  1.2D+00, -4.9D-35, r^2= 9.7D-01
   Bfn.  Coefficient  Atom+Function         Bfn.  Coefficient  Atom+Function  
  ----- ------------  ---------------      ----- ------------  ---------------
     3      0.451923   1 O  s                 2      0.393429   1 O  s         
    49     -0.195550   3 C  s                27     -0.190293   2 C  s         
   116      0.163016   6 H  s                25      0.153709   2 C  s         
    26      0.154090   2 C  s                31      0.152154   2 C  px        
 
 Vector    9  Occ=2.000000D+00  E=-1.405189D+00  Symmetry=a'
              MO Center=  7.7D-01,  1.6D+00, -9.5D-35, r^2= 1.1D+00
   Bfn.  Coefficient  Atom+Function         Bfn.  Coefficient  Atom+Function  
  ----- ------------  ---------------      ----- ------------  ---------------
    95      0.446419   5 O  s                94      0.382430   5 O  s         
    72      0.270314   4 C  s                73     -0.271029   4 C  s         
    27      0.213880   2 C  s                71      0.203307   4 C  s         
    54     -0.157033   3 C  px               75      0.155913   4 C  py        
    78     -0.153110   4 C  py                3     -0.151469   1 O  s         
 
 Vector   10  Occ=2.000000D+00  E=-1.383851D+00  Symmetry=a'
              MO Center=  3.0D-02, -2.3D+00,  1.6D-35, r^2= 6.8D-01
   Bfn.  Coefficient  Atom+Function         Bfn.  Coefficient  Atom+Function  
  ----- ------------  ---------------      ----- ------------  ---------------
   168      0.456553  10 O  s               167      0.394158  10 O  s         
   137     -0.274791   8 C  s               136      0.246274   8 C  s         
   135      0.216279   8 C  s                55      0.197728   3 C  py        
    73      0.182531   4 C  s               142      0.170317   8 C  py        
    58     -0.164476   3 C  py               72     -0.161956   4 C  s         
 
 Vector   11  Occ=2.000000D+00  E=-1.116445D+00  Symmetry=a'
              MO Center=  6.3D-02, -1.4D-01, -2.3D-30, r^2= 1.8D+00
   Bfn.  Coefficient  Atom+Function         Bfn.  Coefficient  Atom+Function  
  ----- ------------  ---------------      ----- ------------  ---------------
    48      0.307585   3 C  s                49      0.207779   3 C  s         
    25      0.193450   2 C  s                50     -0.190134   3 C  s         
    26      0.174518   2 C  s         
 
 Vector   12  Occ=2.000000D+00  E=-9.490348D-01  Symmetry=a'
              MO Center= -1.9D-01, -7.7D-02,  7.5D-34, r^2= 3.2D+00
   Bfn.  Coefficient  Atom+Function         Bfn.  Coefficient  Atom+Function  
  ----- ------------  ---------------      ----- ------------  ---------------
    26      0.701725   2 C  s                72     -0.433231   4 C  s         
    27     -0.371074   2 C  s                31      0.353709   2 C  px        
    54      0.336251   3 C  px              137      0.310290   8 C  s         
    25      0.282007   2 C  s                69     -0.226571   3 C  d  2      
    77      0.222310   4 C  px               51     -0.214863   3 C  px        
 
 Vector   13  Occ=2.000000D+00  E=-8.837807D-01  Symmetry=a'
              MO Center=  8.2D-01, -5.9D-01,  5.5D-35, r^2= 3.2D+00
   Bfn.  Coefficient  Atom+Function         Bfn.  Coefficient  Atom+Function  
  ----- ------------  ---------------      ----- ------------  ---------------
   137      0.386803   8 C  s                73     -0.291288   4 C  s         
   190     -0.283506  11 H  s                58      0.272611   3 C  py        
   135     -0.261276   8 C  s                71      0.230442   4 C  s         
   189     -0.228792  11 H  s                52      0.207646   3 C  py        
    72      0.207131   4 C  s               168      0.201766  10 O  s         
 
 Vector   14  Occ=2.000000D+00  E=-8.509716D-01  Symmetry=a'
              MO Center= -3.4D-01,  6.9D-01, -5.9D-17, r^2= 3.4D+00
   Bfn.  Coefficient  Atom+Function         Bfn.  Coefficient  Atom+Function  
  ----- ------------  ---------------      ----- ------------  ---------------
     6      0.268440   1 O  py               28      0.261888   2 C  px        
   116      0.228931   6 H  s                26      0.191314   2 C  s         
     5      0.173821   1 O  px               72     -0.167820   4 C  s         
   157     -0.168299   9 H  s                31      0.161055   2 C  px        
 
 Vector   15  Occ=2.000000D+00  E=-7.511224D-01  Symmetry=a'
              MO Center=  2.7D-02, -3.5D-01,  1.7D-16, r^2= 4.1D+00
   Bfn.  Coefficient  Atom+Function         Bfn.  Coefficient  Atom+Function  
  ----- ------------  ---------------      ----- ------------  ---------------
   137      0.403295   8 C  s                72     -0.315569   4 C  s         
   136      0.281086   8 C  s                65      0.277163   3 C  d -2      
    58      0.238255   3 C  py              190     -0.237653  11 H  s         
   138     -0.222567   8 C  px               27     -0.217701   2 C  s         
    52     -0.214649   3 C  py              189     -0.215271  11 H  s         
 
 Vector   16  Occ=2.000000D+00  E=-6.971892D-01  Symmetry=a'
              MO Center=  2.3D-01,  4.2D-01, -2.4D-16, r^2= 3.7D+00
   Bfn.  Coefficient  Atom+Function         Bfn.  Coefficient  Atom+Function  
  ----- ------------  ---------------      ----- ------------  ---------------
    51      0.240010   3 C  px               74     -0.229178   4 C  px        
     6     -0.197167   1 O  py               49      0.192405   3 C  s         
     5     -0.191375   1 O  px              157     -0.177297   9 H  s         
    75     -0.164153   4 C  py              116     -0.163027   6 H  s         
    97     -0.159193   5 O  px              139      0.159551   8 C  py        
 
 Vector   17  Occ=2.000000D+00  E=-6.695430D-01  Symmetry=a'
              MO Center=  3.4D-01,  3.3D-02, -1.4D-30, r^2= 5.5D+00
   Bfn.  Coefficient  Atom+Function         Bfn.  Coefficient  Atom+Function  
  ----- ------------  ---------------      ----- ------------  ---------------
    98      0.330240   5 O  py               75     -0.249694   4 C  py        
   171     -0.249395  10 O  py              138      0.215478   8 C  px        
    95      0.181827   5 O  s                26     -0.178359   2 C  s         
   101      0.173358   5 O  py              168      0.167308  10 O  s         
 
 Vector   18  Occ=2.000000D+00  E=-6.665410D-01  Symmetry=a'
              MO Center= -3.7D-01,  6.0D-01, -8.1D-31, r^2= 4.1D+00
   Bfn.  Coefficient  Atom+Function         Bfn.  Coefficient  Atom+Function  
  ----- ------------  ---------------      ----- ------------  ---------------
   126     -0.298682   7 H  s                27      0.281466   2 C  s         
    29      0.280143   2 C  py               73     -0.281165   4 C  s         
    54     -0.230513   3 C  px                6     -0.227389   1 O  py        
    98      0.227537   5 O  py                5      0.221094   1 O  px        
    74      0.220370   4 C  px              125     -0.220940   7 H  s         
 
 Vector   19  Occ=2.000000D+00  E=-6.288097D-01  Symmetry=a"
              MO Center= -8.9D-01,  8.4D-01,  4.6D-16, r^2= 2.3D+00
   Bfn.  Coefficient  Atom+Function         Bfn.  Coefficient  Atom+Function  
  ----- ------------  ---------------      ----- ------------  ---------------
     7      0.455054   1 O  pz               10      0.339157   1 O  pz        
    30      0.232998   2 C  pz               53      0.169594   3 C  pz        
    99      0.150826   5 O  pz        
 
 Vector   20  Occ=2.000000D+00  E=-6.230330D-01  Symmetry=a'
              MO Center= -5.7D-02, -1.0D+00, -3.6D-16, r^2= 4.4D+00
   Bfn.  Coefficient  Atom+Function         Bfn.  Coefficient  Atom+Function  
  ----- ------------  ---------------      ----- ------------  ---------------
   171      0.280337  10 O  py              170      0.261657  10 O  px        
   139     -0.224160   8 C  py               55      0.216933   3 C  py        
   136      0.205544   8 C  s               168     -0.203165  10 O  s         
    97     -0.201185   5 O  px              138     -0.201811   8 C  px        
    75     -0.197401   4 C  py              137      0.188306   8 C  s         
 
 Vector   21  Occ=2.000000D+00  E=-6.068994D-01  Symmetry=a'
              MO Center= -7.0D-01,  4.5D-01, -1.2D-15, r^2= 3.9D+00
   Bfn.  Coefficient  Atom+Function         Bfn.  Coefficient  Atom+Function  
  ----- ------------  ---------------      ----- ------------  ---------------
     5      0.378128   1 O  px                8      0.244787   1 O  px        
    28     -0.234957   2 C  px              170     -0.210074  10 O  px        
    73     -0.203972   4 C  s                50      0.201626   3 C  s         
    98     -0.196240   5 O  py                3     -0.191772   1 O  s         
   139      0.189550   8 C  py              116      0.169569   6 H  s         
 
 Vector   22  Occ=2.000000D+00  E=-5.613403D-01  Symmetry=a"
              MO Center=  2.1D-01,  9.0D-01, -5.3D-16, r^2= 3.7D+00
   Bfn.  Coefficient  Atom+Function         Bfn.  Coefficient  Atom+Function  
  ----- ------------  ---------------      ----- ------------  ---------------
    99      0.359299   5 O  pz                7     -0.314805   1 O  pz        
   102      0.269466   5 O  pz               76      0.251589   4 C  pz        
    10     -0.237139   1 O  pz              172      0.161111  10 O  pz        
 
 Vector   23  Occ=2.000000D+00  E=-5.342807D-01  Symmetry=a"
              MO Center=  3.0D-01, -1.2D+00,  1.3D-15, r^2= 4.2D+00
   Bfn.  Coefficient  Atom+Function         Bfn.  Coefficient  Atom+Function  
  ----- ------------  ---------------      ----- ------------  ---------------
   172      0.406144  10 O  pz              175      0.305777  10 O  pz        
   140      0.282148   8 C  pz               99     -0.265720   5 O  pz        
   102     -0.205291   5 O  pz        
 
 Vector   24  Occ=2.000000D+00  E=-4.660841D-01  Symmetry=a'
              MO Center=  4.8D-01,  3.3D-01, -1.3D-16, r^2= 5.0D+00
   Bfn.  Coefficient  Atom+Function         Bfn.  Coefficient  Atom+Function  
  ----- ------------  ---------------      ----- ------------  ---------------
    97      0.418217   5 O  px              100      0.336164   5 O  px        
   170      0.244753  10 O  px               77     -0.239920   4 C  px        
    26     -0.217270   2 C  s               157     -0.189029   9 H  s         
     5      0.185339   1 O  px              171     -0.184009  10 O  py        
    51      0.180375   3 C  px              173      0.172404  10 O  px        
 
 Vector   25  Occ=2.000000D+00  E=-4.446780D-01  Symmetry=a'
              MO Center=  3.0D-01, -1.1D+00,  2.2D-16, r^2= 4.6D+00
   Bfn.  Coefficient  Atom+Function         Bfn.  Coefficient  Atom+Function  
  ----- ------------  ---------------      ----- ------------  ---------------
   137      0.396941   8 C  s                72     -0.350059   4 C  s         
   171     -0.348072  10 O  py              170      0.327509  10 O  px        
   136      0.291915   8 C  s                58      0.283078   3 C  py        
   142      0.282246   8 C  py               97     -0.280210   5 O  px        
   174     -0.274398  10 O  py              173      0.249440  10 O  px        
 
 Vector   26  Occ=2.000000D+00  E=-3.850074D-01  Symmetry=a"
              MO Center= -8.2D-02, -1.2D-01,  9.1D-16, r^2= 3.2D+00
   Bfn.  Coefficient  Atom+Function         Bfn.  Coefficient  Atom+Function  
  ----- ------------  ---------------      ----- ------------  ---------------
    53      0.391406   3 C  pz               56      0.328766   3 C  pz        
   172     -0.250125  10 O  pz               99     -0.226172   5 O  pz        
     7     -0.221060   1 O  pz               30      0.207466   2 C  pz        
   175     -0.193384  10 O  pz               10     -0.179980   1 O  pz        
   102     -0.177606   5 O  pz        
 
 Vector   27  Occ=0.000000D+00  E= 2.907881D-02  Symmetry=a'
              MO Center=  3.3D+00, -7.9D-01, -3.2D-17, r^2= 1.4D+01
   Bfn.  Coefficient  Atom+Function         Bfn.  Coefficient  Atom+Function  
  ----- ------------  ---------------      ----- ------------  ---------------
    27      4.149203   2 C  s               137      3.332887   8 C  s         
    50     -3.002012   3 C  s               159     -2.806628   9 H  s         
   191     -2.045847  11 H  s                80      1.510421   4 C  px        
    34      1.195704   2 C  px               73      1.172378   4 C  s         
   190     -0.829037  11 H  s                58      0.769645   3 C  py        
 
 Vector   28  Occ=0.000000D+00  E= 3.436144D-02  Symmetry=a"
              MO Center=  1.2D-01, -1.1D-01, -4.3D-15, r^2= 5.6D+00
   Bfn.  Coefficient  Atom+Function         Bfn.  Coefficient  Atom+Function  
  ----- ------------  ---------------      ----- ------------  ---------------
    82     -0.539648   4 C  pz               36      0.500904   2 C  pz        
   146     -0.391248   8 C  pz               33      0.353973   2 C  pz        
    30      0.347803   2 C  pz              105      0.260455   5 O  pz        
    13     -0.247808   1 O  pz               79     -0.213458   4 C  pz        
    76     -0.193861   4 C  pz                7     -0.189660   1 O  pz        
 
 Vector   29  Occ=0.000000D+00  E= 4.287803D-02  Symmetry=a'
              MO Center= -2.5D+00, -5.4D-01,  2.7D-16, r^2= 1.9D+01
   Bfn.  Coefficient  Atom+Function         Bfn.  Coefficient  Atom+Function  
  ----- ------------  ---------------      ----- ------------  ---------------
   137      9.360951   8 C  s                27     -6.453877   2 C  s         
   127     -5.547508   7 H  s                58      5.039709   3 C  py        
    57     -4.743624   3 C  px               34     -4.149024   2 C  px        
    73      2.892721   4 C  s               191      2.157676  11 H  s         
   145      2.030041   8 C  py               35     -1.703032   2 C  py        
 
 Vector   30  Occ=0.000000D+00  E= 5.073240D-02  Symmetry=a'
              MO Center=  2.8D+00, -8.6D-01, -6.4D-18, r^2= 2.4D+01
   Bfn.  Coefficient  Atom+Function         Bfn.  Coefficient  Atom+Function  
  ----- ------------  ---------------      ----- ------------  ---------------
    58      9.805962   3 C  py               73     -9.820962   4 C  s         
   137      8.122559   8 C  s               191      7.811427  11 H  s         
   159     -7.327193   9 H  s                80      5.152449   4 C  px        
   144     -4.000941   8 C  px              145      3.304511   8 C  py        
    57      2.928549   3 C  px               27      2.176768   2 C  s         
 
 Vector   31  Occ=0.000000D+00  E= 6.385792D-02  Symmetry=a'
              MO Center= -9.1D-01,  2.1D+00,  1.9D-17, r^2= 2.5D+01
   Bfn.  Coefficient  Atom+Function         Bfn.  Coefficient  Atom+Function  
  ----- ------------  ---------------      ----- ------------  ---------------
   137     11.925120   8 C  s                58     11.675109   3 C  py        
    73    -10.243189   4 C  s                27     -7.799941   2 C  s         
    50      5.019816   3 C  s               191      5.013493  11 H  s         
   118      4.895767   6 H  s               159     -4.853112   9 H  s         
    80      4.478118   4 C  px              127     -4.380112   7 H  s         
 
 Vector   32  Occ=0.000000D+00  E= 7.560852D-02  Symmetry=a"
              MO Center=  3.3D-01, -4.2D-01,  3.3D-15, r^2= 1.6D+01
   Bfn.  Coefficient  Atom+Function         Bfn.  Coefficient  Atom+Function  
  ----- ------------  ---------------      ----- ------------  ---------------
    59      3.437391   3 C  pz               36     -2.123367   2 C  pz        
    82     -1.881965   4 C  pz              146     -1.750452   8 C  pz        
    13      0.482035   1 O  pz              105      0.395719   5 O  pz        
   178      0.396857  10 O  pz        
 
 Vector   33  Occ=0.000000D+00  E= 9.352768D-02  Symmetry=a'
              MO Center= -4.4D-01, -2.7D-01, -5.3D-16, r^2= 2.3D+01
   Bfn.  Coefficient  Atom+Function         Bfn.  Coefficient  Atom+Function  
  ----- ------------  ---------------      ----- ------------  ---------------
    27     35.053975   2 C  s                57     19.939017   3 C  px        
    73    -14.290237   4 C  s                50    -13.187453   3 C  s         
    34      8.515408   2 C  px              137     -7.051454   8 C  s         
    81      4.387481   4 C  py              127      3.580341   7 H  s         
     4     -3.131353   1 O  s               144     -2.726563   8 C  px        
 
 Vector   34  Occ=0.000000D+00  E= 9.924861D-02  Symmetry=a"
              MO Center=  1.0D+00, -6.0D-01,  3.2D-16, r^2= 6.8D+00
   Bfn.  Coefficient  Atom+Function         Bfn.  Coefficient  Atom+Function  
  ----- ------------  ---------------      ----- ------------  ---------------
    82      1.162027   4 C  pz              146     -1.050442   8 C  pz        
   178      0.528202  10 O  pz              105     -0.506956   5 O  pz        
    36      0.371098   2 C  pz               59     -0.344685   3 C  pz        
    79      0.345868   4 C  pz              143     -0.331801   8 C  pz        
   140     -0.288242   8 C  pz               76      0.272804   4 C  pz        
 
 Vector   35  Occ=0.000000D+00  E= 1.020367D-01  Symmetry=a'
              MO Center=  6.8D-01, -2.7D-01, -4.2D-16, r^2= 2.0D+01
   Bfn.  Coefficient  Atom+Function         Bfn.  Coefficient  Atom+Function  
  ----- ------------  ---------------      ----- ------------  ---------------
    50     25.834627   3 C  s                73    -16.695130   4 C  s         
   137    -13.738141   8 C  s                57      8.722098   3 C  px        
   145     -4.886976   8 C  py               81      4.323400   4 C  py        
    27      3.833430   2 C  s                80      3.747882   4 C  px        
    96      2.040016   5 O  s               159     -1.565789   9 H  s         
 
 Vector   36  Occ=0.000000D+00  E= 1.292282D-01  Symmetry=a'
              MO Center=  9.5D-01, -3.3D-01,  4.9D-17, r^2= 2.5D+01
   Bfn.  Coefficient  Atom+Function         Bfn.  Coefficient  Atom+Function  
  ----- ------------  ---------------      ----- ------------  ---------------
   137     28.008971   8 C  s                73    -27.262405   4 C  s         
    58     25.665631   3 C  py              159     -8.756614   9 H  s         
   191      8.550667  11 H  s               145      8.308615   8 C  py        
    80      8.187588   4 C  px               35     -5.606060   2 C  py        
    81      5.305918   4 C  py               57      4.537364   3 C  px        
 
 Vector   37  Occ=0.000000D+00  E= 1.327699D-01  Symmetry=a"
              MO Center= -4.2D-01,  6.4D-02, -2.9D-17, r^2= 1.4D+01
   Bfn.  Coefficient  Atom+Function         Bfn.  Coefficient  Atom+Function  
  ----- ------------  ---------------      ----- ------------  ---------------
    36      1.924200   2 C  pz               82     -1.291929   4 C  pz        
    13     -0.366505   1 O  pz              146     -0.315046   8 C  pz        
    33     -0.291198   2 C  pz              105      0.253024   5 O  pz        
    30     -0.228095   2 C  pz              133     -0.224312   7 H  pz        
 
 Vector   38  Occ=0.000000D+00  E= 1.356327D-01  Symmetry=a"
              MO Center=  9.1D-01, -6.6D-01, -1.2D-17, r^2= 1.4D+01
   Bfn.  Coefficient  Atom+Function         Bfn.  Coefficient  Atom+Function  
  ----- ------------  ---------------      ----- ------------  ---------------
   146      1.823862   8 C  pz               82     -1.329939   4 C  pz        
    36     -0.430926   2 C  pz               79      0.364794   4 C  pz        
   143     -0.352612   8 C  pz              178     -0.331548  10 O  pz        
   105      0.223144   5 O  pz              140     -0.215273   8 C  pz        
    76      0.200107   4 C  pz              197     -0.200866  11 H  pz        
 
 Vector   39  Occ=0.000000D+00  E= 1.365117D-01  Symmetry=a'
              MO Center=  2.0D-01, -3.0D-01,  3.2D-17, r^2= 2.2D+01
   Bfn.  Coefficient  Atom+Function         Bfn.  Coefficient  Atom+Function  
  ----- ------------  ---------------      ----- ------------  ---------------
    27     16.281935   2 C  s                73    -10.388883   4 C  s         
    57      9.595635   3 C  px               34      7.594872   2 C  px        
   137     -7.270609   8 C  s                50     -6.116206   3 C  s         
   127      5.363706   7 H  s                96      3.560110   5 O  s         
   118      3.330128   6 H  s                80      3.096122   4 C  px        
 
 Vector   40  Occ=0.000000D+00  E= 1.462647D-01  Symmetry=a'
              MO Center=  1.7D+00, -1.6D-01,  3.1D-16, r^2= 2.0D+01
   Bfn.  Coefficient  Atom+Function         Bfn.  Coefficient  Atom+Function  
  ----- ------------  ---------------      ----- ------------  ---------------
    27     15.292881   2 C  s                 4     -5.340012   1 O  s         
    57      4.882826   3 C  px               80      4.684990   4 C  px        
   159     -4.539147   9 H  s                35      3.684784   2 C  py        
    34      2.934930   2 C  px              191     -2.533806  11 H  s         
   145     -2.508712   8 C  py              158     -2.186980   9 H  s         
 
 Vector   41  Occ=0.000000D+00  E= 1.560434D-01  Symmetry=a'
              MO Center=  1.8D+00, -9.9D-01, -1.5D-17, r^2= 2.1D+01
   Bfn.  Coefficient  Atom+Function         Bfn.  Coefficient  Atom+Function  
  ----- ------------  ---------------      ----- ------------  ---------------
    58     35.264668   3 C  py               73    -35.394734   4 C  s         
   137     33.579531   8 C  s                80     12.325128   4 C  px        
   144    -11.247878   8 C  px              191     10.776925  11 H  s         
   159     -9.162665   9 H  s                57      6.429532   3 C  px        
    35     -6.353341   2 C  py              145      6.001041   8 C  py        
 
 Vector   42  Occ=0.000000D+00  E= 1.616235D-01  Symmetry=a'
              MO Center= -1.3D+00, -1.1D+00, -7.8D-16, r^2= 1.8D+01
   Bfn.  Coefficient  Atom+Function         Bfn.  Coefficient  Atom+Function  
  ----- ------------  ---------------      ----- ------------  ---------------
    27     26.660764   2 C  s               137    -23.463961   8 C  s         
    57     19.802874   3 C  px               73    -11.901111   4 C  s         
    58    -11.325741   3 C  py               35      6.817815   2 C  py        
   127      6.505375   7 H  s                34      5.788922   2 C  px        
     4     -5.583535   1 O  s                81      4.477738   4 C  py        
 
 Vector   43  Occ=0.000000D+00  E= 1.684677D-01  Symmetry=a'
              MO Center= -7.0D-01, -3.4D-01,  8.3D-16, r^2= 1.8D+01
   Bfn.  Coefficient  Atom+Function         Bfn.  Coefficient  Atom+Function  
  ----- ------------  ---------------      ----- ------------  ---------------
    27     21.149322   2 C  s                57     18.500561   3 C  px        
    73    -10.282075   4 C  s               137     -5.948859   8 C  s         
   127     -4.754418   7 H  s                80     -4.316290   4 C  px        
    54     -4.112317   3 C  px               34     -3.863859   2 C  px        
   144     -3.798977   8 C  px              126     -3.741357   7 H  s         
 
 Vector   44  Occ=0.000000D+00  E= 1.778982D-01  Symmetry=a'
              MO Center=  9.9D-01, -6.7D-01, -9.4D-17, r^2= 1.9D+01
   Bfn.  Coefficient  Atom+Function         Bfn.  Coefficient  Atom+Function  
  ----- ------------  ---------------      ----- ------------  ---------------
    58     17.715886   3 C  py               73    -14.548847   4 C  s         
   137     13.856979   8 C  s                35     -5.330705   2 C  py        
   191     -5.015634  11 H  s               145     -4.229377   8 C  py        
   159      4.148747   9 H  s                81     -3.642644   4 C  py        
    57      3.354871   3 C  px               27      2.576850   2 C  s         
 
 Vector   45  Occ=0.000000D+00  E= 1.877222D-01  Symmetry=a"
              MO Center=  1.6D-01, -2.2D-01, -2.7D-17, r^2= 1.4D+01
   Bfn.  Coefficient  Atom+Function         Bfn.  Coefficient  Atom+Function  
  ----- ------------  ---------------      ----- ------------  ---------------
    59      7.599109   3 C  pz               36     -2.973998   2 C  pz        
    82     -2.670924   4 C  pz              146     -2.468761   8 C  pz        
    33     -0.203708   2 C  pz              105      0.197451   5 O  pz        
   143     -0.186705   8 C  pz              178      0.160303  10 O  pz        
    79     -0.155078   4 C  pz        
 
 Vector   46  Occ=0.000000D+00  E= 2.184970D-01  Symmetry=a'
              MO Center= -8.8D-01,  2.0D+00, -2.9D-16, r^2= 1.3D+01
   Bfn.  Coefficient  Atom+Function         Bfn.  Coefficient  Atom+Function  
  ----- ------------  ---------------      ----- ------------  ---------------
    27     22.820905   2 C  s                50    -22.533926   3 C  s         
    73     15.342209   4 C  s                58    -13.996139   3 C  py        
   137    -12.374906   8 C  s                80     -5.343897   4 C  px        
    57      4.812064   3 C  px               34      4.572525   2 C  px        
   118     -4.079271   6 H  s                35      3.294700   2 C  py        
 
 Vector   47  Occ=0.000000D+00  E= 2.282067D-01  Symmetry=a"
              MO Center= -5.4D-03,  4.4D-01,  1.5D-17, r^2= 9.6D+00
   Bfn.  Coefficient  Atom+Function         Bfn.  Coefficient  Atom+Function  
  ----- ------------  ---------------      ----- ------------  ---------------
   105      1.084198   5 O  pz               13      0.972460   1 O  pz        
    36     -0.918406   2 C  pz              146      0.696200   8 C  pz        
    82     -0.646976   4 C  pz               33     -0.516783   2 C  pz        
   165     -0.395465   9 H  pz              197     -0.357890  11 H  pz        
    56      0.290192   3 C  pz              133     -0.270517   7 H  pz        
 
 Vector   48  Occ=0.000000D+00  E= 2.470697D-01  Symmetry=a'
              MO Center=  2.6D-01, -3.8D-01, -8.4D-17, r^2= 1.9D+01
   Bfn.  Coefficient  Atom+Function         Bfn.  Coefficient  Atom+Function  
  ----- ------------  ---------------      ----- ------------  ---------------
   137    -40.407297   8 C  s                73     39.795003   4 C  s         
    58    -23.359357   3 C  py               27    -19.166366   2 C  s         
    50     18.529043   3 C  s                57    -10.927770   3 C  px        
   145     -8.786086   8 C  py               80     -7.351901   4 C  px        
   144      6.255863   8 C  px               81     -5.742618   4 C  py        
 
 Vector   49  Occ=0.000000D+00  E= 2.527506D-01  Symmetry=a'
              MO Center= -3.3D-01,  5.3D-01, -3.3D-16, r^2= 1.5D+01
   Bfn.  Coefficient  Atom+Function         Bfn.  Coefficient  Atom+Function  
  ----- ------------  ---------------      ----- ------------  ---------------
    27     24.144011   2 C  s               137    -23.597649   8 C  s         
    58    -12.839188   3 C  py               57     11.140533   3 C  px        
   145     -5.061267   8 C  py               34      4.499183   2 C  px        
    50     -4.140793   3 C  s               126     -3.310714   7 H  s         
    80     -2.888176   4 C  px               35      2.466494   2 C  py        
 
 Vector   50  Occ=0.000000D+00  E= 2.546433D-01  Symmetry=a"
              MO Center= -1.2D+00,  1.5D-01, -1.2D-17, r^2= 1.2D+01
   Bfn.  Coefficient  Atom+Function         Bfn.  Coefficient  Atom+Function  
  ----- ------------  ---------------      ----- ------------  ---------------
    13      2.118975   1 O  pz               36     -1.897046   2 C  pz        
    59      1.536977   3 C  pz               82     -1.043276   4 C  pz        
   178     -1.043670  10 O  pz              146      0.616609   8 C  pz        
    68     -0.519920   3 C  d  1             56     -0.406990   3 C  pz        
   124     -0.389385   6 H  pz              197      0.377702  11 H  pz        
 
 Vector   51  Occ=0.000000D+00  E= 2.564068D-01  Symmetry=a'
              MO Center= -1.6D-01,  6.5D-01, -3.2D-16, r^2= 1.7D+01
   Bfn.  Coefficient  Atom+Function         Bfn.  Coefficient  Atom+Function  
  ----- ------------  ---------------      ----- ------------  ---------------
    73     45.945540   4 C  s                27    -35.634469   2 C  s         
    50    -26.320910   3 C  s                57    -24.007090   3 C  px        
   137     18.052793   8 C  s                80     -7.463066   4 C  px        
    81     -7.413563   4 C  py               34     -6.978868   2 C  px        
    96     -6.589938   5 O  s               145      4.514291   8 C  py        
 
 Vector   52  Occ=0.000000D+00  E= 2.714220D-01  Symmetry=a'
              MO Center= -1.3D-01, -1.0D+00,  1.9D-17, r^2= 1.6D+01
   Bfn.  Coefficient  Atom+Function         Bfn.  Coefficient  Atom+Function  
  ----- ------------  ---------------      ----- ------------  ---------------
    27     46.112960   2 C  s                50    -38.603967   3 C  s         
   137    -18.587909   8 C  s                57     16.739325   3 C  px        
    58    -14.721898   3 C  py               34     11.621427   2 C  px        
    73      6.963315   4 C  s                 4     -4.914717   1 O  s         
    80     -4.746270   4 C  px              127      4.510952   7 H  s         
 
 Vector   53  Occ=0.000000D+00  E= 2.827664D-01  Symmetry=a"
              MO Center=  5.7D-01,  7.5D-02, -1.4D-17, r^2= 1.2D+01
   Bfn.  Coefficient  Atom+Function         Bfn.  Coefficient  Atom+Function  
  ----- ------------  ---------------      ----- ------------  ---------------
    59      2.575799   3 C  pz               82     -1.869456   4 C  pz        
   105      1.663475   5 O  pz               36     -1.456012   2 C  pz        
   146     -1.283533   8 C  pz              178      1.162381  10 O  pz        
    68      0.459617   3 C  d  1             13      0.412152   1 O  pz        
    89     -0.393523   4 C  d -1             56     -0.368321   3 C  pz        
 
 Vector   54  Occ=0.000000D+00  E= 2.898181D-01  Symmetry=a'
              MO Center= -2.3D-01,  6.9D-02, -8.4D-17, r^2= 1.5D+01
   Bfn.  Coefficient  Atom+Function         Bfn.  Coefficient  Atom+Function  
  ----- ------------  ---------------      ----- ------------  ---------------
    73     43.801479   4 C  s               137    -42.353822   8 C  s         
    58    -31.053341   3 C  py               80    -10.504711   4 C  px        
   144      7.929299   8 C  px              145     -7.339859   8 C  py        
    57     -7.166029   3 C  px               27      6.758372   2 C  s         
    50     -6.569746   3 C  s               191     -6.451525  11 H  s         
 
 Vector   55  Occ=0.000000D+00  E= 3.152965D-01  Symmetry=a'
              MO Center=  7.1D-01,  5.9D-02, -1.1D-16, r^2= 1.3D+01
   Bfn.  Coefficient  Atom+Function         Bfn.  Coefficient  Atom+Function  
  ----- ------------  ---------------      ----- ------------  ---------------
    27     21.543242   2 C  s               137    -17.221815   8 C  s         
    58    -15.039261   3 C  py               50    -10.058839   3 C  s         
    57      8.799891   3 C  px               73      5.288448   4 C  s         
   158     -3.780381   9 H  s                96      3.192795   5 O  s         
    35      2.446738   2 C  py               34      2.413901   2 C  px        
 
 Vector   56  Occ=0.000000D+00  E= 3.185856D-01  Symmetry=a"
              MO Center= -1.9D-01, -2.6D-01,  5.5D-18, r^2= 1.6D+01
   Bfn.  Coefficient  Atom+Function         Bfn.  Coefficient  Atom+Function  
  ----- ------------  ---------------      ----- ------------  ---------------
   178     -2.018958  10 O  pz              146      1.949305   8 C  pz        
   105      1.837120   5 O  pz               36      1.736558   2 C  pz        
    13     -1.483199   1 O  pz               82     -1.484511   4 C  pz        
    59     -1.253224   3 C  pz              155      0.320053   8 C  d  1      
    89     -0.308208   4 C  d -1             33      0.277194   2 C  pz        
 
 Vector   57  Occ=0.000000D+00  E= 3.187927D-01  Symmetry=a'
              MO Center=  1.0D-01, -7.8D-02, -1.6D-16, r^2= 1.4D+01
   Bfn.  Coefficient  Atom+Function         Bfn.  Coefficient  Atom+Function  
  ----- ------------  ---------------      ----- ------------  ---------------
   137     24.551068   8 C  s                58     24.292662   3 C  py        
    73    -24.007282   4 C  s                27     19.563753   2 C  s         
    50    -14.169698   3 C  s                57     11.689711   3 C  px        
   144     -8.881269   8 C  px               80      7.170919   4 C  px        
   191      6.793696  11 H  s               159     -6.142402   9 H  s         
 
 Vector   58  Occ=0.000000D+00  E= 3.245784D-01  Symmetry=a'
              MO Center=  7.1D-01,  3.4D-01,  5.5D-17, r^2= 1.4D+01
   Bfn.  Coefficient  Atom+Function         Bfn.  Coefficient  Atom+Function  
  ----- ------------  ---------------      ----- ------------  ---------------
    73     15.463914   4 C  s                58    -12.207029   3 C  py        
   137     -6.892672   8 C  s                27     -4.333934   2 C  s         
    34     -3.589999   2 C  px               81      2.933960   4 C  py        
     4      2.720419   1 O  s               117     -2.590896   6 H  s         
    35      2.512240   2 C  py              104     -2.386063   5 O  py        
 
 Vector   59  Occ=0.000000D+00  E= 3.427335D-01  Symmetry=a'
              MO Center= -8.6D-01,  3.8D-01,  2.9D-15, r^2= 1.4D+01
   Bfn.  Coefficient  Atom+Function         Bfn.  Coefficient  Atom+Function  
  ----- ------------  ---------------      ----- ------------  ---------------
   137     26.945287   8 C  s                58     21.047430   3 C  py        
    73    -19.006470   4 C  s                27     -9.823775   2 C  s         
    80      8.212164   4 C  px               35     -7.611609   2 C  py        
   145      7.545535   8 C  py              159     -5.727612   9 H  s         
   191      5.587161  11 H  s                57     -4.123021   3 C  px        
 
 Vector   60  Occ=0.000000D+00  E= 3.452365D-01  Symmetry=a'
              MO Center= -2.3D-01, -6.0D-01,  7.6D-15, r^2= 1.7D+01
   Bfn.  Coefficient  Atom+Function         Bfn.  Coefficient  Atom+Function  
  ----- ------------  ---------------      ----- ------------  ---------------
    27     18.973799   2 C  s                73    -11.886529   4 C  s         
    57      9.961894   3 C  px              137     -9.533858   8 C  s         
    34      8.286030   2 C  px               80      5.553532   4 C  px        
   127      5.390346   7 H  s                 4     -5.124168   1 O  s         
   145     -5.032592   8 C  py               26      4.380332   2 C  s         
 
 Vector   61  Occ=0.000000D+00  E= 3.737523D-01  Symmetry=a'
              MO Center=  1.0D+00, -9.8D-01,  5.9D-15, r^2= 1.0D+01
   Bfn.  Coefficient  Atom+Function         Bfn.  Coefficient  Atom+Function  
  ----- ------------  ---------------      ----- ------------  ---------------
    73     20.261773   4 C  s               137     16.537527   8 C  s         
    50    -16.248276   3 C  s                57    -13.952682   3 C  px        
    27    -12.422751   2 C  s                81     -4.966216   4 C  py        
    58      4.727922   3 C  py               96     -4.345251   5 O  s         
   144      4.180235   8 C  px               26      4.083830   2 C  s         
 
 Vector   62  Occ=0.000000D+00  E= 3.823781D-01  Symmetry=a'
              MO Center= -1.1D-01, -1.1D-01,  4.2D-16, r^2= 1.2D+01
   Bfn.  Coefficient  Atom+Function         Bfn.  Coefficient  Atom+Function  
  ----- ------------  ---------------      ----- ------------  ---------------
   137    -18.912082   8 C  s                27     17.893803   2 C  s         
    57     11.784052   3 C  px               58     -9.558281   3 C  py        
    80     -7.490278   4 C  px               54     -6.681325   3 C  px        
    26     -6.483972   2 C  s               126     -6.074336   7 H  s         
    31     -5.431123   2 C  px              169      5.196294  10 O  s         
 
 Vector   63  Occ=0.000000D+00  E= 3.873565D-01  Symmetry=a'
              MO Center=  5.3D-01, -4.4D-01,  1.9D-18, r^2= 1.7D+01
   Bfn.  Coefficient  Atom+Function         Bfn.  Coefficient  Atom+Function  
  ----- ------------  ---------------      ----- ------------  ---------------
    58     24.879104   3 C  py              137     23.285431   8 C  s         
    27    -20.108697   2 C  s                73    -12.687945   4 C  s         
    81     -8.086247   4 C  py                4      7.886070   1 O  s         
   144     -7.213519   8 C  px               34     -6.152691   2 C  px        
    35     -5.589710   2 C  py               50      4.117475   3 C  s         
 
 Vector   64  Occ=0.000000D+00  E= 4.024646D-01  Symmetry=a"
              MO Center=  2.3D-01, -5.2D-01, -2.6D-15, r^2= 8.3D+00
   Bfn.  Coefficient  Atom+Function         Bfn.  Coefficient  Atom+Function  
  ----- ------------  ---------------      ----- ------------  ---------------
    82      1.369494   4 C  pz               36      1.280657   2 C  pz        
    59     -1.252389   3 C  pz              133     -0.928137   7 H  pz        
   105     -0.812049   5 O  pz              146     -0.740760   8 C  pz        
   165     -0.727299   9 H  pz               13     -0.721316   1 O  pz        
    33      0.696597   2 C  pz              178      0.683490  10 O  pz        
 
 Vector   65  Occ=0.000000D+00  E= 4.076954D-01  Symmetry=a"
              MO Center=  1.6D+00, -4.7D-01, -1.0D-14, r^2= 7.2D+00
   Bfn.  Coefficient  Atom+Function         Bfn.  Coefficient  Atom+Function  
  ----- ------------  ---------------      ----- ------------  ---------------
   165      1.552153   9 H  pz              197      1.495982  11 H  pz        
   143     -1.178630   8 C  pz               79     -1.164906   4 C  pz        
   146     -1.027411   8 C  pz               82     -0.868491   4 C  pz        
    33      0.723751   2 C  pz               59      0.727140   3 C  pz        
    68     -0.723759   3 C  d  1             36      0.717962   2 C  pz        
 
 Vector   66  Occ=0.000000D+00  E= 4.106852D-01  Symmetry=a'
              MO Center=  5.7D-01, -2.9D-01, -7.8D-16, r^2= 1.3D+01
   Bfn.  Coefficient  Atom+Function         Bfn.  Coefficient  Atom+Function  
  ----- ------------  ---------------      ----- ------------  ---------------
    73     16.623313   4 C  s                58     -9.671603   3 C  py        
    80     -7.220533   4 C  px               96     -7.070850   5 O  s         
   169     -5.257659  10 O  s                69     -4.793488   3 C  d  2      
   159      4.578159   9 H  s                26      4.256330   2 C  s         
   136     -4.206467   8 C  s                34     -3.917398   2 C  px        
 
 Vector   67  Occ=0.000000D+00  E= 4.389737D-01  Symmetry=a"
              MO Center=  7.0D-03, -7.8D-01,  1.4D-15, r^2= 9.2D+00
   Bfn.  Coefficient  Atom+Function         Bfn.  Coefficient  Atom+Function  
  ----- ------------  ---------------      ----- ------------  ---------------
   133      1.701134   7 H  pz              197      1.349504  11 H  pz        
   143     -1.022002   8 C  pz              165     -0.832694   9 H  pz        
    33     -0.778778   2 C  pz               36     -0.638896   2 C  pz        
   146     -0.638529   8 C  pz               43      0.610681   2 C  d -1      
    79      0.580497   4 C  pz               82      0.526956   4 C  pz        
 
 Vector   68  Occ=0.000000D+00  E= 4.457475D-01  Symmetry=a'
              MO Center=  1.8D-01,  8.3D-02, -2.8D-15, r^2= 1.3D+01
   Bfn.  Coefficient  Atom+Function         Bfn.  Coefficient  Atom+Function  
  ----- ------------  ---------------      ----- ------------  ---------------
    27     32.867192   2 C  s                73    -28.026857   4 C  s         
    57     14.520918   3 C  px                4    -12.423711   1 O  s         
    72      9.307042   4 C  s                96      8.637467   5 O  s         
    58      8.481270   3 C  py               26     -6.826076   2 C  s         
    34      6.227364   2 C  px               65     -6.173758   3 C  d -2      
 
 Vector   69  Occ=0.000000D+00  E= 4.601076D-01  Symmetry=a'
              MO Center= -2.4D-01,  1.3D-01, -4.8D-16, r^2= 1.1D+01
   Bfn.  Coefficient  Atom+Function         Bfn.  Coefficient  Atom+Function  
  ----- ------------  ---------------      ----- ------------  ---------------
   137    -25.369962   8 C  s                73     24.483121   4 C  s         
    58    -17.036354   3 C  py              169      7.665138  10 O  s         
    27     -7.486599   2 C  s                96     -6.515284   5 O  s         
    80     -6.369459   4 C  px               72     -5.272971   4 C  s         
   144      4.841210   8 C  px               57     -4.792184   3 C  px        
 
 Vector   70  Occ=0.000000D+00  E= 4.739858D-01  Symmetry=a'
              MO Center= -6.4D-01,  2.7D-02,  2.4D-15, r^2= 9.4D+00
   Bfn.  Coefficient  Atom+Function         Bfn.  Coefficient  Atom+Function  
  ----- ------------  ---------------      ----- ------------  ---------------
    27     16.005848   2 C  s               137    -13.154839   8 C  s         
   136      9.110991   8 C  s                 4     -8.701318   1 O  s         
    57      8.700356   3 C  px              142      6.599785   8 C  py        
    55      6.311449   3 C  py               26     -5.785711   2 C  s         
    58     -5.399882   3 C  py              169      4.978130  10 O  s         
 
 Vector   71  Occ=0.000000D+00  E= 4.779007D-01  Symmetry=a"
              MO Center= -1.6D-01,  9.8D-01,  5.2D-16, r^2= 7.1D+00
   Bfn.  Coefficient  Atom+Function         Bfn.  Coefficient  Atom+Function  
  ----- ------------  ---------------      ----- ------------  ---------------
    59      1.540358   3 C  pz              124     -1.441593   6 H  pz        
    56      0.927159   3 C  pz              197      0.864709  11 H  pz        
    13      0.807020   1 O  pz              146     -0.807107   8 C  pz        
   133     -0.731203   7 H  pz               82     -0.722965   4 C  pz        
   105      0.710529   5 O  pz               36     -0.704375   2 C  pz        
 
 Vector   72  Occ=0.000000D+00  E= 4.926476D-01  Symmetry=a'
              MO Center=  4.3D-01,  4.3D-01,  1.3D-15, r^2= 9.1D+00
   Bfn.  Coefficient  Atom+Function         Bfn.  Coefficient  Atom+Function  
  ----- ------------  ---------------      ----- ------------  ---------------
    73     27.803819   4 C  s               137    -19.105926   8 C  s         
    58    -13.752329   3 C  py               96    -11.314000   5 O  s         
    27     -8.051434   2 C  s                57     -6.532696   3 C  px        
    72     -5.971942   4 C  s                80     -5.758682   4 C  px        
    78      5.439077   4 C  py              145     -4.766797   8 C  py        
 
 Vector   73  Occ=0.000000D+00  E= 5.069379D-01  Symmetry=a'
              MO Center= -7.4D-01, -8.0D-02,  2.4D-15, r^2= 8.8D+00
   Bfn.  Coefficient  Atom+Function         Bfn.  Coefficient  Atom+Function  
  ----- ------------  ---------------      ----- ------------  ---------------
    27     18.940792   2 C  s                50    -17.475852   3 C  s         
   137    -16.675033   8 C  s                58    -12.892727   3 C  py        
    73     10.704735   4 C  s                 4     -6.672576   1 O  s         
    34      6.203866   2 C  px              126      5.522695   7 H  s         
   169      4.982635  10 O  s                35      4.851667   2 C  py        
 

 center of mass
 --------------
 x =  -0.02281096 y =   0.00253500 z =   0.00000000

 moments of inertia (a.u.)
 ------------------
         886.997603249067           0.000000000000           0.000000000000
           0.000000000000         369.576073786758           0.000000000000
           0.000000000000           0.000000000000        1256.573677035825
 
  Mulliken analysis of the total density
  --------------------------------------

    Atom       Charge   Shell Charges
 -----------   ------   -------------------------------------------------------
    1 O    8     8.72   2.00  0.83  1.02  0.18  2.82  1.78  0.05  0.02  0.02
    2 C    6     5.19   2.01  0.69  0.97 -0.29  1.86 -0.04  0.08  0.15 -0.23
    3 C    6     5.87   2.01  0.63  0.30 -0.10  2.13 -0.15  0.65  0.08  0.32
    4 C    6     5.15   2.01  0.69  0.83 -0.36  1.87  0.03  0.05  0.17 -0.14
    5 O    8     8.89   2.00  0.83  1.06  0.20  2.77  1.88  0.10  0.02  0.03
    6 H    1     0.76   0.64  0.04 -0.01  0.09 -0.00
    7 H    1     1.34   0.76  0.56  0.01  0.03 -0.02
    8 C    6     4.51   2.01  0.69  0.40 -0.50  1.89 -0.08  0.06  0.17 -0.11
    9 H    1     1.28   0.77  0.49 -0.00  0.03 -0.01
   10 O    8     8.83   2.00  0.84  1.05  0.19  2.75  1.82  0.11  0.02  0.03
   11 H    1     1.47   0.84  0.64 -0.02  0.03 -0.02
 
       Multipole analysis of the density wrt the origin
       ------------------------------------------------
 
     L   x y z        total         open         nuclear
     -   - - -        -----         ----         -------
     0   0 0 0     -0.000000      0.000000     52.000000
 
     1   1 0 0      0.669882      0.000000     -0.000000
     1   0 1 0      0.040676      0.000000      0.000000
     1   0 0 1     -0.000000      0.000000      0.000000
 
     2   2 0 0    -26.417131      0.000000    205.931348
     2   1 1 0     -3.137589      0.000000     -3.679821
     2   1 0 1      0.000000      0.000000      0.000000
     2   0 2 0    -41.651530      0.000000    457.666339
     2   0 1 1      0.000000      0.000000      0.000000
     2   0 0 2    -29.865391      0.000000      0.000000
 
                   NWChem MP2 Semi-direct Energy/Gradient Module
                   ---------------------------------------------
 
 
                                  H,CHO,H Chelate
 
 

int_init: setting std/high accuracies to  1.0D-16  1.0D-32
  Basis functions       =    197
  Molecular orbitals    =    197
  Frozen core           =      7
  Frozen virtuals       =      0
  Active alpha occupied =     19
  Active beta occupied  =     19
  Active alpha virtual  =    171
  Active beta virtual   =    171
  Use MO symmetry       = T
  Use skeleton AO sym   = T

  AO/Fock/Back tols     =   1.0D-15  1.0D-15  1.0D-15

 GA uses MA = F    GA memory limited = T

 Available: 
  local mem=  3.77D+08
 global mem=  1.23D+08
 local disk=  0.00D+00

int_init: setting std/high accuracies to  1.0D-16  1.0D-32
  mp2_memr nvloc                     16
  nvloc new                     16
   1 passes of  19:        5242880                     332454                  25356626.
   1 passes of  19: M    376556197           G      122954509           F     371313317.
 
 Semi-direct pass number   1 of   1  for RHF alpha+beta  at       80.8s

int_init: setting std/high accuracies to  1.0D-16  1.0D-32
  vrange nnbf                  19378
  mp2_eaftype                     76  avail_ma_in_mb                   3282
 EAF : mp2_eaftype filesize          76   10047709.
  mp2_eaf for mointskh                      76
Node 0 wrote     47.1 Mb in      0.2 s     Agg I/O rate:  3273.8 Mb/s
 Done moints_semi at       89.6s
  mp2_eaftype                     76  avail_ma_in_mb                   3207
 EAF : mp2_eaftype filesize          76   10047709.
  mp2_eaf for kh                     76
  mp2_eaftype                     15  avail_ma_in_mb                   3206
 EAF : mp2_eaftype filesize          15    1975392.
  mp2_eaf for ta tb                     15
  mp2_eaf for ta                      15
  mp2_eaf for tb                      15
 Done maket at       90.1s
 Done pijab at       90.1s
 Done wijab at       90.1s
 Done lai at       92.0s

int_init: setting std/high accuracies to  1.0D-16  1.0D-32
  mp2_eaftype                     85  avail_ma_in_mb                   3176
 EAF : mp2_eaftype filesize          85   11230872.
  mp2_eaf for 2pdm                      85
 Done nonsep at      117.6s
 Done multipass loop at      117.6s


          -------------------------------------------
          SCF energy                -378.406110007271
          Correlation energy          -1.120321116078
          Singlet pairs               -0.667840889997
          Triplet pairs               -0.452480226081
          Total MP2 energy          -379.526431123349
          -------------------------------------------



          ---------------------------------------------------
                    Spin Component Scaled (SCS) MP2
          Same spin pairs                     -0.301653484054
          Same spin scaling factor             0.333333333333
          Opposite spin pairs                 -0.818667632024
          Opposite spin scaling fact.          1.200000000000
          SCS-MP2 correlation energy          -1.082952319780
          Total SCS-MP2 energy              -379.489062327051
          ---------------------------------------------------


int_init: setting std/high accuracies to  1.0D-16  1.0D-32
                                NWChem CPHF Module
                                ------------------
 
 

int_init: setting std/high accuracies to  1.0D-16  1.0D-32
    scftype = RHF 
    nclosed =   26
      nopen =    0
  variables =     4446
  tolerance =   1.0D-06
  max. iter =  999

 Warning: symmetry breaking in RHF:   1.585201755882160E-013
 SCF residual:   6.156882394607552E-011

            ----- linear solve (tol: 1.0E-06 prod-acc: 3.4E-14) -----

               iter nbas    rnorm     rnorm-scal   ratio     time
               ---- ---- ----------- ----------- --------- -------
                  1    1  9.9582E-02  4.4421E-01    0.0000   125.3
                  2    2  2.8865E-02  1.2876E-01    0.2899   128.2
                  3    3  1.0437E-02  4.6558E-02    0.3616   131.1
                  4    4  4.1169E-03  1.8364E-02    0.3944   133.9
                  5    5  1.6599E-03  7.4045E-03    0.4032   136.7
                  6    6  6.1241E-04  2.7318E-03    0.3689   139.3
                  7    7  2.7464E-04  1.2251E-03    0.4485   142.0
                  8    8  1.0366E-04  4.6238E-04    0.3774   144.6
                  9    9  3.8163E-05  1.7023E-04    0.3682   147.2
                 10   10  1.7533E-05  7.8208E-05    0.4594   149.6
                 11   11  5.0433E-06  2.2497E-05    0.2877   152.0
                 12   12  1.6704E-06  7.4512E-06    0.3312   154.3
                 13   13  5.5719E-07  2.4855E-06    0.3336   156.6
                 14   14  1.7545E-07  7.8261E-07    0.3149   158.9

 CPHF converged to   7.8D-07 in   14 iters


int_init: setting std/high accuracies to  1.0D-16  1.0D-32
                Dipole Moments (a.u.)
                --------------
         Nuclear       SCF       SCF+MP2
       ----------- ----------- -----------
 X      -0.000000    0.669882    0.537199
 Y       0.000000    0.040676    0.124474
 Z       0.000000   -0.000000   -0.000000
 

 MP2 RHF      natural orbital occupation numbers


              1      
    1    2.0000
    2    2.0000
    3    2.0000
    4    2.0000
    5    2.0000
    6    2.0000
    7    2.0000
    8    1.9868
    9    1.9857
   10    1.9854
   11    1.9810
   12    1.9765
   13    1.9743
   14    1.9729
   15    1.9681
   16    1.9663
   17    1.9642
   18    1.9640
   19    1.9599
   20    1.9585
   21    1.9562
   22    1.9555
   23    1.9527
   24    1.9476
   25    1.9407
   26    1.9263
   27    0.0614
   28    0.0565
   29    0.0358
   30    0.0352
   31    0.0326
   32    0.0319
   33    0.0291
   34    0.0264
   35    0.0224
   36    0.0208
   37    0.0176
   38    0.0159
   39    0.0148
   40    0.0142
   41    0.0123
   42    0.0121
   43    0.0119
   44    0.0109
   45    0.0102
   46    0.0097
   47    0.0091
   48    0.0086
   49    0.0085
   50    0.0080
   51    0.0077
   52    0.0074
   53    0.0070
   54    0.0069
   55    0.0068
   56    0.0067
   57    0.0062
   58    0.0061
   59    0.0061
   60    0.0057
   61    0.0056
   62    0.0055
   63    0.0054
   64    0.0051
   65    0.0042
   66    0.0040
   67    0.0035
   68    0.0034
   69    0.0032
   70    0.0031
   71    0.0028
   72    0.0025
   73    0.0025
   74    0.0024
   75    0.0023
   76    0.0022
   77    0.0020
   78    0.0020
   79    0.0018
   80    0.0016
   81    0.0014
   82    0.0013
   83    0.0013
   84    0.0012
   85    0.0012
   86    0.0011
   87    0.0010
   88    0.0010
   89    0.0010
   90    0.0009
   91    0.0009
   92    0.0008
   93    0.0007
   94    0.0007
   95    0.0007
   96    0.0006
   97    0.0006
   98    0.0006
   99    0.0005
  100    0.0005
  101    0.0005
  102    0.0005
  103    0.0005
  104    0.0005
  105    0.0005
  106    0.0005
  107    0.0004
  108    0.0004
  109    0.0004
  110    0.0004
  111    0.0004
  112    0.0004
  113    0.0003
  114    0.0003
  115    0.0003
  116    0.0003
  117    0.0003
  118    0.0003
  119    0.0003
  120    0.0003
  121    0.0003
  122    0.0003
  123    0.0002
  124    0.0002
  125    0.0002
  126    0.0002
  127    0.0002
  128    0.0002
  129    0.0002
  130    0.0002
  131    0.0002
  132    0.0002
  133    0.0002
  134    0.0001
  135    0.0001
  136    0.0001
  137    0.0001
  138    0.0001
  139    0.0001
  140    0.0001
  141    0.0001
  142    0.0001
  143    0.0001
  144    0.0001
  145    0.0001
  146    0.0001
  147    0.0001
  148    0.0001
  149    0.0001
  150    0.0001
  151    0.0001
  152    0.0001
  153    0.0000
  154    0.0000
  155    0.0000
  156    0.0000
  157    0.0000
  158    0.0000
  159    0.0000
  160    0.0000
  161    0.0000
  162    0.0000
  163    0.0000
  164    0.0000
  165    0.0000
  166    0.0000
  167    0.0000
  168    0.0000
  169    0.0000
  170    0.0000
  171    0.0000
  172    0.0000
  173    0.0000
  174    0.0000
  175    0.0000
  176    0.0000
  177    0.0000
  178    0.0000
  179    0.0000
  180    0.0000
  181    0.0000
  182    0.0000
  183    0.0000
  184    0.0000
  185   -0.0000
  186   -0.0000
  187   -0.0000
  188   -0.0000
  189   -0.0000
  190   -0.0000
  191   -0.0000
  192   -0.0000
  193   -0.0001
  194   -0.0001
  195   -0.0002
  196   -0.0002
  197   -0.0003
 
  MP2 natural orbitals output to ./8cC.mp2nos
 

int_init: setting std/high accuracies to  1.0D-16  1.0D-32
  Using symmetry

int_init: setting std/high accuracies to  1.0D-16  1.0D-32


                         mp2 ENERGY GRADIENTS

    atom               coordinates                        gradient
                 x          y          z           x          y          z
[...]
          15     0.00000     0.00000     0.00000     0.03125     0.00000    -0.00308
          16    -0.12847     0.13443    -0.08091     0.00000     0.14378     0.00000
          17     0.10080    -0.09364     0.08870     0.00000    -0.14862     0.00000
          18     0.00000     0.00000     0.00000    -0.47828     0.00000    -0.36987
          19     0.07248    -0.11204    -0.08248     0.00000    -0.24559     0.00000
          20     0.03281    -0.04096     0.09096     0.00000     0.01591     0.00000
          21     0.00000     0.00000     0.00000     0.46861     0.00000     0.12106
          22    -0.05119    -0.02141     0.16948     0.00000     0.04644     0.00000
          23    -0.10385    -0.01252    -0.11802     0.00000    -0.03495     0.00000
          24     0.00000     0.00000     0.00000     0.05052     0.00000    -0.15462
          25     0.05654    -0.11004    -0.08939     0.00000     0.21242     0.00000
          26     0.13554    -0.01949    -0.03315     0.00000     0.18173     0.00000
          27     0.00000     0.00000     0.00000     0.21848     0.00000    -0.24476
          28    -0.00786    -0.01133    -0.03198     0.00000    -0.00949     0.00000
          29    -0.15591    -0.02768     0.05862     0.00000     0.00293     0.00000
          30     0.00000     0.00000     0.00000    -0.01363     0.00000     0.03919
          31    -0.05200    -0.02096     0.14644     0.00000     0.03722     0.00000
          32    -0.11107    -0.00143    -0.23698     0.00000    -0.10223     0.00000
          33     0.00000     0.00000     0.00000    -0.24639     0.00000     0.62411

                   19          20          21          22          23          24
 
 P.Frequency     1031.52     1084.06     1226.88     1289.87     1378.86     1405.33
 
           1     0.00000     0.00000     0.00340     0.02557    -0.00981     0.01845
           2     0.00000     0.00000    -0.02492    -0.11247     0.08997    -0.00336
           3    -0.01376    -0.02556     0.00000     0.00000     0.00000     0.00000
           4     0.00000     0.00000     0.03582    -0.01666     0.02544    -0.00061
           5     0.00000     0.00000    -0.00030     0.08689    -0.15284    -0.01588
           6     0.02890    -0.08175     0.00000     0.00000     0.00000     0.00000
           7     0.00000     0.00000    -0.00872     0.01557     0.08162    -0.02110
           8     0.00000     0.00000    -0.17830     0.10729    -0.00400     0.04398
           9     0.06627     0.02299     0.00000     0.00000     0.00000     0.00000
          10     0.00000     0.00000     0.03389     0.00894    -0.00399    -0.06769
          11     0.00000     0.00000     0.02020    -0.00607     0.03826     0.02413
          12    -0.15003     0.02316     0.00000     0.00000     0.00000     0.00000
          13     0.00000     0.00000     0.00526    -0.01444    -0.02005     0.04189
          14     0.00000     0.00000     0.01418    -0.00553    -0.00975    -0.07678
          15     0.02805    -0.01720     0.00000     0.00000     0.00000     0.00000
          16     0.00000     0.00000    -0.20618    -0.11308    -0.13058    -0.11487
          17     0.00000     0.00000     0.19043     0.07248     0.16071     0.13193
          18     0.19687     0.69700     0.00000     0.00000     0.00000     0.00000
          19     0.00000     0.00000    -0.33524    -0.39127    -0.22623    -0.02113
          20     0.00000     0.00000     0.39090     0.48746     0.10093     0.00796
          21    -0.15883     0.61333     0.00000     0.00000     0.00000     0.00000
          22     0.00000     0.00000    -0.04696     0.02791    -0.05257    -0.02333
          23     0.00000     0.00000     0.04168    -0.01975     0.04526     0.02322
          24    -0.06787    -0.02869     0.00000     0.00000     0.00000     0.00000
          25     0.00000     0.00000     0.10633    -0.05840    -0.12185     0.08184
          26     0.00000     0.00000     0.27081    -0.26184    -0.41967     0.62984
          27     0.66415    -0.05812     0.00000     0.00000     0.00000     0.00000
          28     0.00000     0.00000     0.00875    -0.00239     0.02945     0.03587
          29     0.00000     0.00000     0.02715    -0.01373     0.00379     0.00875
          30     0.01542     0.00605     0.00000     0.00000     0.00000     0.00000
          31     0.00000     0.00000    -0.00813    -0.00185    -0.11613    -0.13048
          32     0.00000     0.00000     0.27712    -0.21227    -0.30230    -0.53510
          33     0.28777     0.09578     0.00000     0.00000     0.00000     0.00000

                   25          26          27          28          29          30
 
 P.Frequency     1427.50     1449.72     1642.35     1673.18     1724.45     2962.57
 
           1     0.04957     0.03926     0.03835    -0.02125    -0.01945    -0.00464
           2     0.01781    -0.02555    -0.00334     0.02842     0.01618    -0.00263
           3     0.00000     0.00000     0.00000     0.00000     0.00000     0.00000
           4     0.03014     0.01953    -0.09978     0.10233     0.07213     0.00193
           5    -0.07462     0.04198    -0.00167    -0.08223    -0.03362    -0.00105
           6     0.00000     0.00000     0.00000     0.00000     0.00000     0.00000
           7    -0.08073    -0.15325     0.09309    -0.07987    -0.07120    -0.00179
           8     0.08583    -0.06367     0.01486     0.08645    -0.00343    -0.00196
           9     0.00000     0.00000     0.00000     0.00000     0.00000     0.00000
          10     0.00604     0.09107    -0.00199     0.01875     0.01713     0.00651
          11     0.07671     0.01389    -0.15026    -0.13525    -0.05462    -0.00057
          12     0.00000     0.00000     0.00000     0.00000     0.00000     0.00000
          13    -0.00335    -0.03364    -0.01475    -0.01704    -0.00819     0.00079
          14    -0.07152     0.03744     0.07709     0.07373     0.03440    -0.00037
          15     0.00000     0.00000     0.00000     0.00000     0.00000     0.00000
          16    -0.34144    -0.20902    -0.29750     0.06423     0.07228     0.06220
          17     0.37634     0.22546     0.46212    -0.06667    -0.09101     0.05798
          18     0.00000     0.00000     0.00000     0.00000     0.00000     0.00000
          19     0.00144     0.24186     0.05384    -0.12517    -0.04452    -0.00497
          20    -0.04100    -0.18188    -0.18821     0.17450     0.10910    -0.00455
          21     0.00000     0.00000     0.00000     0.00000     0.00000     0.00000
          22     0.06358    -0.01301     0.00870    -0.04123     0.11459    -0.07747
          23    -0.04417    -0.00493     0.03065    -0.09861     0.16299     0.01677
          24     0.00000     0.00000     0.00000     0.00000     0.00000     0.00000
          25    -0.00173     0.02942     0.06065     0.08679     0.04148    -0.08158
          26     0.01063    -0.26909     0.11025     0.16344     0.05693     0.02429
          27     0.00000     0.00000     0.00000     0.00000     0.00000     0.00000
          28    -0.04817     0.03744    -0.01251     0.03736    -0.07888    -0.00032
          29    -0.02563     0.03635    -0.01973     0.04964    -0.09805    -0.00087
          30     0.00000     0.00000     0.00000     0.00000     0.00000     0.00000
          31     0.14620    -0.08317     0.00692    -0.01081     0.04174     0.93364
          32     0.39232    -0.38848     0.02567     0.05406    -0.17097    -0.17348
          33     0.00000     0.00000     0.00000     0.00000     0.00000     0.00000

                   31          32          33
 
 P.Frequency     3013.68     3045.01     3232.58
 
           1    -0.04613    -0.01548     0.00380
           2    -0.03175    -0.01029     0.00191
           3     0.00000     0.00000     0.00000
           4     0.01213     0.00507     0.06253
           5    -0.00554    -0.00191     0.05680
           6     0.00000     0.00000     0.00000
           7    -0.01086    -0.00214    -0.00384
           8    -0.00163     0.00188     0.00112
           9     0.00000     0.00000     0.00000
          10     0.02919    -0.07432     0.00020
          11     0.00898     0.02079    -0.00167
          12     0.00000     0.00000     0.00000
          13     0.00408     0.00164    -0.00035
          14    -0.00783    -0.00196     0.00072
          15     0.00000     0.00000     0.00000
          16     0.66467     0.22920    -0.06471
          17     0.61450     0.20029    -0.06871
          18     0.00000     0.00000     0.00000
          19    -0.06867    -0.03014    -0.68872
          20    -0.05214    -0.02182    -0.65069
          21     0.00000     0.00000     0.00000
          22     0.00854    -0.00502     0.00090
          23    -0.00353     0.00114     0.00070
          24     0.00000     0.00000     0.00000
          25    -0.28977     0.87602    -0.00711
          26     0.05743    -0.22523     0.00402
          27     0.00000     0.00000     0.00000
          28     0.00010     0.00020    -0.00044
          29     0.00052    -0.00037    -0.00014
          30     0.00000     0.00000     0.00000
          31    -0.10503     0.05115     0.00089
          32     0.02062    -0.01362    -0.00213
          33     0.00000     0.00000     0.00000



 ----------------------------------------------------------------------------
 Normal Eigenvalue ||    Projected Derivative Dipole Moments (debye/angs)
  Mode   [cm**-1]  ||      [d/dqX]             [d/dqY]           [d/dqZ]
 ------ ---------- || ------------------ ------------------ -----------------
    1       -0.000 ||       0.014              -0.026             0.000
    2       -0.000 ||       0.000               0.000            -0.069
    3       -0.000 ||       0.000               0.000             0.082
    4       -0.000 ||      -0.015               0.028             0.000
    5        0.000 ||       0.000               0.000             0.017
    6        0.000 ||       0.021              -0.040             0.000
    7      125.565 ||       0.000               0.000             0.629
    8      211.290 ||      -0.411               0.213             0.000
    9      263.206 ||       0.000               0.000             0.106
   10      287.316 ||      -0.493               0.048             0.000
   11      304.525 ||       0.000               0.000             0.237
   12      389.710 ||       0.000               0.000             0.274
   13      480.455 ||       0.236               0.174             0.000
   14      523.467 ||      -0.455              -0.335             0.000
   15      748.489 ||       0.195              -1.290             0.000
   16      953.242 ||       0.000               0.000            -0.590
   17      959.048 ||       0.881              -0.054             0.000
   18      992.983 ||       0.000               0.000            -0.487
   19     1031.518 ||       0.000               0.000             0.294
   20     1084.064 ||       0.000               0.000             1.206
   21     1226.878 ||      -0.401               1.792             0.000
   22     1289.869 ||      -1.521               0.655             0.000
   23     1378.858 ||       0.235              -0.377             0.000
   24     1405.332 ||      -0.025               0.472             0.000
   25     1427.500 ||       0.911               0.236             0.000
   26     1449.722 ||       0.787               0.275             0.000
   27     1642.348 ||      -2.336               0.037             0.000
   28     1673.177 ||       1.247              -3.511             0.000
   29     1724.453 ||       1.555               0.888             0.000
   30     2962.566 ||      -1.103               0.469             0.000
   31     3013.685 ||       2.223               1.553             0.000
   32     3045.011 ||      -0.514               0.797             0.000
   33     3232.583 ||      -0.150              -0.152             0.000
 ----------------------------------------------------------------------------



  
  
 ----------------------------------------------------------------------------
 Normal Eigenvalue ||           Projected Infra Red Intensities
  Mode   [cm**-1]  || [atomic units] [(debye/angs)**2] [(KM/mol)] [arbitrary]
 ------ ---------- || -------------- ----------------- ---------- -----------
    1       -0.000 ||    0.000037           0.001         0.036       0.006
    2       -0.000 ||    0.000207           0.005         0.202       0.034
    3       -0.000 ||    0.000291           0.007         0.284       0.048
    4       -0.000 ||    0.000043           0.001         0.042       0.007
    5        0.000 ||    0.000013           0.000         0.012       0.002
    6        0.000 ||    0.000089           0.002         0.087       0.015
    7      125.565 ||    0.017161           0.396        16.729       2.815
    8      211.290 ||    0.009303           0.215         9.069       1.526
    9      263.206 ||    0.000486           0.011         0.473       0.080
   10      287.316 ||    0.010638           0.245        10.371       1.745
   11      304.525 ||    0.002429           0.056         2.368       0.398
   12      389.710 ||    0.003244           0.075         3.162       0.532
   13      480.455 ||    0.003741           0.086         3.647       0.614
   14      523.467 ||    0.013821           0.319        13.474       2.267
   15      748.489 ||    0.073738           1.701        71.884      12.094
   16      953.242 ||    0.015098           0.348        14.719       2.476
   17      959.048 ||    0.033787           0.779        32.937       5.541
   18      992.983 ||    0.010268           0.237        10.010       1.684
   19     1031.518 ||    0.003740           0.086         3.646       0.613
   20     1084.064 ||    0.063035           1.454        61.449      10.338
   21     1226.878 ||    0.146179           3.372       142.503      23.975
   22     1289.869 ||    0.118851           2.742       115.862      19.493
   23     1378.858 ||    0.008542           0.197         8.327       1.401
   24     1405.332 ||    0.009668           0.223         9.425       1.586
   25     1427.500 ||    0.038367           0.885        37.402       6.293
   26     1449.722 ||    0.030125           0.695        29.367       4.941
   27     1642.348 ||    0.236521           5.457       230.573      38.792
   28     1673.177 ||    0.601742          13.883       586.608      98.691
   29     1724.453 ||    0.139008           3.207       135.512      22.799
   30     2962.566 ||    0.062262           1.436        60.696      10.212
   31     3013.685 ||    0.318634           7.351       310.620      52.259
   32     3045.011 ||    0.039029           0.900        38.047       6.401
   33     3232.583 ||    0.001982           0.046         1.932       0.325
 ----------------------------------------------------------------------------



 vib:animation  F

 Task  times  cpu:     9567.5s     wall:     9703.7s
 
 
                                NWChem Input Module
                                -------------------
 
 
 Summary of allocated global arrays
-----------------------------------
  No active global arrays



                         GA Statistics for process    0
                         ------------------------------

       create   destroy   get      put      acc     scatter   gather  read&inc
calls: 8.32e+04 8.32e+04 1.26e+07 1.86e+06 5.49e+06    0        0     1.14e+05 
number of processes/call 2.39e+01 7.37e+01 3.04e+01 0.00e+00 0.00e+00
bytes total:             1.36e+10 2.24e+10 3.94e+09 0.00e+00 0.00e+00 9.08e+05
bytes remote:            7.25e+09 1.54e+10 2.86e+09 0.00e+00 0.00e+00 0.00e+00
Max memory consumed for GA by this process: 186246328 bytes
 
MA_summarize_allocated_blocks: starting scan ...
MA_summarize_allocated_blocks: scan completed: 0 heap blocks, 0 stack blocks
MA usage statistics:

	allocation statistics:
					      heap	     stack
					      ----	     -----
	current number of blocks	         0	         0
	maximum number of blocks	        25	        39
	current total bytes		         0	         0
	maximum total bytes		 122109024	  27155112
	maximum total K-bytes		    122110	     27156
	maximum total M-bytes		       123	        28
 
 
                                     CITATION
                                     --------
                Please cite the following reference when publishing
                           results obtained with NWChem:
 
          E. Apr, E. J. Bylaska, W. A. de Jong, N. Govind, K. Kowalski,
       T. P. Straatsma, M. Valiev, H. J. J. van Dam, Y. Alexeev, J. Anchell,
       V. Anisimov, F. W. Aquino, R. Atta-Fynn, J. Autschbach, N. P. Bauman,
     J. C. Becca, D. E. Bernholdt, K. Bhaskaran-Nair, S. Bogatko, P. Borowski,
        J. Boschen, J. Brabec, A. Bruner, E. Caut, Y. Chen, G. N. Chuev,
      C. J. Cramer, J. Daily, M. J. O. Deegan, T. H. Dunning Jr., M. Dupuis,
   K. G. Dyall, G. I. Fann, S. A. Fischer, A. Fonari, H. Frchtl, L. Gagliardi,
      J. Garza, N. Gawande, S. Ghosh, K. Glaesemann, A. W. Gtz, J. Hammond,
       V. Helms, E. D. Hermes, K. Hirao, S. Hirata, M. Jacquelin, L. Jensen,
   B. G. Johnson, H. Jnsson, R. A. Kendall, M. Klemm, R. Kobayashi, V. Konkov,
      S. Krishnamoorthy, M. Krishnan, Z. Lin, R. D. Lins, R. J. Littlefield,
      A. J. Logsdail, K. Lopata, W. Ma, A. V. Marenich, J. Martin del Campo,
   D. Mejia-Rodriguez, J. E. Moore, J. M. Mullin, T. Nakajima, D. R. Nascimento,
    J. A. Nichols, P. J. Nichols, J. Nieplocha, A. Otero-de-la-Roza, B. Palmer,
    A. Panyala, T. Pirojsirikul, B. Peng, R. Peverati, J. Pittner, L. Pollack,
   R. M. Richard, P. Sadayappan, G. C. Schatz, W. A. Shelton, D. W. Silverstein,
   D. M. A. Smith, T. A. Soares, D. Song, M. Swart, H. L. Taylor, G. S. Thomas,
            V. Tipparaju, D. G. Truhlar, K. Tsemekhman, T. Van Voorhis,
     . Vzquez-Mayagoitia, P. Verma, O. Villa, A. Vishnu, K. D. Vogiatzis,
        D. Wang, J. H. Weare, M. J. Williamson, T. L. Windus, K. Woliski,
        A. T. Wong, Q. Wu, C. Yang, Q. Yu, M. Zacharias, Z. Zhang, Y. Zhao,
                                and R. J. Harrison
                        "NWChem: Past, present, and future
                         J. Chem. Phys. 152, 184102 (2020)
                               doi:10.1063/5.0004997
 
                                      AUTHORS
                                      -------
     E. Apra, E. J. Bylaska, N. Govind, K. Kowalski, M. Valiev, W. A. de Jong,
      T. P. Straatsma, H. J. J. van Dam, D. Wang, T. L. Windus, N. P. Bauman,
       A. Panyala, J. Hammond, J. Autschbach, K. Bhaskaran-Nair, J. Brabec,
    K. Lopata, S. A. Fischer, S. Krishnamoorthy, M. Jacquelin, W. Ma, M. Klemm,
       O. Villa, Y. Chen, V. Anisimov, F. Aquino, S. Hirata, M. T. Hackler,
           Eric Hermes, L. Jensen, J. E. Moore, J. C. Becca, V. Konjkov,
            D. Mejia-Rodriguez, T. Risthaus, M. Malagoli, A. Marenich,
   A. Otero-de-la-Roza, J. Mullin, P. Nichols, R. Peverati, J. Pittner, Y. Zhao,
        P.-D. Fan, A. Fonari, M. J. Williamson, R. J. Harrison, J. R. Rehr,
      M. Dupuis, D. Silverstein, D. M. A. Smith, J. Nieplocha, V. Tipparaju,
      M. Krishnan, B. E. Van Kuiken, A. Vazquez-Mayagoitia, M. Swart, Q. Wu,
   T. Van Voorhis, A. A. Auer, M. Nooijen, L. D. Crosby, E. Brown, G. Cisneros,
     G. I. Fann, H. Fruchtl, J. Garza, K. Hirao, R. A. Kendall, J. A. Nichols,
       K. Tsemekhman, K. Wolinski, J. Anchell, D. E. Bernholdt, P. Borowski,
       T. Clark, D. Clerc, H. Dachsel, M. J. O. Deegan, K. Dyall, D. Elwood,
      E. Glendening, M. Gutowski, A. C. Hess, J. Jaffe, B. G. Johnson, J. Ju,
        R. Kobayashi, R. Kutteh, Z. Lin, R. Littlefield, X. Long, B. Meng,
      T. Nakajima, S. Niu, L. Pollack, M. Rosing, K. Glaesemann, G. Sandrone,
      M. Stave, H. Taylor, G. Thomas, J. H. van Lenthe, A. T. Wong, Z. Zhang.

 Total times  cpu:    11895.2s     wall:    12072.3s
