 argument  1 = 8cO.nw
 


============================== echo of input deck ==============================
echo
start 8cO
title "H,CHO,H Open"
charge 0

geometry
 zmatrix
  O
  C  1  R1
  C  2  R2  1  A1
  C  3  R3  2  A2  1  D0
  O  4  R4  3  A3  2  D0
  H  1  R5  2  A4  3  D180
  H  2  R6  3  A5  4  D180
  C  3  R7  2  A6  1  D180
  H  4  R8  3  A7  2  D180
  O  8  R9  3  A8  2  D0
  H  8  R10 3  A9  2  D180
  variables
    R1  1.329
    R2  1.363
    A1  124.5
    R3  1.440
    A2  119.5
    R4  1.249
    A3  123.5
    R5  0.994
    A4  105.4
    R6  1.085
    A5  122.5
    R7  1.478
    A6  120.0
    R8  1.099
    A7  117.6
    R9  1.250
    A8  120.0
    R10 1.000
    A9  120.0
  constants
    D0  0.000
    D180 180.0
 end
end

basis spherical
 * library aug-cc-pVDZ
end

set lindep:n_dep 0

set cphf:maxsub 95
set cphf:maxiter 999
set int:acc_std 1d-16
set fock:densityscreen f

scf
 maxiter 99
 vectors input atomic
 thresh 1d-9
 tol2e 1d-15
end

mp2
 freeze atomic
 tight
end

driver
 clear
 maxiter 99
 tight
end

set "mp2:aotol2e fock" 1d-15
set mp2:aotol2e 1d-15
set mp2:backtol 1d-15


task mp2 optimize
task mp2 frequencies


================================================================================


                                         
                                         
 
 
             Northwest Computational Chemistry Package (NWChem) 7.0.0
             --------------------------------------------------------
 
 
                    Environmental Molecular Sciences Laboratory
                       Pacific Northwest National Laboratory
                                Richland, WA 99352
 
                              Copyright (c) 1994-2020
                       Pacific Northwest National Laboratory
                            Battelle Memorial Institute
 
             NWChem is an open-source computational chemistry package
                        distributed under the terms of the
                      Educational Community License (ECL) 2.0
             A copy of the license is included with this distribution
                              in the LICENSE.TXT file
 
                                  ACKNOWLEDGMENT
                                  --------------

            This software and its documentation were developed at the
            EMSL at Pacific Northwest National Laboratory, a multiprogram
            national laboratory, operated for the U.S. Department of Energy
            by Battelle under Contract Number DE-AC05-76RL01830. Support
            for this work was provided by the Department of Energy Office
            of Biological and Environmental Research, Office of Basic
            Energy Sciences, and the Office of Advanced Scientific Computing.


           Job information
           ---------------

    hostname        = compute-0-27.local
    program         = /scratch/nwchem.277679
    date            = Wed Mar 31 12:17:44 2021

    compiled        = Wed_Mar_31_10:43:23_2021
    source          = /home/edo/nwchem-7.0.1
    nwchem branch   = 7.0.1
    nwchem revision = de46fdf
    ga revision     = 5.7.1
    use scalapack   = T
    input           = 8cO.nw
    prefix          = 8cO.
    data base       = ./8cO.db
    status          = startup
    nproc           =       11
    time left       =     -1s



           Memory information
           ------------------

    heap     =  215205455 doubles =   1641.9 Mbytes
    stack    =  215205457 doubles =   1641.9 Mbytes
    global   =  122974549 doubles =    938.2 Mbytes (distinct from heap & stack)
    total    =  553385461 doubles =   4222.0 Mbytes
    verify   = yes
    hardfail = no 


           Directory information
           ---------------------
 
  0 permanent = .
  0 scratch   = /scratch
 
 
 
 
                                NWChem Input Module
                                -------------------
 
 
                                   H,CHO,H Open
                                   ------------

 Scaling coordinates for geometry "geometry" by  1.889725989
 (inverse scale =  0.529177249)

 CS  symmetry detected
 
 
                             Geometry "geometry" -> ""
                             -------------------------
 
 Output coordinates in angstroms (scale by  1.889725989 to convert to a.u.)
 
  No.       Tag          Charge          X              Y              Z
 ---- ---------------- ---------- -------------- -------------- --------------
    1 O                    8.0000    -1.53155953     1.34418859     0.00000000
    2 C                    6.0000    -1.06645231     0.09923226     0.00000000
    3 C                    6.0000     0.25597639    -0.23084552     0.00000000
    4 C                    6.0000     1.24747410     0.81344002     0.00000000
    5 O                    8.0000     0.96682149     2.03050005     0.00000000
    6 H                    1.0000    -2.52164691     1.25608088     0.00000000
    7 H                    1.0000    -1.85367449    -0.64743114     0.00000000
    8 C                    6.0000     0.66300502    -1.65169445     0.00000000
    9 H                    1.0000     2.30435076     0.51208853     0.00000000
   10 O                    8.0000    -0.20554789    -2.55064709     0.00000000
   11 H                    1.0000     1.63323884    -1.89386450     0.00000000
 
      Atomic Mass 
      ----------- 
 
      O                 15.994910
      C                 12.000000
      H                  1.007825
 

 Effective nuclear repulsion energy (a.u.)     275.9815150465

            Nuclear Dipole moment (a.u.) 
            ----------------------------
        X                 Y               Z
 ---------------- ---------------- ----------------
    -0.0000000000    -0.0000000000     0.0000000000
 
      Symmetry information
      --------------------
 
 Group name             Cs        
 Group number              2
 Group order               2
 No. of unique centers    11
 
      Symmetry unique atoms
 
     1    2    3    4    5    6    7    8    9   10   11
 


                                Z-matrix (user)
                                -------- 

 Units are Angstrom for bonds and degrees for angles

  Constants are marked with an asterisk (*).

  Constrained variables are marked with a plus sign (+).

 
      Type          Name      I     J     K     L     M      Value
      ----------- --------  ----- ----- ----- ----- ----- ----------
    1 Stretch      R1          2     1                       1.32900
    2 Stretch      R2          3     2                       1.36300
    3 Bend         A1          3     2     1               124.50000
    4 Stretch      R3          4     3                       1.44000
    5 Bend         A2          4     3     2               119.50000
    6*Torsion      D0          4     3     2     1           0.00000
    7 Stretch      R4          5     4                       1.24900
    8 Bend         A3          5     4     3               123.50000
    9*Torsion      D0          5     4     3     2           0.00000
   10 Stretch      R5          6     1                       0.99400
   11 Bend         A4          6     1     2               105.40000
   12*Torsion      D180        6     1     2     3         180.00000
   13 Stretch      R6          7     2                       1.08500
   14 Bend         A5          7     2     3               122.50000
   15*Torsion      D180        7     2     3     4         180.00000
   16 Stretch      R7          8     3                       1.47800
   17 Bend         A6          8     3     2               120.00000
   18*Torsion      D180        8     3     2     1         180.00000
   19 Stretch      R8          9     4                       1.09900
   20 Bend         A7          9     4     3               117.60000
   21*Torsion      D180        9     4     3     2         180.00000
   22 Stretch      R9         10     8                       1.25000
   23 Bend         A8         10     8     3               120.00000
   24*Torsion      D0         10     8     3     2           0.00000
   25 Stretch      R10        11     8                       1.00000
   26 Bend         A9         11     8     3               120.00000
   27*Torsion      D180       11     8     3     2         180.00000
 
 
            XYZ format geometry
            -------------------
    11
 geometry
 O                    -1.53155953     1.34418859     0.00000000
 C                    -1.06645231     0.09923226     0.00000000
 C                     0.25597639    -0.23084552     0.00000000
 C                     1.24747410     0.81344002     0.00000000
 O                     0.96682149     2.03050005     0.00000000
 H                    -2.52164691     1.25608088     0.00000000
 H                    -1.85367449    -0.64743114     0.00000000
 C                     0.66300502    -1.65169445     0.00000000
 H                     2.30435076     0.51208853     0.00000000
 O                    -0.20554789    -2.55064709     0.00000000
 H                     1.63323884    -1.89386450     0.00000000
 
 ==============================================================================
                                internuclear distances
 ------------------------------------------------------------------------------
       center one      |      center two      | atomic units |  angstroms
 ------------------------------------------------------------------------------
    2 C                |   1 O                |     2.51145  |     1.32900
    3 C                |   2 C                |     2.57570  |     1.36300
    4 C                |   3 C                |     2.72121  |     1.44000
    5 O                |   4 C                |     2.36027  |     1.24900
    6 H                |   1 O                |     1.87839  |     0.99400
    7 H                |   2 C                |     2.05035  |     1.08500
    8 C                |   3 C                |     2.79302  |     1.47800
    9 H                |   4 C                |     2.07681  |     1.09900
   10 O                |   8 C                |     2.36216  |     1.25000
   11 H                |   8 C                |     1.88973  |     1.00000
 ------------------------------------------------------------------------------
                         number of included internuclear distances:         10
 ==============================================================================



 ==============================================================================
                                 internuclear angles
 ------------------------------------------------------------------------------
        center 1       |       center 2       |       center 3       |  degrees
 ------------------------------------------------------------------------------
    2 C                |   1 O                |   6 H                |   105.40
    1 O                |   2 C                |   3 C                |   124.50
    1 O                |   2 C                |   7 H                |   113.00
    3 C                |   2 C                |   7 H                |   122.50
    2 C                |   3 C                |   4 C                |   119.50
    2 C                |   3 C                |   8 C                |   120.00
    4 C                |   3 C                |   8 C                |   120.50
    3 C                |   4 C                |   5 O                |   123.50
    3 C                |   4 C                |   9 H                |   117.60
    5 O                |   4 C                |   9 H                |   118.90
    3 C                |   8 C                |  10 O                |   120.00
    3 C                |   8 C                |  11 H                |   120.00
   10 O                |   8 C                |  11 H                |   120.00
 ------------------------------------------------------------------------------
                            number of included internuclear angles:         13
 ==============================================================================





 Summary of "ao basis" -> "" (spherical)
 ------------------------------------------------------------------------------
       Tag                 Description            Shells   Functions and Types
 ---------------- ------------------------------  ------  ---------------------
 *                        aug-cc-pVDZ                 on all atoms 


 
  Deleted DRIVER restart files 
 
 
 
                           NWChem Geometry Optimization
                           ----------------------------
 
 
 
 
                                   H,CHO,H Open
 
 
 maximum gradient threshold         (gmax) =   0.000015
 rms gradient threshold             (grms) =   0.000010
 maximum cartesian step threshold   (xmax) =   0.000060
 rms cartesian step threshold       (xrms) =   0.000040
 fixed trust radius                (trust) =   0.300000
 maximum step size to saddle      (sadstp) =   0.100000
 energy precision                  (eprec) =   1.0D-07
 maximum number of steps          (nptopt) =   99
 initial hessian option           (inhess) =    0
 line search option               (linopt) =    1
 hessian update option            (modupd) =    1
 saddle point option              (modsad) =    0
 initial eigen-mode to follow     (moddir) =    0
 initial variable to follow       (vardir) =    0
 follow first negative mode     (firstneg) =    T
 apply conjugacy                    (opcg) =    F
 source of zmatrix                         =   user    


          -------------------
          Energy Minimization
          -------------------

 
 Names of Z-matrix variables 
    1 R1           2 R2           3 A1           4 R3           5 A2      
    6 D0           7 R4           8 A3           9 D0          10 R5      
   11 A4          12 D180        13 R6          14 A5          15 D180    
   16 R7          17 A6          18 D180        19 R8          20 A7      
   21 D180        22 R9          23 A8          24 D0          25 R10     
   26 A9          27 D180    
 
 Variables with the same non-blank name are constrained to be equal
 
     variables named       D0 =     6    9   24 
     variables named     D180 =    12   15   18   21   27 

 Number of frozen variables =    8
           Frozen variables =    6    9   12   15   18   21   24   27
 
 Using diagonal initial Hessian 
 Scaling for Hessian diagonals: bonds = 1.00  angles = 0.25  torsions = 0.10

          --------
          Step   0
          --------
 
 
                         Geometry "geometry" -> "geometry"
                         ---------------------------------
 
 Output coordinates in angstroms (scale by  1.889725989 to convert to a.u.)
 
  No.       Tag          Charge          X              Y              Z
 ---- ---------------- ---------- -------------- -------------- --------------
    1 O                    8.0000    -1.53155953     1.34418859     0.00000000
    2 C                    6.0000    -1.06645231     0.09923226     0.00000000
    3 C                    6.0000     0.25597639    -0.23084552     0.00000000
    4 C                    6.0000     1.24747410     0.81344002     0.00000000
    5 O                    8.0000     0.96682149     2.03050005     0.00000000
    6 H                    1.0000    -2.52164691     1.25608088     0.00000000
    7 H                    1.0000    -1.85367449    -0.64743114     0.00000000
    8 C                    6.0000     0.66300502    -1.65169445     0.00000000
    9 H                    1.0000     2.30435076     0.51208853     0.00000000
   10 O                    8.0000    -0.20554789    -2.55064709     0.00000000
   11 H                    1.0000     1.63323884    -1.89386450     0.00000000
 
      Atomic Mass 
      ----------- 
 
      O                 15.994910
      C                 12.000000
      H                  1.007825
 

 Effective nuclear repulsion energy (a.u.)     275.9815150465

            Nuclear Dipole moment (a.u.) 
            ----------------------------
        X                 Y               Z
 ---------------- ---------------- ----------------
    -0.0000000000    -0.0000000000     0.0000000000
 
      Symmetry information
      --------------------
 
 Group name             Cs        
 Group number              2
 Group order               2
 No. of unique centers    11
 
      Symmetry unique atoms
 
     1    2    3    4    5    6    7    8    9   10   11
 
                      Basis "ao basis" -> "ao basis" (spherical)
                      -----
  O (Oxygen)
  ----------
            Exponent  Coefficients 
       -------------- ---------------------------------------------------------
  1 S  1.17200000E+04  0.000710
  1 S  1.75900000E+03  0.005470
  1 S  4.00800000E+02  0.027837
  1 S  1.13700000E+02  0.104800
  1 S  3.70300000E+01  0.283062
  1 S  1.32700000E+01  0.448719
  1 S  5.02500000E+00  0.270952
  1 S  1.01300000E+00  0.015458
 
  2 S  1.17200000E+04 -0.000160
  2 S  1.75900000E+03 -0.001263
  2 S  4.00800000E+02 -0.006267
  2 S  1.13700000E+02 -0.025716
  2 S  3.70300000E+01 -0.070924
  2 S  1.32700000E+01 -0.165411
  2 S  5.02500000E+00 -0.116955
  2 S  1.01300000E+00  0.557368
 
  3 S  3.02300000E-01  1.000000
 
  4 S  7.89600000E-02  1.000000
 
  5 P  1.77000000E+01  0.043018
  5 P  3.85400000E+00  0.228913
  5 P  1.04600000E+00  0.508728
 
  6 P  2.75300000E-01  1.000000
 
  7 P  6.85600000E-02  1.000000
 
  8 D  1.18500000E+00  1.000000
 
  9 D  3.32000000E-01  1.000000
 
  C (Carbon)
  ----------
            Exponent  Coefficients 
       -------------- ---------------------------------------------------------
  1 S  6.66500000E+03  0.000692
  1 S  1.00000000E+03  0.005329
  1 S  2.28000000E+02  0.027077
  1 S  6.47100000E+01  0.101718
  1 S  2.10600000E+01  0.274740
  1 S  7.49500000E+00  0.448564
  1 S  2.79700000E+00  0.285074
  1 S  5.21500000E-01  0.015204
 
  2 S  6.66500000E+03 -0.000146
  2 S  1.00000000E+03 -0.001154
  2 S  2.28000000E+02 -0.005725
  2 S  6.47100000E+01 -0.023312
  2 S  2.10600000E+01 -0.063955
  2 S  7.49500000E+00 -0.149981
  2 S  2.79700000E+00 -0.127262
  2 S  5.21500000E-01  0.544529
 
  3 S  1.59600000E-01  1.000000
 
  4 S  4.69000000E-02  1.000000
 
  5 P  9.43900000E+00  0.038109
  5 P  2.00200000E+00  0.209480
  5 P  5.45600000E-01  0.508557
 
  6 P  1.51700000E-01  1.000000
 
  7 P  4.04100000E-02  1.000000
 
  8 D  5.50000000E-01  1.000000
 
  9 D  1.51000000E-01  1.000000
 
  H (Hydrogen)
  ------------
            Exponent  Coefficients 
       -------------- ---------------------------------------------------------
  1 S  1.30100000E+01  0.019685
  1 S  1.96200000E+00  0.137977
  1 S  4.44600000E-01  0.478148
 
  2 S  1.22000000E-01  1.000000
 
  3 S  2.97400000E-02  1.000000
 
  4 P  7.27000000E-01  1.000000
 
  5 P  1.41000000E-01  1.000000
 


 Summary of "ao basis" -> "ao basis" (spherical)
 ------------------------------------------------------------------------------
       Tag                 Description            Shells   Functions and Types
 ---------------- ------------------------------  ------  ---------------------
 O                        aug-cc-pVDZ                9       23   4s3p2d
 C                        aug-cc-pVDZ                9       23   4s3p2d
 H                        aug-cc-pVDZ                5        9   3s2p


                                 NWChem SCF Module
                                 -----------------
 
 
                                   H,CHO,H Open
 
 

  ao basis        = "ao basis"
  functions       =   197
  atoms           =    11
  closed shells   =    26
  open shells     =     0
  charge          =   0.00
  wavefunction    = RHF 
  input vectors   = atomic
  output vectors  = ./8cO.movecs
  use symmetry    = T
  symmetry adapt  = T


 Summary of "ao basis" -> "ao basis" (spherical)
 ------------------------------------------------------------------------------
       Tag                 Description            Shells   Functions and Types
 ---------------- ------------------------------  ------  ---------------------
 O                        aug-cc-pVDZ                9       23   4s3p2d
 C                        aug-cc-pVDZ                9       23   4s3p2d
 H                        aug-cc-pVDZ                5        9   3s2p


      Symmetry analysis of basis
      --------------------------
 
        a'        140
        a"         57
 

int_init: setting std/high accuracies to  1.0D-16  1.0D-32

 Forming initial guess at       0.4s


 Forcing the number of linearly dependent vectors to be  0
 
      Superposition of Atomic Density Guess
      -------------------------------------
 
 Sum of atomic energies:        -376.96587037
 
      Non-variational initial energy
      ------------------------------

 Total energy =    -380.381208
 1-e energy   =   -1060.951127
 2-e energy   =     404.588404
 HOMO         =      -0.324845
 LUMO         =      -0.078917
 
 
      Symmetry analysis of molecular orbitals - initial
      -------------------------------------------------
 
  Numbering of irreducible representations: 
 
     1 a'          2 a"      
 
  Orbital symmetries:
 
     1 a'          2 a'          3 a'          4 a'          5 a'      
     6 a'          7 a'          8 a'          9 a'         10 a'      
    11 a'         12 a'         13 a'         14 a'         15 a'      
    16 a'         17 a'         18 a"         19 a'         20 a'      
    21 a"         22 a"         23 a'         24 a'         25 a'      
    26 a"         27 a"         28 a"         29 a'         30 a'      
    31 a'         32 a'         33 a"         34 a'         35 a'      
    36 a'      
 

 Starting SCF solution at       2.8s



 ----------------------------------------------
         Quadratically convergent ROHF

 Convergence threshold     :          1.000E-09
 Maximum no. of iterations :           99
 Final Fock-matrix accuracy:          1.000E-15
 ----------------------------------------------

 Warning: symmetry breaking in RHF:   6.076149341020849E-014

              iter       energy          gnorm     gmax       time
             ----- ------------------- --------- --------- --------
                 1     -378.1512622570  1.90D+00  3.69D-01      5.7
 Warning: symmetry breaking in RHF:   9.866964310748489E-014
 Warning: symmetry breaking in RHF:   6.058661602749563E-014
                 2     -378.3490207501  5.67D-01  8.20D-02     12.2
 Warning: symmetry breaking in RHF:   5.221122393139873E-014
                 3     -378.3808622932  2.49D-02  7.84D-03     22.0
 Warning: symmetry breaking in RHF:   5.432772149046617E-014
                 4     -378.3810263425  4.22D-04  7.86D-05     36.1
 Warning: symmetry breaking in RHF:   5.433426148549080E-014
                 5     -378.3810263676  7.17D-08  9.12D-09     59.8
 Warning: symmetry breaking in RHF:   5.433425843328521E-014
                 6     -378.3810263676  8.68D-11  2.49D-11     77.9


       Final RHF  results 
       ------------------ 

         Total SCF energy =   -378.381026367638
      One-electron energy =  -1064.721379450828
      Two-electron energy =    410.358838036670
 Nuclear repulsion energy =    275.981515046520

        Time for solution =     75.6s


 
       Symmetry analysis of molecular orbitals - final
       -----------------------------------------------
 
  Numbering of irreducible representations: 
 
     1 a'          2 a"      
 
  Orbital symmetries:
 
     1 a'          2 a'          3 a'          4 a'          5 a'      
     6 a'          7 a'          8 a'          9 a'         10 a'      
    11 a'         12 a'         13 a'         14 a'         15 a'      
    16 a'         17 a'         18 a'         19 a"         20 a'      
    21 a'         22 a"         23 a"         24 a'         25 a'      
    26 a"         27 a'         28 a'         29 a"         30 a'      
    31 a'         32 a"         33 a'         34 a'         35 a"      
    36 a'      
 
             Final eigenvalues
             -----------------

              1      
    1  -20.6622
    2  -20.5677
    3  -20.5571
    4  -11.3819
    5  -11.3536
    6  -11.3469
    7  -11.2575
    8   -1.4723
    9   -1.3805
   10   -1.3675
   11   -1.1083
   12   -0.9446
   13   -0.8695
   14   -0.8000
   15   -0.7951
   16   -0.6925
   17   -0.6661
   18   -0.6431
   19   -0.6332
   20   -0.6049
   21   -0.5872
   22   -0.5477
   23   -0.5125
   24   -0.4544
   25   -0.4220
   26   -0.3735
   27    0.0211
   28    0.0357
   29    0.0387
   30    0.0545
   31    0.0606
   32    0.0770
   33    0.0938
   34    0.1067
   35    0.1146
   36    0.1199
 
                       ROHF Final Molecular Orbital Analysis
                       -------------------------------------
 
 Vector    8  Occ=2.000000D+00  E=-1.472304D+00  Symmetry=a'
              MO Center= -1.5D+00,  1.1D+00,  8.6D-32, r^2= 6.2D-01
   Bfn.  Coefficient  Atom+Function         Bfn.  Coefficient  Atom+Function  
  ----- ------------  ---------------      ----- ------------  ---------------
     3      0.470248   1 O  s                 2      0.413152   1 O  s         
    27     -0.254649   2 C  s               116      0.173086   6 H  s         
    32     -0.157417   2 C  py               26      0.156077   2 C  s         
     4      0.153884   1 O  s                25      0.153278   2 C  s         
 
 Vector    9  Occ=2.000000D+00  E=-1.380519D+00  Symmetry=a'
              MO Center=  5.6D-02, -2.2D+00,  1.2D-17, r^2= 1.0D+00
   Bfn.  Coefficient  Atom+Function         Bfn.  Coefficient  Atom+Function  
  ----- ------------  ---------------      ----- ------------  ---------------
   168      0.449038  10 O  s               167      0.388506  10 O  s         
   137     -0.235406   8 C  s               135      0.214230   8 C  s         
   136      0.211939   8 C  s                55      0.153365   3 C  py        
   142      0.152747   8 C  py        
 
 Vector   10  Occ=2.000000D+00  E=-1.367463D+00  Symmetry=a'
              MO Center=  9.8D-01,  1.6D+00, -1.1D-33, r^2= 1.1D+00
   Bfn.  Coefficient  Atom+Function         Bfn.  Coefficient  Atom+Function  
  ----- ------------  ---------------      ----- ------------  ---------------
    95      0.453226   5 O  s                94      0.390273   5 O  s         
    72      0.331666   4 C  s                73     -0.298364   4 C  s         
    71      0.211865   4 C  s               137      0.191961   8 C  s         
    55     -0.188212   3 C  py               78     -0.179260   4 C  py        
   136     -0.176083   8 C  s                75      0.158597   4 C  py        
 
 Vector   11  Occ=2.000000D+00  E=-1.108321D+00  Symmetry=a'
              MO Center=  6.9D-03, -1.3D-01,  6.3D-31, r^2= 1.9D+00
   Bfn.  Coefficient  Atom+Function         Bfn.  Coefficient  Atom+Function  
  ----- ------------  ---------------      ----- ------------  ---------------
    48      0.306771   3 C  s                49      0.210953   3 C  s         
    25      0.209335   2 C  s                26      0.182188   2 C  s         
 
 Vector   12  Occ=2.000000D+00  E=-9.445960D-01  Symmetry=a'
              MO Center= -1.0D-01, -1.9D-01,  4.4D-31, r^2= 3.4D+00
   Bfn.  Coefficient  Atom+Function         Bfn.  Coefficient  Atom+Function  
  ----- ------------  ---------------      ----- ------------  ---------------
    26      0.649113   2 C  s                27     -0.516100   2 C  s         
    72     -0.388000   4 C  s                31      0.384856   2 C  px        
    54      0.311238   3 C  px              137      0.280487   8 C  s         
    25      0.265750   2 C  s               126      0.252574   7 H  s         
    57     -0.239957   3 C  px               65      0.213942   3 C  d -2      
 
 Vector   13  Occ=2.000000D+00  E=-8.695251D-01  Symmetry=a'
              MO Center=  7.6D-01, -5.1D-01, -2.7D-33, r^2= 3.3D+00
   Bfn.  Coefficient  Atom+Function         Bfn.  Coefficient  Atom+Function  
  ----- ------------  ---------------      ----- ------------  ---------------
   137     -0.428867   8 C  s                73      0.391786   4 C  s         
    58     -0.324219   3 C  py              190      0.273886  11 H  s         
   135      0.245157   8 C  s                71     -0.231448   4 C  s         
    72     -0.223002   4 C  s               189      0.216605  11 H  s         
    52     -0.206910   3 C  py              158     -0.197296   9 H  s         
 
 Vector   14  Occ=2.000000D+00  E=-7.999734D-01  Symmetry=a'
              MO Center= -1.0D+00,  2.7D-01,  5.3D-17, r^2= 3.5D+00
   Bfn.  Coefficient  Atom+Function         Bfn.  Coefficient  Atom+Function  
  ----- ------------  ---------------      ----- ------------  ---------------
     5      0.372218   1 O  px              137     -0.339599   8 C  s         
    72      0.283773   4 C  s               116     -0.281809   6 H  s         
    29      0.272079   2 C  py               65     -0.226753   3 C  d -2      
    27      0.224607   2 C  s               126     -0.220808   7 H  s         
    31     -0.216340   2 C  px               26     -0.208162   2 C  s         
 
 Vector   15  Occ=2.000000D+00  E=-7.951390D-01  Symmetry=a'
              MO Center= -2.5D-01,  4.2D-01, -3.7D-17, r^2= 3.8D+00
   Bfn.  Coefficient  Atom+Function         Bfn.  Coefficient  Atom+Function  
  ----- ------------  ---------------      ----- ------------  ---------------
    28      0.287305   2 C  px                6      0.248970   1 O  py        
    26      0.249308   2 C  s               125     -0.213272   7 H  s         
   157     -0.197088   9 H  s                49      0.189038   3 C  s         
   126     -0.189701   7 H  s                69     -0.187030   3 C  d  2      
    72     -0.185334   4 C  s                27      0.182771   2 C  s         
 
 Vector   16  Occ=2.000000D+00  E=-6.924943D-01  Symmetry=a'
              MO Center=  3.9D-01, -3.3D-01, -3.0D-16, r^2= 4.1D+00
   Bfn.  Coefficient  Atom+Function         Bfn.  Coefficient  Atom+Function  
  ----- ------------  ---------------      ----- ------------  ---------------
   136     -0.332464   8 C  s                73      0.330333   4 C  s         
   137     -0.322296   8 C  s                74     -0.254058   4 C  px        
    52      0.239650   3 C  py              138      0.239640   8 C  px        
    58     -0.229431   3 C  py                5     -0.209568   1 O  px        
   190      0.203663  11 H  s               171     -0.192847  10 O  py        
 
 Vector   17  Occ=2.000000D+00  E=-6.660735D-01  Symmetry=a'
              MO Center=  1.8D-01,  2.1D-01, -1.5D-16, r^2= 4.0D+00
   Bfn.  Coefficient  Atom+Function         Bfn.  Coefficient  Atom+Function  
  ----- ------------  ---------------      ----- ------------  ---------------
    51      0.273047   3 C  px                6     -0.238193   1 O  py        
    28     -0.224456   2 C  px              139      0.204624   8 C  py        
   170     -0.185215  10 O  px               75     -0.180953   4 C  py        
    98      0.172571   5 O  py               74     -0.168115   4 C  px        
    97     -0.156500   5 O  px        
 
 Vector   18  Occ=2.000000D+00  E=-6.430914D-01  Symmetry=a'
              MO Center=  2.0D-01, -7.4D-01, -2.3D-17, r^2= 5.5D+00
   Bfn.  Coefficient  Atom+Function         Bfn.  Coefficient  Atom+Function  
  ----- ------------  ---------------      ----- ------------  ---------------
   171      0.308012  10 O  py              138     -0.254250   8 C  px        
    98     -0.231338   5 O  py               26      0.218254   2 C  s         
   168     -0.208007  10 O  s               170      0.195787  10 O  px        
    74     -0.185877   4 C  px                6     -0.177961   1 O  py        
   190     -0.177918  11 H  s               174      0.170975  10 O  py        
 
 Vector   19  Occ=2.000000D+00  E=-6.331578D-01  Symmetry=a"
              MO Center= -1.2D+00,  9.3D-01, -2.9D-18, r^2= 1.6D+00
   Bfn.  Coefficient  Atom+Function         Bfn.  Coefficient  Atom+Function  
  ----- ------------  ---------------      ----- ------------  ---------------
     7      0.516378   1 O  pz               10      0.379547   1 O  pz        
    30      0.235915   2 C  pz        
 
 Vector   20  Occ=2.000000D+00  E=-6.048618D-01  Symmetry=a'
              MO Center=  6.0D-01,  3.7D-01, -7.7D-17, r^2= 5.0D+00
   Bfn.  Coefficient  Atom+Function         Bfn.  Coefficient  Atom+Function  
  ----- ------------  ---------------      ----- ------------  ---------------
    98      0.387146   5 O  py               75     -0.298219   4 C  py        
   170      0.261185  10 O  px               72     -0.224261   4 C  s         
   139     -0.224055   8 C  py               55      0.211733   3 C  py        
   101      0.198265   5 O  py               95      0.193739   5 O  s         
    52      0.151240   3 C  py              173      0.151981  10 O  px        
 
 Vector   21  Occ=2.000000D+00  E=-5.872360D-01  Symmetry=a'
              MO Center= -1.0D+00,  5.6D-01, -5.5D-17, r^2= 2.9D+00
   Bfn.  Coefficient  Atom+Function         Bfn.  Coefficient  Atom+Function  
  ----- ------------  ---------------      ----- ------------  ---------------
    27      0.372698   2 C  s               126     -0.321163   7 H  s         
     6     -0.317516   1 O  py              125     -0.286983   7 H  s         
    50     -0.256167   3 C  s                28      0.228819   2 C  px        
     5     -0.216024   1 O  px               29      0.214727   2 C  py        
     9     -0.209226   1 O  py               97      0.197470   5 O  px        
 
 Vector   22  Occ=2.000000D+00  E=-5.476778D-01  Symmetry=a"
              MO Center=  1.5D-01, -7.6D-01,  1.2D-16, r^2= 4.2D+00
   Bfn.  Coefficient  Atom+Function         Bfn.  Coefficient  Atom+Function  
  ----- ------------  ---------------      ----- ------------  ---------------
   172      0.336273  10 O  pz              140      0.260878   8 C  pz        
   175      0.249047  10 O  pz                7     -0.226041   1 O  pz        
    99      0.196932   5 O  pz               53      0.181634   3 C  pz        
    76      0.178276   4 C  pz               10     -0.166805   1 O  pz        
 
 Vector   23  Occ=2.000000D+00  E=-5.124505D-01  Symmetry=a"
              MO Center=  6.8D-01,  2.7D-01, -1.4D-17, r^2= 4.7D+00
   Bfn.  Coefficient  Atom+Function         Bfn.  Coefficient  Atom+Function  
  ----- ------------  ---------------      ----- ------------  ---------------
    99      0.385548   5 O  pz              172     -0.294334  10 O  pz        
   102      0.291068   5 O  pz               76      0.265843   4 C  pz        
   175     -0.224046  10 O  pz              140     -0.178412   8 C  pz        
 
 Vector   24  Occ=2.000000D+00  E=-4.544125D-01  Symmetry=a'
              MO Center=  2.3D-01, -1.4D+00,  1.2D-17, r^2= 4.1D+00
   Bfn.  Coefficient  Atom+Function         Bfn.  Coefficient  Atom+Function  
  ----- ------------  ---------------      ----- ------------  ---------------
   170      0.372874  10 O  px              171     -0.344163  10 O  py        
   137      0.284291   8 C  s               173      0.273258  10 O  px        
   174     -0.273342  10 O  py               97      0.244688   5 O  px        
    27     -0.219311   2 C  s               136      0.217577   8 C  s         
   100      0.178635   5 O  px              142      0.178360   8 C  py        
 
 Vector   25  Occ=2.000000D+00  E=-4.219625D-01  Symmetry=a'
              MO Center=  8.1D-01,  7.6D-01,  2.1D-16, r^2= 4.1D+00
   Bfn.  Coefficient  Atom+Function         Bfn.  Coefficient  Atom+Function  
  ----- ------------  ---------------      ----- ------------  ---------------
    97      0.486347   5 O  px              100      0.372664   5 O  px        
    72      0.352807   4 C  s               137     -0.282983   8 C  s         
    73      0.277199   4 C  s                77     -0.276057   4 C  px        
    58     -0.230389   3 C  py              142     -0.216808   8 C  py        
    65     -0.209092   3 C  d -2            171      0.204250  10 O  py        
 
 Vector   26  Occ=2.000000D+00  E=-3.734878D-01  Symmetry=a"
              MO Center= -6.5D-02, -1.7D-02,  5.0D-16, r^2= 3.3D+00
   Bfn.  Coefficient  Atom+Function         Bfn.  Coefficient  Atom+Function  
  ----- ------------  ---------------      ----- ------------  ---------------
    53      0.379094   3 C  pz               56      0.324080   3 C  pz        
    99     -0.247417   5 O  pz               30      0.239735   2 C  pz        
   172     -0.236868  10 O  pz                7     -0.212995   1 O  pz        
   102     -0.189783   5 O  pz              175     -0.183475  10 O  pz        
    10     -0.173353   1 O  pz               33      0.167729   2 C  pz        
 
 Vector   27  Occ=0.000000D+00  E= 2.110201D-02  Symmetry=a'
              MO Center= -3.7D+00,  8.0D-01,  7.9D-18, r^2= 1.1D+01
   Bfn.  Coefficient  Atom+Function         Bfn.  Coefficient  Atom+Function  
  ----- ------------  ---------------      ----- ------------  ---------------
    73      3.225517   4 C  s               137      3.006749   8 C  s         
    57     -2.374551   3 C  px               34     -2.135109   2 C  px        
   118     -2.074964   6 H  s               127     -1.940548   7 H  s         
    27     -1.389200   2 C  s                 4     -0.893230   1 O  s         
    31     -0.783053   2 C  px               35      0.752271   2 C  py        
 
 Vector   28  Occ=0.000000D+00  E= 3.571309D-02  Symmetry=a'
              MO Center=  3.4D+00, -1.4D+00,  8.1D-16, r^2= 1.4D+01
   Bfn.  Coefficient  Atom+Function         Bfn.  Coefficient  Atom+Function  
  ----- ------------  ---------------      ----- ------------  ---------------
    27      5.300882   2 C  s                50     -3.631827   3 C  s         
   191     -3.165742  11 H  s               159     -2.211803   9 H  s         
    34      2.108592   2 C  px              137      1.900346   8 C  s         
    57      1.299316   3 C  px              144      1.270220   8 C  px        
    80      1.148049   4 C  px               73      1.105300   4 C  s         
 
 Vector   29  Occ=0.000000D+00  E= 3.870254D-02  Symmetry=a"
              MO Center= -3.8D-02, -3.0D-01,  3.2D-15, r^2= 5.5D+00
   Bfn.  Coefficient  Atom+Function         Bfn.  Coefficient  Atom+Function  
  ----- ------------  ---------------      ----- ------------  ---------------
    36      0.714115   2 C  pz               30      0.343894   2 C  pz        
    33      0.336351   2 C  pz               82     -0.333846   4 C  pz        
   146     -0.325630   8 C  pz               13     -0.293263   1 O  pz        
   105      0.204217   5 O  pz              178      0.193840  10 O  pz        
   140     -0.185880   8 C  pz              143     -0.185900   8 C  pz        
 
 Vector   30  Occ=0.000000D+00  E= 5.450168D-02  Symmetry=a'
              MO Center= -2.4D-02, -8.5D-01, -4.7D-17, r^2= 3.0D+01
   Bfn.  Coefficient  Atom+Function         Bfn.  Coefficient  Atom+Function  
  ----- ------------  ---------------      ----- ------------  ---------------
    73      8.266763   4 C  s               159      5.852686   9 H  s         
    57     -4.795798   3 C  px              127     -4.687837   7 H  s         
    27     -4.434948   2 C  s               191     -4.286131  11 H  s         
    80     -4.200798   4 C  px               50     -3.440515   3 C  s         
    58     -3.139306   3 C  py              118      2.254444   6 H  s         
 
 Vector   31  Occ=0.000000D+00  E= 6.057569D-02  Symmetry=a'
              MO Center=  4.9D-01, -6.6D-01, -1.3D-16, r^2= 3.3D+01
   Bfn.  Coefficient  Atom+Function         Bfn.  Coefficient  Atom+Function  
  ----- ------------  ---------------      ----- ------------  ---------------
   137     18.023749   8 C  s                58     15.534162   3 C  py        
    73     -9.120539   4 C  s               191      8.022698  11 H  s         
   159     -6.498008   9 H  s               127     -5.687310   7 H  s         
   145      4.825672   8 C  py               80      4.781582   4 C  px        
    35     -4.348340   2 C  py              144     -4.323722   8 C  px        
 
 Vector   32  Occ=0.000000D+00  E= 7.698714D-02  Symmetry=a"
              MO Center= -4.4D-02, -5.2D-01,  2.0D-16, r^2= 1.6D+01
   Bfn.  Coefficient  Atom+Function         Bfn.  Coefficient  Atom+Function  
  ----- ------------  ---------------      ----- ------------  ---------------
    59      3.540074   3 C  pz               36     -2.266505   2 C  pz        
   146     -1.864769   8 C  pz               82     -1.682744   4 C  pz        
   178      0.454497  10 O  pz               13      0.388576   1 O  pz        
   105      0.328492   5 O  pz               56      0.171039   3 C  pz        
 
 Vector   33  Occ=0.000000D+00  E= 9.382013D-02  Symmetry=a'
              MO Center= -5.6D-01,  2.8D-01,  3.1D-16, r^2= 2.0D+01
   Bfn.  Coefficient  Atom+Function         Bfn.  Coefficient  Atom+Function  
  ----- ------------  ---------------      ----- ------------  ---------------
    27     30.657888   2 C  s                50    -17.646931   3 C  s         
    57     15.229640   3 C  px               34      9.545857   2 C  px        
   137     -8.679372   8 C  s                73     -6.077008   4 C  s         
    58     -6.029472   3 C  py              127      3.155663   7 H  s         
    81      3.006673   4 C  py                4     -2.210084   1 O  s         
 
 Vector   34  Occ=0.000000D+00  E= 1.067491D-01  Symmetry=a'
              MO Center=  1.7D-01, -3.9D-01,  5.1D-16, r^2= 2.2D+01
   Bfn.  Coefficient  Atom+Function         Bfn.  Coefficient  Atom+Function  
  ----- ------------  ---------------      ----- ------------  ---------------
    73    -19.518990   4 C  s                50     18.506629   3 C  s         
   137    -15.920315   8 C  s                27     15.265110   2 C  s         
    57     14.724468   3 C  px              145     -6.189667   8 C  py        
    81      4.738141   4 C  py               34      3.206685   2 C  px        
    80      2.679948   4 C  px              191     -2.291387  11 H  s         
 
 Vector   35  Occ=0.000000D+00  E= 1.146346D-01  Symmetry=a"
              MO Center=  1.2D+00, -3.8D-01, -2.8D-15, r^2= 8.3D+00
   Bfn.  Coefficient  Atom+Function         Bfn.  Coefficient  Atom+Function  
  ----- ------------  ---------------      ----- ------------  ---------------
    82      1.495593   4 C  pz              146     -1.206847   8 C  pz        
   105     -0.606022   5 O  pz              178      0.545059  10 O  pz        
    59     -0.370634   3 C  pz               36      0.298631   2 C  pz        
   143     -0.289818   8 C  pz               79      0.282413   4 C  pz        
   140     -0.248803   8 C  pz               76      0.236487   4 C  pz        
 
 Vector   36  Occ=0.000000D+00  E= 1.199090D-01  Symmetry=a'
              MO Center= -1.1D+00,  7.2D-01,  3.9D-17, r^2= 2.2D+01
   Bfn.  Coefficient  Atom+Function         Bfn.  Coefficient  Atom+Function  
  ----- ------------  ---------------      ----- ------------  ---------------
    50     11.213719   3 C  s                34     -6.540929   2 C  px        
   137      5.394113   8 C  s                73     -5.299600   4 C  s         
    58      4.249708   3 C  py                4     -3.367110   1 O  s         
   127     -3.288233   7 H  s               191      3.301289  11 H  s         
   144     -3.131737   8 C  px              118     -2.777020   6 H  s         
 
 Vector   37  Occ=0.000000D+00  E= 1.294415D-01  Symmetry=a"
              MO Center= -2.4D-01, -3.4D-01,  2.7D-16, r^2= 1.4D+01
   Bfn.  Coefficient  Atom+Function         Bfn.  Coefficient  Atom+Function  
  ----- ------------  ---------------      ----- ------------  ---------------
    36      1.847479   2 C  pz              146     -0.921636   8 C  pz        
    82     -0.880914   4 C  pz               13     -0.367826   1 O  pz        
    33     -0.239460   2 C  pz               30     -0.232680   2 C  pz        
   143      0.202048   8 C  pz              133     -0.200880   7 H  pz        
   105      0.185015   5 O  pz        
 
 Vector   38  Occ=0.000000D+00  E= 1.319298D-01  Symmetry=a'
              MO Center=  8.0D-01, -8.8D-01,  1.0D-15, r^2= 2.5D+01
   Bfn.  Coefficient  Atom+Function         Bfn.  Coefficient  Atom+Function  
  ----- ------------  ---------------      ----- ------------  ---------------
    73     29.072693   4 C  s                58    -21.822049   3 C  py        
   137    -20.729080   8 C  s                57     -8.186971   3 C  px        
   159      8.112168   9 H  s                80     -7.559303   4 C  px        
   145     -6.933074   8 C  py              191     -6.630018  11 H  s         
    35      6.465436   2 C  py               27     -5.807911   2 C  s         
 
 Vector   39  Occ=0.000000D+00  E= 1.460985D-01  Symmetry=a"
              MO Center=  1.0D+00, -2.2D-01, -3.1D-17, r^2= 1.2D+01
   Bfn.  Coefficient  Atom+Function         Bfn.  Coefficient  Atom+Function  
  ----- ------------  ---------------      ----- ------------  ---------------
    82      1.607083   4 C  pz              146     -1.355331   8 C  pz        
    79     -0.415752   4 C  pz              143      0.366491   8 C  pz        
   105     -0.279580   5 O  pz               76     -0.258844   4 C  pz        
   140      0.230790   8 C  pz              197      0.205994  11 H  pz        
   178      0.196445  10 O  pz              165     -0.192273   9 H  pz        
 
 Vector   40  Occ=0.000000D+00  E= 1.494914D-01  Symmetry=a'
              MO Center=  1.2D+00, -4.0D-02,  1.2D-15, r^2= 1.9D+01
   Bfn.  Coefficient  Atom+Function         Bfn.  Coefficient  Atom+Function  
  ----- ------------  ---------------      ----- ------------  ---------------
    27     31.975277   2 C  s                73    -29.349025   4 C  s         
    57     22.030245   3 C  px               58     18.072779   3 C  py        
   137     16.501776   8 C  s                50    -12.232561   3 C  s         
   144     -6.847774   8 C  px               35     -6.726794   2 C  py        
   159     -6.330326   9 H  s                80      6.046634   4 C  px        
 
 Vector   41  Occ=0.000000D+00  E= 1.554022D-01  Symmetry=a'
              MO Center=  2.2D+00, -1.7D+00, -6.1D-17, r^2= 1.7D+01
   Bfn.  Coefficient  Atom+Function         Bfn.  Coefficient  Atom+Function  
  ----- ------------  ---------------      ----- ------------  ---------------
    73     24.038858   4 C  s                58    -20.405816   3 C  py        
   137    -17.335037   8 C  s               191     -9.759979  11 H  s         
   144      9.527497   8 C  px               57     -8.231259   3 C  px        
    35      5.996945   2 C  py              145     -5.740101   8 C  py        
   127      3.827475   7 H  s                50      3.517544   3 C  s         
 
 Vector   42  Occ=0.000000D+00  E= 1.642180D-01  Symmetry=a'
              MO Center=  1.4D+00,  2.4D-01, -5.9D-15, r^2= 2.0D+01
   Bfn.  Coefficient  Atom+Function         Bfn.  Coefficient  Atom+Function  
  ----- ------------  ---------------      ----- ------------  ---------------
   137     26.554494   8 C  s                58     24.898483   3 C  py        
    73    -18.250892   4 C  s                80     12.466600   4 C  px        
    27    -10.602863   2 C  s               159     -8.881779   9 H  s         
   191      6.997427  11 H  s                57     -5.679224   3 C  px        
   144     -4.970667   8 C  px              145      4.502025   8 C  py        
 
 Vector   43  Occ=0.000000D+00  E= 1.744858D-01  Symmetry=a'
              MO Center= -1.1D+00, -1.1D-01, -1.3D-14, r^2= 2.0D+01
   Bfn.  Coefficient  Atom+Function         Bfn.  Coefficient  Atom+Function  
  ----- ------------  ---------------      ----- ------------  ---------------
   137    -30.749827   8 C  s                27     28.337891   2 C  s         
    57     18.559424   3 C  px               58    -17.794734   3 C  py        
    35      8.180521   2 C  py              127      7.800647   7 H  s         
   145     -6.379621   8 C  py                4     -5.856820   1 O  s         
    73     -5.547879   4 C  s               169      4.940686  10 O  s         
 
 Vector   44  Occ=0.000000D+00  E= 1.857852D-01  Symmetry=a'
              MO Center=  8.6D-01, -4.0D-01, -1.3D-15, r^2= 1.9D+01
   Bfn.  Coefficient  Atom+Function         Bfn.  Coefficient  Atom+Function  
  ----- ------------  ---------------      ----- ------------  ---------------
    58     22.929384   3 C  py              137     22.467640   8 C  s         
    73    -14.594071   4 C  s                35     -7.644329   2 C  py        
    81     -4.329075   4 C  py               50     -4.227948   3 C  s         
   159      3.813488   9 H  s               191     -3.277459  11 H  s         
   158      2.692188   9 H  s               190     -2.675704  11 H  s         
 
 Vector   45  Occ=0.000000D+00  E= 1.906338D-01  Symmetry=a"
              MO Center=  2.6D-01, -2.3D-01,  1.1D-15, r^2= 1.4D+01
   Bfn.  Coefficient  Atom+Function         Bfn.  Coefficient  Atom+Function  
  ----- ------------  ---------------      ----- ------------  ---------------
    59      7.357934   3 C  pz               82     -2.637596   4 C  pz        
    36     -2.576655   2 C  pz              146     -2.517783   8 C  pz        
   105      0.229460   5 O  pz               33     -0.189748   2 C  pz        
   178      0.182843  10 O  pz               79     -0.166850   4 C  pz        
   143     -0.160951   8 C  pz        
 
 Vector   46  Occ=0.000000D+00  E= 2.081187D-01  Symmetry=a'
              MO Center= -1.0D+00, -1.6D-02,  1.5D-16, r^2= 1.4D+01
   Bfn.  Coefficient  Atom+Function         Bfn.  Coefficient  Atom+Function  
  ----- ------------  ---------------      ----- ------------  ---------------
    50     26.764983   3 C  s                27    -14.240919   2 C  s         
   137    -11.055921   8 C  s                73     -4.054121   4 C  s         
    58     -3.657130   3 C  py                4      3.345441   1 O  s         
    35      3.264966   2 C  py               34     -3.128707   2 C  px        
   145     -2.749680   8 C  py              190     -2.126205  11 H  s         
 
 Vector   47  Occ=0.000000D+00  E= 2.286382D-01  Symmetry=a'
              MO Center= -1.4D+00,  6.6D-01, -3.4D-16, r^2= 1.8D+01
   Bfn.  Coefficient  Atom+Function         Bfn.  Coefficient  Atom+Function  
  ----- ------------  ---------------      ----- ------------  ---------------
    73     18.107529   4 C  s               137    -15.988268   8 C  s         
    58    -15.215238   3 C  py               35      8.387690   2 C  py        
    34     -7.453090   2 C  px               27      6.359074   2 C  s         
     4     -6.271587   1 O  s                11      5.794554   1 O  px        
    96     -4.754458   5 O  s                80     -4.670173   4 C  px        
 
 Vector   48  Occ=0.000000D+00  E= 2.377326D-01  Symmetry=a"
              MO Center= -1.5D-01,  4.5D-01,  7.3D-16, r^2= 9.0D+00
   Bfn.  Coefficient  Atom+Function         Bfn.  Coefficient  Atom+Function  
  ----- ------------  ---------------      ----- ------------  ---------------
    13      1.265658   1 O  pz               36     -0.904572   2 C  pz        
   105      0.699138   5 O  pz              146      0.606755   8 C  pz        
    33     -0.551598   2 C  pz              165     -0.432381   9 H  pz        
   133     -0.421921   7 H  pz               56      0.407045   3 C  pz        
    66      0.359817   3 C  d -1            197     -0.358846  11 H  pz        
 
 Vector   49  Occ=0.000000D+00  E= 2.565454D-01  Symmetry=a"
              MO Center= -8.3D-01,  1.2D-01,  1.9D-14, r^2= 1.3D+01
   Bfn.  Coefficient  Atom+Function         Bfn.  Coefficient  Atom+Function  
  ----- ------------  ---------------      ----- ------------  ---------------
    13      1.829402   1 O  pz               36     -1.676249   2 C  pz        
    59      1.416107   3 C  pz              178     -1.131979  10 O  pz        
    82     -0.683788   4 C  pz              146      0.583830   8 C  pz        
   105     -0.501744   5 O  pz               68     -0.483946   3 C  d  1      
    43     -0.413748   2 C  d -1            155      0.354846   8 C  d  1      
 
 Vector   50  Occ=0.000000D+00  E= 2.581411D-01  Symmetry=a'
              MO Center= -2.7D-01, -8.4D-01, -1.0D-15, r^2= 1.8D+01
   Bfn.  Coefficient  Atom+Function         Bfn.  Coefficient  Atom+Function  
  ----- ------------  ---------------      ----- ------------  ---------------
   137     47.481313   8 C  s                73    -25.699440   4 C  s         
    58     24.051317   3 C  py               27    -13.148985   2 C  s         
   145     10.639239   8 C  py               50     -8.895927   3 C  s         
   169     -7.067664  10 O  s                80      6.617724   4 C  px        
   144     -6.407590   8 C  px              191      6.311915  11 H  s         
 
 Vector   51  Occ=0.000000D+00  E= 2.654814D-01  Symmetry=a'
              MO Center=  2.0D-01,  6.4D-02, -1.0D-14, r^2= 1.5D+01
   Bfn.  Coefficient  Atom+Function         Bfn.  Coefficient  Atom+Function  
  ----- ------------  ---------------      ----- ------------  ---------------
    73    -46.567568   4 C  s                27     42.527582   2 C  s         
    57     26.852292   3 C  px               50     19.049902   3 C  s         
   137    -13.606272   8 C  s                81      7.588514   4 C  py        
    80      6.520582   4 C  px               34      6.366345   2 C  px        
    96      5.338884   5 O  s                 4     -5.209229   1 O  s         
 
 Vector   52  Occ=0.000000D+00  E= 2.712876D-01  Symmetry=a'
              MO Center= -8.7D-01,  5.6D-01,  1.8D-15, r^2= 1.6D+01
   Bfn.  Coefficient  Atom+Function         Bfn.  Coefficient  Atom+Function  
  ----- ------------  ---------------      ----- ------------  ---------------
   137    -30.950672   8 C  s                73     30.241879   4 C  s         
    58    -22.382661   3 C  py               50    -21.467142   3 C  s         
    27     14.517954   2 C  s                34      9.918094   2 C  px        
    80     -8.130800   4 C  px              145     -5.937946   8 C  py        
   191     -5.761576  11 H  s               144      5.666911   8 C  px        
 
 Vector   53  Occ=0.000000D+00  E= 2.813943D-01  Symmetry=a'
              MO Center=  4.4D-02,  2.9D-02,  4.4D-16, r^2= 1.7D+01
   Bfn.  Coefficient  Atom+Function         Bfn.  Coefficient  Atom+Function  
  ----- ------------  ---------------      ----- ------------  ---------------
    27     54.939406   2 C  s                50    -32.716312   3 C  s         
    73    -29.801966   4 C  s                57     27.069561   3 C  px        
    34     11.708122   2 C  px                4     -6.408984   1 O  s         
    81      4.995600   4 C  py               96      4.803743   5 O  s         
   144     -4.259577   8 C  px               58      4.212743   3 C  py        
 
 Vector   54  Occ=0.000000D+00  E= 2.969596D-01  Symmetry=a"
              MO Center=  5.8D-02, -5.3D-01, -4.3D-15, r^2= 1.2D+01
   Bfn.  Coefficient  Atom+Function         Bfn.  Coefficient  Atom+Function  
  ----- ------------  ---------------      ----- ------------  ---------------
    59      2.654192   3 C  pz               36     -1.888860   2 C  pz        
   146     -1.644967   8 C  pz              178      1.556400  10 O  pz        
    82     -1.279322   4 C  pz               13      0.974185   1 O  pz        
   105      0.924569   5 O  pz               68      0.493877   3 C  d  1      
    33     -0.416164   2 C  pz               45      0.347792   2 C  d  1      
 
 Vector   55  Occ=0.000000D+00  E= 3.070957D-01  Symmetry=a'
              MO Center= -3.3D-02,  2.5D-02,  6.2D-15, r^2= 1.2D+01
   Bfn.  Coefficient  Atom+Function         Bfn.  Coefficient  Atom+Function  
  ----- ------------  ---------------      ----- ------------  ---------------
    27     25.705652   2 C  s                50    -24.598600   3 C  s         
    73     23.506174   4 C  s               137    -20.658490   8 C  s         
    58    -18.746008   3 C  py               57      6.457353   3 C  px        
    80     -5.466212   4 C  px              190      4.586495  11 H  s         
   136      4.461563   8 C  s               126     -4.273188   7 H  s         
 
 Vector   56  Occ=0.000000D+00  E= 3.240773D-01  Symmetry=a"
              MO Center=  2.1D-01,  5.3D-01,  6.1D-15, r^2= 1.4D+01
   Bfn.  Coefficient  Atom+Function         Bfn.  Coefficient  Atom+Function  
  ----- ------------  ---------------      ----- ------------  ---------------
   105      2.100493   5 O  pz               82     -1.774391   4 C  pz        
   146      1.642610   8 C  pz              178     -1.631759  10 O  pz        
    36      1.353615   2 C  pz               13     -0.956431   1 O  pz        
    59     -0.873375   3 C  pz               89     -0.401856   4 C  d -1      
   197      0.300672  11 H  pz              155      0.266242   8 C  d  1      
 
 Vector   57  Occ=0.000000D+00  E= 3.247298D-01  Symmetry=a'
              MO Center=  1.1D+00, -3.7D-01, -9.8D-16, r^2= 1.2D+01
   Bfn.  Coefficient  Atom+Function         Bfn.  Coefficient  Atom+Function  
  ----- ------------  ---------------      ----- ------------  ---------------
   137     26.338777   8 C  s                58     23.537144   3 C  py        
    73    -18.012801   4 C  s               144     -6.349535   8 C  px        
    35     -5.793808   2 C  py               27     -5.690244   2 C  s         
   191      5.337298  11 H  s                80      4.222550   4 C  px        
    26     -3.789853   2 C  s                54     -3.393281   3 C  px        
 
 Vector   58  Occ=0.000000D+00  E= 3.348442D-01  Symmetry=a'
              MO Center=  7.9D-01, -5.5D-01,  2.3D-15, r^2= 1.6D+01
   Bfn.  Coefficient  Atom+Function         Bfn.  Coefficient  Atom+Function  
  ----- ------------  ---------------      ----- ------------  ---------------
    73     36.895981   4 C  s                58    -32.643341   3 C  py        
   137    -32.350275   8 C  s                27    -15.495063   2 C  s         
    50     14.482343   3 C  s                57    -10.646422   3 C  px        
    35      9.779831   2 C  py               80     -8.926082   4 C  px        
   145     -7.571259   8 C  py              144      6.735991   8 C  px        
 
 Vector   59  Occ=0.000000D+00  E= 3.485126D-01  Symmetry=a'
              MO Center= -1.8D-02, -8.9D-01, -1.7D-15, r^2= 1.5D+01
   Bfn.  Coefficient  Atom+Function         Bfn.  Coefficient  Atom+Function  
  ----- ------------  ---------------      ----- ------------  ---------------
    27     13.712548   2 C  s                57     10.091488   3 C  px        
    73     -9.654177   4 C  s               145     -4.895432   8 C  py        
   137     -4.803045   8 C  s                72     -4.767429   4 C  s         
    80      4.783592   4 C  px               26      4.428387   2 C  s         
    34      4.255523   2 C  px              177      3.646386  10 O  py        
 
 Vector   60  Occ=0.000000D+00  E= 3.611960D-01  Symmetry=a'
              MO Center= -8.9D-01, -5.5D-02,  3.3D-15, r^2= 1.1D+01
   Bfn.  Coefficient  Atom+Function         Bfn.  Coefficient  Atom+Function  
  ----- ------------  ---------------      ----- ------------  ---------------
    50     19.858689   3 C  s               137    -17.286296   8 C  s         
    35      7.584017   2 C  py               58     -7.584370   3 C  py        
     4     -5.183714   1 O  s               127      3.344724   7 H  s         
    72     -3.252119   4 C  s               126      3.123259   7 H  s         
    55      3.076002   3 C  py              145     -2.851174   8 C  py        
 
 Vector   61  Occ=0.000000D+00  E= 3.684065D-01  Symmetry=a'
              MO Center=  1.6D-01,  5.1D-01,  1.4D-16, r^2= 1.4D+01
   Bfn.  Coefficient  Atom+Function         Bfn.  Coefficient  Atom+Function  
  ----- ------------  ---------------      ----- ------------  ---------------
    73     12.518909   4 C  s               137     -9.376929   8 C  s         
    80     -7.103350   4 C  px               58     -5.767250   3 C  py        
    50     -5.722134   3 C  s               191     -5.679932  11 H  s         
   159      5.445064   9 H  s               145     -5.383377   8 C  py        
    81     -4.346065   4 C  py              144      3.794438   8 C  px        
 
 Vector   62  Occ=0.000000D+00  E= 3.807883D-01  Symmetry=a"
              MO Center= -1.2D+00,  1.5D-01,  1.4D-16, r^2= 9.6D+00
   Bfn.  Coefficient  Atom+Function         Bfn.  Coefficient  Atom+Function  
  ----- ------------  ---------------      ----- ------------  ---------------
    59      1.677008   3 C  pz               36     -1.315317   2 C  pz        
    82     -1.294868   4 C  pz              105      1.164764   5 O  pz        
   133      1.061555   7 H  pz              124      0.999897   6 H  pz        
    33     -0.775091   2 C  pz              178     -0.730434  10 O  pz        
   146      0.562977   8 C  pz              197     -0.498104  11 H  pz        
 
 Vector   63  Occ=0.000000D+00  E= 3.888886D-01  Symmetry=a'
              MO Center=  1.6D+00, -6.1D-02, -5.3D-16, r^2= 9.9D+00
   Bfn.  Coefficient  Atom+Function         Bfn.  Coefficient  Atom+Function  
  ----- ------------  ---------------      ----- ------------  ---------------
   137     22.719449   8 C  s                57    -14.300543   3 C  px        
    50    -12.710054   3 C  s                27    -11.860747   2 C  s         
    73     11.085930   4 C  s                58      9.540543   3 C  py        
    54      6.490712   3 C  px               26      6.429016   2 C  s         
    80      5.755206   4 C  px               31      4.557626   2 C  px        
 
 Vector   64  Occ=0.000000D+00  E= 3.936176D-01  Symmetry=a'
              MO Center=  1.0D+00,  5.7D-01,  1.4D-16, r^2= 1.6D+01
   Bfn.  Coefficient  Atom+Function         Bfn.  Coefficient  Atom+Function  
  ----- ------------  ---------------      ----- ------------  ---------------
   137     28.791643   8 C  s                58     26.655294   3 C  py        
    73    -20.243545   4 C  s               144     -8.854621   8 C  px        
    27     -7.319938   2 C  s                50     -5.832460   3 C  s         
    81     -5.671378   4 C  py               35     -4.993117   2 C  py        
   191      4.574072  11 H  s                80      4.412194   4 C  px        
 
 Vector   65  Occ=0.000000D+00  E= 4.154311D-01  Symmetry=a'
              MO Center=  1.8D-01, -7.7D-01, -1.5D-15, r^2= 1.2D+01
   Bfn.  Coefficient  Atom+Function         Bfn.  Coefficient  Atom+Function  
  ----- ------------  ---------------      ----- ------------  ---------------
   137     20.041747   8 C  s                27    -16.984966   2 C  s         
    58     12.876824   3 C  py              169     -7.532255  10 O  s         
    57     -7.440187   3 C  px               26      4.722709   2 C  s         
    49      4.408752   3 C  s                81     -4.108092   4 C  py        
    34     -3.986837   2 C  px               96     -3.965573   5 O  s         
 
 Vector   66  Occ=0.000000D+00  E= 4.201486D-01  Symmetry=a"
              MO Center=  1.8D+00, -2.3D-01, -1.3D-16, r^2= 5.8D+00
   Bfn.  Coefficient  Atom+Function         Bfn.  Coefficient  Atom+Function  
  ----- ------------  ---------------      ----- ------------  ---------------
   165      1.641504   9 H  pz               82     -1.335351   4 C  pz        
    79     -1.325756   4 C  pz              197      1.304145  11 H  pz        
    59      1.271627   3 C  pz              143     -1.084315   8 C  pz        
    68     -0.721965   3 C  d  1            146     -0.687430   8 C  pz        
   155      0.565694   8 C  d  1            105      0.459451   5 O  pz        
 
 Vector   67  Occ=0.000000D+00  E= 4.338948D-01  Symmetry=a'
              MO Center= -8.8D-01,  5.4D-01,  3.6D-16, r^2= 1.3D+01
   Bfn.  Coefficient  Atom+Function         Bfn.  Coefficient  Atom+Function  
  ----- ------------  ---------------      ----- ------------  ---------------
    27     27.417037   2 C  s                57     11.340696   3 C  px        
     4    -10.689557   1 O  s                50     -9.050475   3 C  s         
   117      5.962276   6 H  s                11      5.710991   1 O  px        
   137     -5.067307   8 C  s                73     -4.755776   4 C  s         
    80     -4.494758   4 C  px               31     -4.343782   2 C  px        
 
 Vector   68  Occ=0.000000D+00  E= 4.416913D-01  Symmetry=a"
              MO Center=  1.3D+00, -9.2D-01,  3.2D-15, r^2= 8.0D+00
   Bfn.  Coefficient  Atom+Function         Bfn.  Coefficient  Atom+Function  
  ----- ------------  ---------------      ----- ------------  ---------------
   197      1.664759  11 H  pz              143     -1.244501   8 C  pz        
   146     -1.170018   8 C  pz              133      0.986562   7 H  pz        
   165     -0.938184   9 H  pz               59      0.647763   3 C  pz        
    43      0.596538   2 C  d -1             82      0.561621   4 C  pz        
    13     -0.529246   1 O  pz               79      0.492360   4 C  pz        
 
 Vector   69  Occ=0.000000D+00  E= 4.614640D-01  Symmetry=a"
              MO Center= -1.7D+00,  8.7D-02, -3.8D-15, r^2= 7.7D+00
   Bfn.  Coefficient  Atom+Function         Bfn.  Coefficient  Atom+Function  
  ----- ------------  ---------------      ----- ------------  ---------------
   133      1.626779   7 H  pz               13      1.513419   1 O  pz        
   124     -1.388937   6 H  pz               59     -1.182246   3 C  pz        
   146      0.937142   8 C  pz               33     -0.836123   2 C  pz        
    82      0.766727   4 C  pz               36     -0.659707   2 C  pz        
    79      0.539047   4 C  pz              105     -0.522848   5 O  pz        
 
 Vector   70  Occ=0.000000D+00  E= 4.630174D-01  Symmetry=a'
              MO Center=  6.8D-02, -2.7D-01, -4.1D-16, r^2= 1.1D+01
   Bfn.  Coefficient  Atom+Function         Bfn.  Coefficient  Atom+Function  
  ----- ------------  ---------------      ----- ------------  ---------------
    73    -21.569046   4 C  s                27     19.972716   2 C  s         
    58     11.068330   3 C  py              137      8.268739   8 C  s         
    72      7.360999   4 C  s                57      7.256993   3 C  px        
    96      7.216440   5 O  s                34      6.368061   2 C  px        
    26     -5.874880   2 C  s                 4     -5.608771   1 O  s         
 
 Vector   71  Occ=0.000000D+00  E= 4.716735D-01  Symmetry=a'
              MO Center= -4.8D-01,  1.3D-01, -1.3D-15, r^2= 1.2D+01
   Bfn.  Coefficient  Atom+Function         Bfn.  Coefficient  Atom+Function  
  ----- ------------  ---------------      ----- ------------  ---------------
    73     27.158287   4 C  s               137    -24.657269   8 C  s         
    58    -15.076159   3 C  py               27     -7.847715   2 C  s         
   169      7.671876  10 O  s                80     -7.263855   4 C  px        
    57     -7.004994   3 C  px               96     -6.101264   5 O  s         
    72     -5.896627   4 C  s               144      5.120404   8 C  px        
 
 Vector   72  Occ=0.000000D+00  E= 4.847830D-01  Symmetry=a'
              MO Center= -2.2D-01,  2.2D-01, -5.6D-16, r^2= 1.0D+01
   Bfn.  Coefficient  Atom+Function         Bfn.  Coefficient  Atom+Function  
  ----- ------------  ---------------      ----- ------------  ---------------
   137    -20.745794   8 C  s                27     19.113891   2 C  s         
     4    -12.720512   1 O  s                58    -10.644932   3 C  py        
    57      8.846039   3 C  px              136      8.487826   8 C  s         
    73      7.372611   4 C  s                72     -7.299444   4 C  s         
   142      6.673284   8 C  py               35      6.357304   2 C  py        
 
 Vector   73  Occ=0.000000D+00  E= 5.181658D-01  Symmetry=a'
              MO Center= -3.9D-02,  4.2D-01, -8.5D-16, r^2= 9.7D+00
   Bfn.  Coefficient  Atom+Function         Bfn.  Coefficient  Atom+Function  
  ----- ------------  ---------------      ----- ------------  ---------------
    27     19.130430   2 C  s                50    -18.677967   3 C  s         
    73    -13.501304   4 C  s                 4     -7.632285   1 O  s         
    57      7.496823   3 C  px               26     -7.219573   2 C  s         
    96      7.082741   5 O  s               126      6.652571   7 H  s         
    34      5.560646   2 C  px               77     -5.139941   4 C  px        
 

 center of mass
 --------------
 x =   0.00827997 y =   0.01441407 z =   0.00000000

 moments of inertia (a.u.)
 ------------------
         879.291264786851          -0.000000000000           0.000000000000
          -0.000000000000         390.812218875509           0.000000000000
           0.000000000000           0.000000000000        1270.103483662360
 
  Mulliken analysis of the total density
  --------------------------------------

    Atom       Charge   Shell Charges
 -----------   ------   -------------------------------------------------------
    1 O    8     8.77   2.00  0.83  1.00  0.24  2.81  1.73  0.12  0.02  0.02
    2 C    6     4.89   2.01  0.69  0.83 -0.44  1.88 -0.10  0.04  0.15 -0.16
    3 C    6     6.19   2.01  0.64  0.37 -0.04  2.11 -0.14  0.75  0.08  0.41
    4 C    6     5.03   2.01  0.69  0.78 -0.43  1.88  0.00  0.07  0.17 -0.13
    5 O    8     8.81   2.00  0.84  1.06  0.21  2.75  1.80  0.11  0.02  0.03
    6 H    1     0.70   0.69 -0.05 -0.00  0.07 -0.01
    7 H    1     1.48   0.77  0.69  0.01  0.03 -0.01
    8 C    6     4.53   2.01  0.69  0.42 -0.50  1.89 -0.08  0.05  0.17 -0.12
    9 H    1     1.28   0.78  0.50 -0.01  0.03 -0.01
   10 O    8     8.84   2.00  0.84  1.05  0.20  2.75  1.83  0.12  0.02  0.03
   11 H    1     1.47   0.84  0.64 -0.01  0.03 -0.03
 
       Multipole analysis of the density wrt the origin
       ------------------------------------------------
 
     L   x y z        total         open         nuclear
     -   - - -        -----         ----         -------
     0   0 0 0     -0.000000      0.000000     52.000000
 
     1   1 0 0     -0.642230      0.000000     -0.000000
     1   0 1 0     -0.274981      0.000000     -0.000000
     1   0 0 1     -0.000000      0.000000      0.000000
 
     2   2 0 0    -18.729406      0.000000    226.924462
     2   1 1 0     -6.442332      0.000000     -6.864440
     2   1 0 1      0.000000      0.000000      0.000000
     2   0 2 0    -44.534843      0.000000    450.125342
     2   0 1 1     -0.000000      0.000000      0.000000
     2   0 0 2    -29.964208      0.000000      0.000000
 
                   NWChem MP2 Semi-direct Energy/Gradient Module
                   ---------------------------------------------
 
 
                                   H,CHO,H Open
 
 

int_init: setting std/high accuracies to  1.0D-16  1.0D-32
  Basis functions       =    197
  Molecular orbitals    =    197
  Frozen core           =      7
  Frozen virtuals       =      0
  Active alpha occupied =     19
  Active beta occupied  =     19
  Active alpha virtual  =    171
  Active beta virtual   =    171
  Use MO symmetry       = T
  Use skeleton AO sym   = T

  AO/Fock/Back tols     =   1.0D-15  1.0D-15  1.0D-15

 GA uses MA = F    GA memory limited = T

 Available: 
  local mem=  3.77D+08
 global mem=  1.23D+08
 local disk=  0.00D+00

int_init: setting std/high accuracies to  1.0D-16  1.0D-32
  mp2_memr nvloc                     16
  nvloc new                     16
   1 passes of  19:        5242880                     332454                  25420257.
   1 passes of  19: M    376556197           G      122954509           F     371313317.
 
 Semi-direct pass number   1 of   1  for RHF alpha+beta  at       79.3s

int_init: setting std/high accuracies to  1.0D-16  1.0D-32
  vrange nnbf                  19378
  mp2_eaftype                     76  avail_ma_in_mb                   3282
 EAF : mp2_eaftype filesize          76   10047709.
  mp2_eaf for mointskh                      76
Node 0 wrote     47.1 Mb in      0.1 s     Agg I/O rate:  4198.4 Mb/s
 Done moints_semi at       87.9s
  mp2_eaftype                     76  avail_ma_in_mb                   3207
 EAF : mp2_eaftype filesize          76   10047709.
  mp2_eaf for kh                     76
  mp2_eaftype                     15  avail_ma_in_mb                   3206
 EAF : mp2_eaftype filesize          15    1975392.
  mp2_eaf for ta tb                     15
  mp2_eaf for ta                      15
  mp2_eaf for tb                      15
 Done maket at       88.4s
 Done pijab at       88.4s
 Done wijab at       88.5s
 Done lai at       90.4s

int_init: setting std/high accuracies to  1.0D-16  1.0D-32
  mp2_eaftype                     86  avail_ma_in_mb                   3176
 EAF : mp2_eaftype filesize          86   11307229.
  mp2_eaf for 2pdm                      86
 Done nonsep at      115.6s
 Done multipass loop at      115.6s


          -------------------------------------------
          SCF energy                -378.381026367638
          Correlation energy          -1.121226413679
          Singlet pairs               -0.670608817079
          Triplet pairs               -0.450617596601
          Total MP2 energy          -379.502252781317
          -------------------------------------------



          ---------------------------------------------------
                    Spin Component Scaled (SCS) MP2
          Same spin pairs                     -0.300411731067
          Same spin scaling factor             0.333333333333
          Opposite spin pairs                 -0.820814682612
          Opposite spin scaling fact.          1.200000000000
          SCS-MP2 correlation energy          -1.085114862824
          Total SCS-MP2 energy              -379.466141230462
          ---------------------------------------------------


int_init: setting std/high accuracies to  1.0D-16  1.0D-32
                                NWChem CPHF Module
                                ------------------
 
 

int_init: setting std/high accuracies to  1.0D-16  1.0D-32
    scftype = RHF 
    nclosed =   26
      nopen =    0
  variables =     4446
  tolerance =   1.0D-06
  max. iter =  999

 Warning: symmetry breaking in RHF:   5.429622351505525E-014
 SCF residual:   8.773961010865359E-011

            ----- linear solve (tol: 1.0E-06 prod-acc: 3.3E-14) -----

               iter nbas    rnorm     rnorm-scal   ratio     time
               ---- ---- ----------- ----------- --------- -------
                  1    1  9.6353E-02  4.3320E-01    0.0000   123.4
                  2    2  2.7625E-02  1.2420E-01    0.2867   126.3
                  3    3  9.8587E-03  4.4325E-02    0.3569   129.1
                  4    4  4.0659E-03  1.8280E-02    0.4124   131.8
                  5    5  1.6770E-03  7.5398E-03    0.4125   134.5
                  6    6  6.1060E-04  2.7452E-03    0.3641   137.1
                  7    7  2.7905E-04  1.2546E-03    0.4570   139.8
                  8    8  8.9117E-05  4.0067E-04    0.3194   142.3
                  9    9  3.0597E-05  1.3756E-04    0.3433   144.9
                 10   10  8.9858E-06  4.0400E-05    0.2937   147.3
                 11   11  3.2767E-06  1.4732E-05    0.3647   149.6
                 12   12  1.0724E-06  4.8216E-06    0.3273   151.8
                 13   13  4.3508E-07  1.9561E-06    0.4057   154.1
                 14   14  1.3138E-07  5.9070E-07    0.3020   156.3

 CPHF converged to   5.9D-07 in   14 iters


int_init: setting std/high accuracies to  1.0D-16  1.0D-32
                Dipole Moments (a.u.)
                --------------
         Nuclear       SCF       SCF+MP2
       ----------- ----------- -----------
 X      -0.000000   -0.642230   -0.698668
 Y      -0.000000   -0.274981   -0.159413
 Z       0.000000   -0.000000   -0.000000
 

 MP2 RHF      natural orbital occupation numbers


              1      
    1    2.0000
    2    2.0000
    3    2.0000
    4    2.0000
    5    2.0000
    6    2.0000
    7    2.0000
    8    1.9868
    9    1.9857
   10    1.9852
   11    1.9807
   12    1.9765
   13    1.9743
   14    1.9724
   15    1.9675
   16    1.9650
   17    1.9642
   18    1.9637
   19    1.9592
   20    1.9589
   21    1.9580
   22    1.9558
   23    1.9530
   24    1.9441
   25    1.9371
   26    1.9244
   27    0.0637
   28    0.0607
   29    0.0374
   30    0.0352
   31    0.0309
   32    0.0302
   33    0.0290
   34    0.0255
   35    0.0248
   36    0.0206
   37    0.0189
   38    0.0168
   39    0.0156
   40    0.0151
   41    0.0129
   42    0.0122
   43    0.0120
   44    0.0109
   45    0.0104
   46    0.0096
   47    0.0090
   48    0.0086
   49    0.0085
   50    0.0079
   51    0.0079
   52    0.0075
   53    0.0072
   54    0.0070
   55    0.0068
   56    0.0066
   57    0.0062
   58    0.0062
   59    0.0059
   60    0.0057
   61    0.0054
   62    0.0052
   63    0.0051
   64    0.0047
   65    0.0041
   66    0.0040
   67    0.0035
   68    0.0034
   69    0.0032
   70    0.0031
   71    0.0028
   72    0.0026
   73    0.0025
   74    0.0024
   75    0.0023
   76    0.0022
   77    0.0021
   78    0.0020
   79    0.0017
   80    0.0016
   81    0.0014
   82    0.0014
   83    0.0013
   84    0.0013
   85    0.0012
   86    0.0011
   87    0.0011
   88    0.0010
   89    0.0010
   90    0.0009
   91    0.0009
   92    0.0008
   93    0.0008
   94    0.0007
   95    0.0007
   96    0.0007
   97    0.0006
   98    0.0006
   99    0.0006
  100    0.0005
  101    0.0005
  102    0.0005
  103    0.0005
  104    0.0005
  105    0.0005
  106    0.0005
  107    0.0004
  108    0.0004
  109    0.0004
  110    0.0004
  111    0.0004
  112    0.0004
  113    0.0004
  114    0.0004
  115    0.0003
  116    0.0003
  117    0.0003
  118    0.0003
  119    0.0003
  120    0.0003
  121    0.0003
  122    0.0003
  123    0.0002
  124    0.0002
  125    0.0002
  126    0.0002
  127    0.0002
  128    0.0002
  129    0.0002
  130    0.0002
  131    0.0002
  132    0.0002
  133    0.0001
  134    0.0001
  135    0.0001
  136    0.0001
  137    0.0001
  138    0.0001
  139    0.0001
  140    0.0001
  141    0.0001
  142    0.0001
  143    0.0001
  144    0.0001
  145    0.0001
  146    0.0001
  147    0.0001
  148    0.0001
  149    0.0001
  150    0.0001
  151    0.0001
  152    0.0001
  153    0.0000
  154    0.0000
  155    0.0000
  156    0.0000
  157    0.0000
  158    0.0000
  159    0.0000
  160    0.0000
  161    0.0000
  162    0.0000
  163    0.0000
  164    0.0000
  165    0.0000
  166    0.0000
  167    0.0000
  168    0.0000
  169    0.0000
  170    0.0000
  171    0.0000
  172    0.0000
  173    0.0000
  174    0.0000
  175    0.0000
  176    0.0000
  177    0.0000
  178    0.0000
  179    0.0000
  180    0.0000
  181    0.0000
  182    0.0000
  183    0.0000
  184    0.0000
  185   -0.0000
  186   -0.0000
  187   -0.0000
  188   -0.0000
  189   -0.0000
  190   -0.0000
  191   -0.0000
  192   -0.0001
  193   -0.0001
  194   -0.0001
  195   -0.0002
  196   -0.0003
  197   -0.0003
 
  MP2 natural orbitals output to ./8cO.mp2nos
 

int_init: setting std/high accuracies to  1.0D-16  1.0D-32
  Using symmetry

int_init: setting std/high accuracies to  1.0D-16  1.0D-32


                         mp2 ENERGY GRADIENTS

[...]
          15     0.00000     0.00000    -0.00264     0.00000     0.00000     0.02149
          16    -0.11123    -0.02541     0.00000    -0.05175    -0.02720     0.00000
          17    -0.14514    -0.02824     0.00000    -0.01410     0.29560     0.00000
          18     0.00000     0.00000     0.85047     0.00000     0.00000    -0.02519
          19     0.12200     0.02150     0.00000    -0.07524    -0.20513     0.00000
          20     0.07490     0.02183     0.00000     0.07402    -0.02834     0.00000
          21     0.00000     0.00000    -0.18885     0.00000     0.00000     0.60614
          22     0.00238    -0.05783     0.00000     0.16749     0.04397     0.00000
          23    -0.01851    -0.10045     0.00000    -0.11861    -0.02882     0.00000
          24     0.00000     0.00000     0.00099     0.00000     0.00000     0.07732
          25     0.12491     0.02391     0.00000    -0.08853     0.22607     0.00000
          26     0.03513     0.11747     0.00000    -0.01409     0.13970     0.00000
          27     0.00000     0.00000    -0.14827     0.00000     0.00000     0.30726
          28     0.01538    -0.01287     0.00000    -0.03215    -0.00808     0.00000
          29    -0.02820    -0.15631     0.00000     0.05985     0.01139     0.00000
          30     0.00000     0.00000     0.00146     0.00000     0.00000    -0.02231
          31     0.00299    -0.05667     0.00000     0.14453     0.03605     0.00000
          32    -0.02276    -0.09828     0.00000    -0.23313    -0.08601     0.00000
          33     0.00000     0.00000    -0.04804     0.00000     0.00000    -0.35354

                   19          20          21          22          23          24
 
 P.Frequency     1001.50     1017.54     1182.48     1267.65     1309.90     1387.12
 
           1     0.00000     0.00000    -0.00148    -0.04096    -0.03177    -0.03590
           2     0.00000     0.00000    -0.01310     0.12721    -0.08351     0.00723
           3     0.01485     0.00016     0.00000     0.00000     0.00000     0.00000
           4     0.00000     0.00000    -0.01543     0.04159     0.02162     0.02611
           5     0.00000     0.00000    -0.00499    -0.14125     0.08735    -0.06297
           6    -0.08412    -0.00251     0.00000     0.00000     0.00000     0.00000
           7     0.00000     0.00000     0.02734     0.04882     0.03056     0.12957
           8     0.00000     0.00000     0.19478    -0.06712    -0.09788    -0.00752
           9     0.02314     0.09091     0.00000     0.00000     0.00000     0.00000
          10     0.00000     0.00000    -0.04326    -0.03142    -0.02197    -0.02153
          11     0.00000     0.00000    -0.01520     0.00272    -0.01073     0.00388
          12     0.10708    -0.12030     0.00000     0.00000     0.00000     0.00000
          13     0.00000     0.00000    -0.00969     0.01020     0.01292    -0.00743
          14     0.00000     0.00000    -0.03113     0.00010     0.00970     0.00802
          15    -0.02569     0.02808     0.00000     0.00000     0.00000     0.00000
          16     0.00000     0.00000    -0.01881    -0.05263    -0.05904    -0.04344
          17     0.00000     0.00000     0.40233     0.14644     0.72859     0.20565
          18    -0.05354    -0.01178     0.00000     0.00000     0.00000     0.00000
          19     0.00000     0.00000     0.26259     0.32556     0.10140    -0.44407
          20     0.00000     0.00000    -0.24721    -0.40196     0.02457     0.34964
          21     0.53432    -0.02608     0.00000     0.00000     0.00000     0.00000
          22     0.00000     0.00000     0.05031    -0.04716    -0.01438    -0.05728
          23     0.00000     0.00000    -0.05081     0.03787     0.00908     0.04926
          24    -0.10016    -0.12710     0.00000     0.00000     0.00000     0.00000
          25     0.00000     0.00000    -0.11134    -0.01213     0.06132    -0.14782
          26     0.00000     0.00000    -0.18275     0.05069     0.19574    -0.31071
          27    -0.43406     0.48366     0.00000     0.00000     0.00000     0.00000
          28     0.00000     0.00000    -0.01230     0.00774    -0.00079     0.03403
          29     0.00000     0.00000    -0.03054     0.00387     0.01059     0.00431
          30     0.02443     0.03039     0.00000     0.00000     0.00000     0.00000
          31     0.00000     0.00000     0.01441    -0.03619     0.01962    -0.13240
          32     0.00000     0.00000    -0.25968     0.12067     0.19938    -0.34823
          33     0.38133     0.51690     0.00000     0.00000     0.00000     0.00000

                   25          26          27          28          29          30
 
 P.Frequency     1422.68     1438.14     1677.88     1689.23     1749.33     2946.81
 
           1     0.00846    -0.00894     0.01946     0.00130    -0.02064     0.00000
           2    -0.00398     0.01508    -0.00234     0.00548     0.00984     0.00011
           3     0.00000     0.00000     0.00000     0.00000     0.00000     0.00000
           4    -0.01785     0.00217    -0.13619    -0.00350     0.12166     0.00029
           5     0.01951    -0.05917     0.05304    -0.01835    -0.05589    -0.00045
           6     0.00000     0.00000     0.00000     0.00000     0.00000     0.00000
           7    -0.02167     0.07946     0.13231     0.01786    -0.11571     0.00034
           8    -0.00677     0.08840    -0.02899     0.04939     0.02121     0.00236
           9     0.00000     0.00000     0.00000     0.00000     0.00000     0.00000
          10    -0.04507    -0.07553    -0.01828     0.00061     0.02081    -0.07172
          11    -0.00752     0.00304    -0.10299    -0.16982    -0.10975     0.02433
          12     0.00000     0.00000     0.00000     0.00000     0.00000     0.00000
          13     0.02946     0.02966    -0.00419    -0.01236    -0.01016     0.00011
          14    -0.03592    -0.06488     0.06437     0.10597     0.06973     0.00131
          15     0.00000     0.00000     0.00000     0.00000     0.00000     0.00000
          16     0.01055    -0.00808     0.01655     0.00023    -0.02216    -0.00038
          17    -0.05742    -0.02164    -0.15832    -0.01674     0.13402    -0.00068
          18     0.00000     0.00000     0.00000     0.00000     0.00000     0.00000
          19     0.07193    -0.30189     0.07845    -0.04351    -0.08089    -0.00414
          20    -0.05874     0.20776    -0.15874     0.01485     0.15001     0.00037
          21     0.00000     0.00000     0.00000     0.00000     0.00000     0.00000
          22    -0.04226     0.02781     0.05110    -0.08011     0.08185     0.02200
          23     0.03432    -0.01300     0.10653    -0.12372     0.09909    -0.00425
          24     0.00000     0.00000     0.00000     0.00000     0.00000     0.00000
          25     0.17659     0.11905     0.01860     0.09360     0.08670     0.85574
          26     0.58281     0.51232     0.00771     0.10005     0.08980    -0.32846
          27     0.00000     0.00000     0.00000     0.00000     0.00000     0.00000
          28     0.05224    -0.04075    -0.04543     0.05849    -0.05143     0.00037
          29     0.02149    -0.03315    -0.06130     0.07189    -0.06090    -0.00024
          30     0.00000     0.00000     0.00000     0.00000     0.00000     0.00000
          31    -0.17936     0.10501     0.02048    -0.02733     0.02832    -0.27444
          32    -0.64520     0.38863    -0.03071     0.11761    -0.13024     0.04837
          33     0.00000     0.00000     0.00000     0.00000     0.00000     0.00000

                   31          32          33
 
 P.Frequency     2977.26     3194.23     3792.85
 
           1    -0.00017    -0.00140     0.06069
           2     0.00038    -0.00186     0.00041
           3     0.00000     0.00000     0.00000
           4     0.00097     0.05836     0.00253
           5    -0.00053     0.06016     0.00234
           6     0.00000     0.00000     0.00000
           7    -0.00082    -0.00461    -0.00194
           8    -0.00102     0.00129     0.00041
           9     0.00000     0.00000     0.00000
          10    -0.02283     0.00008     0.00038
          11     0.00691    -0.00055     0.00079
          12     0.00000     0.00000     0.00000
          13     0.00051    -0.00008     0.00010
          14     0.00063     0.00016    -0.00036
          15     0.00000     0.00000     0.00000
          16    -0.00170     0.01383    -0.96546
          17     0.00003     0.00707    -0.03562
          18     0.00000     0.00000     0.00000
          19     0.00095    -0.63455    -0.01297
          20    -0.00047    -0.71084    -0.00449
          21     0.00000     0.00000     0.00000
          22    -0.07481     0.00095     0.00022
          23     0.01746     0.00052    -0.00054
          24     0.00000     0.00000     0.00000
          25     0.26068    -0.00129    -0.00071
          26    -0.09438     0.00228     0.00030
          27     0.00000     0.00000     0.00000
          28    -0.00018    -0.00049     0.00007
          29    -0.00100    -0.00004     0.00022
          30     0.00000     0.00000     0.00000
          31     0.89827     0.00103    -0.00109
          32    -0.17716    -0.00227    -0.00031
          33     0.00000     0.00000     0.00000



 ----------------------------------------------------------------------------
 Normal Eigenvalue ||    Projected Derivative Dipole Moments (debye/angs)
  Mode   [cm**-1]  ||      [d/dqX]             [d/dqY]           [d/dqZ]
 ------ ---------- || ------------------ ------------------ -----------------
    1       -0.000 ||       0.008              -0.077             0.000
    2       -0.000 ||       0.002              -0.021             0.000
    3       -0.000 ||       0.000               0.000            -0.127
    4        0.000 ||       0.000               0.000             0.144
    5        0.000 ||       0.000               0.000            -0.024
    6        0.000 ||      -0.008               0.078             0.000
    7       94.480 ||       0.000               0.000             0.788
    8      182.948 ||       0.000               0.000            -0.212
    9      189.636 ||      -0.143              -0.321             0.000
   10      230.833 ||      -0.554               0.339             0.000
   11      263.327 ||       0.000               0.000             0.007
   12      334.809 ||       0.000               0.000             1.254
   13      453.350 ||       0.638              -0.145             0.000
   14      484.173 ||       0.170              -0.034             0.000
   15      580.849 ||       0.000               0.000             1.156
   16      741.123 ||       0.368              -1.450             0.000
   17      910.329 ||       0.962               0.513             0.000
   18      942.424 ||       0.000               0.000             0.179
   19     1001.502 ||       0.000               0.000             0.208
   20     1017.543 ||       0.000               0.000            -0.007
   21     1182.482 ||      -0.283              -0.546             0.000
   22     1267.650 ||       1.157              -0.722             0.000
   23     1309.900 ||      -1.453               2.005             0.000
   24     1387.120 ||      -0.767               0.399             0.000
   25     1422.681 ||      -0.235               0.037             0.000
   26     1438.137 ||      -0.156              -0.168             0.000
   27     1677.877 ||      -2.173               1.108             0.000
   28     1689.228 ||      -0.704              -2.970             0.000
   29     1749.330 ||       1.735              -0.441             0.000
   30     2946.807 ||      -0.946               0.434             0.000
   31     2977.263 ||      -1.690               0.431             0.000
   32     3194.229 ||      -0.008               0.048             0.000
   33     3792.846 ||      -1.960               0.649             0.000
 ----------------------------------------------------------------------------



  
  
 ----------------------------------------------------------------------------
 Normal Eigenvalue ||           Projected Infra Red Intensities
  Mode   [cm**-1]  || [atomic units] [(debye/angs)**2] [(KM/mol)] [arbitrary]
 ------ ---------- || -------------- ----------------- ---------- -----------
    1       -0.000 ||    0.000257           0.006         0.251       0.044
    2       -0.000 ||    0.000019           0.000         0.019       0.003
    3       -0.000 ||    0.000703           0.016         0.685       0.121
    4        0.000 ||    0.000901           0.021         0.878       0.155
    5        0.000 ||    0.000026           0.001         0.025       0.004
    6        0.000 ||    0.000265           0.006         0.258       0.046
    7       94.480 ||    0.026912           0.621        26.235       4.634
    8      182.948 ||    0.001957           0.045         1.907       0.337
    9      189.636 ||    0.005364           0.124         5.229       0.924
   10      230.833 ||    0.018271           0.422        17.812       3.146
   11      263.327 ||    0.000002           0.000         0.002       0.000
   12      334.809 ||    0.068108           1.571        66.395      11.727
   13      453.350 ||    0.018569           0.428        18.102       3.197
   14      484.173 ||    0.001307           0.030         1.274       0.225
   15      580.849 ||    0.057955           1.337        56.497       9.979
   16      741.123 ||    0.096935           2.236        94.497      16.690
   17      910.329 ||    0.051569           1.190        50.272       8.879
   18      942.424 ||    0.001389           0.032         1.354       0.239
   19     1001.502 ||    0.001874           0.043         1.827       0.323
   20     1017.543 ||    0.000002           0.000         0.002       0.000
   21     1182.482 ||    0.016415           0.379        16.002       2.826
   22     1267.650 ||    0.080571           1.859        78.544      13.873
   23     1309.900 ||    0.265717           6.130       259.034      45.751
   24     1387.120 ||    0.032420           0.748        31.605       5.582
   25     1422.681 ||    0.002445           0.056         2.384       0.421
   26     1438.137 ||    0.002289           0.053         2.232       0.394
   27     1677.877 ||    0.257930           5.951       251.443      44.411
   28     1689.228 ||    0.403866           9.318       393.709      69.538
   29     1749.330 ||    0.138928           3.205       135.434      23.921
   30     2946.807 ||    0.046980           1.084        45.799       8.089
   31     2977.263 ||    0.131777           3.040       128.463      22.690
   32     3194.229 ||    0.000102           0.002         0.099       0.018
   33     3792.846 ||    0.184758           4.263       180.112      31.812
 ----------------------------------------------------------------------------



 vib:animation  F

 Task  times  cpu:     9298.9s     wall:     9414.1s
 
 
                                NWChem Input Module
                                -------------------
 
 
 Summary of allocated global arrays
-----------------------------------
  No active global arrays



                         GA Statistics for process    0
                         ------------------------------

       create   destroy   get      put      acc     scatter   gather  read&inc
calls: 8.47e+04 8.47e+04 1.35e+07 1.94e+06 5.83e+06    0        0     1.16e+05 
number of processes/call 2.33e+01 7.33e+01 2.98e+01 0.00e+00 0.00e+00
bytes total:             1.41e+10 2.36e+10 4.05e+09 0.00e+00 0.00e+00 9.31e+05
bytes remote:            7.43e+09 1.62e+10 2.93e+09 0.00e+00 0.00e+00 0.00e+00
Max memory consumed for GA by this process: 186246328 bytes
 
MA_summarize_allocated_blocks: starting scan ...
MA_summarize_allocated_blocks: scan completed: 0 heap blocks, 0 stack blocks
MA usage statistics:

	allocation statistics:
					      heap	     stack
					      ----	     -----
	current number of blocks	         0	         0
	maximum number of blocks	        25	        39
	current total bytes		         0	         0
	maximum total bytes		 122109024	  27155112
	maximum total K-bytes		    122110	     27156
	maximum total M-bytes		       123	        28
 
 
                                     CITATION
                                     --------
                Please cite the following reference when publishing
                           results obtained with NWChem:
 
          E. Apr, E. J. Bylaska, W. A. de Jong, N. Govind, K. Kowalski,
       T. P. Straatsma, M. Valiev, H. J. J. van Dam, Y. Alexeev, J. Anchell,
       V. Anisimov, F. W. Aquino, R. Atta-Fynn, J. Autschbach, N. P. Bauman,
     J. C. Becca, D. E. Bernholdt, K. Bhaskaran-Nair, S. Bogatko, P. Borowski,
        J. Boschen, J. Brabec, A. Bruner, E. Caut, Y. Chen, G. N. Chuev,
      C. J. Cramer, J. Daily, M. J. O. Deegan, T. H. Dunning Jr., M. Dupuis,
   K. G. Dyall, G. I. Fann, S. A. Fischer, A. Fonari, H. Frchtl, L. Gagliardi,
      J. Garza, N. Gawande, S. Ghosh, K. Glaesemann, A. W. Gtz, J. Hammond,
       V. Helms, E. D. Hermes, K. Hirao, S. Hirata, M. Jacquelin, L. Jensen,
   B. G. Johnson, H. Jnsson, R. A. Kendall, M. Klemm, R. Kobayashi, V. Konkov,
      S. Krishnamoorthy, M. Krishnan, Z. Lin, R. D. Lins, R. J. Littlefield,
      A. J. Logsdail, K. Lopata, W. Ma, A. V. Marenich, J. Martin del Campo,
   D. Mejia-Rodriguez, J. E. Moore, J. M. Mullin, T. Nakajima, D. R. Nascimento,
    J. A. Nichols, P. J. Nichols, J. Nieplocha, A. Otero-de-la-Roza, B. Palmer,
    A. Panyala, T. Pirojsirikul, B. Peng, R. Peverati, J. Pittner, L. Pollack,
   R. M. Richard, P. Sadayappan, G. C. Schatz, W. A. Shelton, D. W. Silverstein,
   D. M. A. Smith, T. A. Soares, D. Song, M. Swart, H. L. Taylor, G. S. Thomas,
            V. Tipparaju, D. G. Truhlar, K. Tsemekhman, T. Van Voorhis,
     . Vzquez-Mayagoitia, P. Verma, O. Villa, A. Vishnu, K. D. Vogiatzis,
        D. Wang, J. H. Weare, M. J. Williamson, T. L. Windus, K. Woliski,
        A. T. Wong, Q. Wu, C. Yang, Q. Yu, M. Zacharias, Z. Zhang, Y. Zhao,
                                and R. J. Harrison
                        "NWChem: Past, present, and future
                         J. Chem. Phys. 152, 184102 (2020)
                               doi:10.1063/5.0004997
 
                                      AUTHORS
                                      -------
     E. Apra, E. J. Bylaska, N. Govind, K. Kowalski, M. Valiev, W. A. de Jong,
      T. P. Straatsma, H. J. J. van Dam, D. Wang, T. L. Windus, N. P. Bauman,
       A. Panyala, J. Hammond, J. Autschbach, K. Bhaskaran-Nair, J. Brabec,
    K. Lopata, S. A. Fischer, S. Krishnamoorthy, M. Jacquelin, W. Ma, M. Klemm,
       O. Villa, Y. Chen, V. Anisimov, F. Aquino, S. Hirata, M. T. Hackler,
           Eric Hermes, L. Jensen, J. E. Moore, J. C. Becca, V. Konjkov,
            D. Mejia-Rodriguez, T. Risthaus, M. Malagoli, A. Marenich,
   A. Otero-de-la-Roza, J. Mullin, P. Nichols, R. Peverati, J. Pittner, Y. Zhao,
        P.-D. Fan, A. Fonari, M. J. Williamson, R. J. Harrison, J. R. Rehr,
      M. Dupuis, D. Silverstein, D. M. A. Smith, J. Nieplocha, V. Tipparaju,
      M. Krishnan, B. E. Van Kuiken, A. Vazquez-Mayagoitia, M. Swart, Q. Wu,
   T. Van Voorhis, A. A. Auer, M. Nooijen, L. D. Crosby, E. Brown, G. Cisneros,
     G. I. Fann, H. Fruchtl, J. Garza, K. Hirao, R. A. Kendall, J. A. Nichols,
       K. Tsemekhman, K. Wolinski, J. Anchell, D. E. Bernholdt, P. Borowski,
       T. Clark, D. Clerc, H. Dachsel, M. J. O. Deegan, K. Dyall, D. Elwood,
      E. Glendening, M. Gutowski, A. C. Hess, J. Jaffe, B. G. Johnson, J. Ju,
        R. Kobayashi, R. Kutteh, Z. Lin, R. Littlefield, X. Long, B. Meng,
      T. Nakajima, S. Niu, L. Pollack, M. Rosing, K. Glaesemann, G. Sandrone,
      M. Stave, H. Taylor, G. Thomas, J. H. van Lenthe, A. T. Wong, Z. Zhang.

 Total times  cpu:    11879.7s     wall:    12032.6s
