 argument  1 = 8cR1.nw
 


============================== echo of input deck ==============================
echo
start 8cR1
title "H,CHO,H Reference 1"
charge 0

geometry
 zmatrix
  O
  C  1  R1
  C  2  R2  1  A1
  H  1  R5  2  A4  3  D0
  H  2  R6  3  A5  4  D180
  C  3  R7  2  A6  1  D180
  H  3  R8  2  A7  1  D0
  O  6  R9  3  A8  2  D0
  H  6  R10 3  A9  2  D180
  variables
    R1  1.329
    R2  1.363
    A1  124.5
    R5  0.994
    A4  105.4
    R6  1.085
    A5  122.5
    R7  1.478
    A6  120.0
    R8  1.099
    A7  117.6
    R9  1.250
    A8  120.0
    R10 1.000
    A9  120.0
  constants
    D0  0.000
    D180 180.0
 end
end

basis spherical
 * library aug-cc-pVDZ
end

set lindep:n_dep 0

set cphf:maxsub 95
set cphf:maxiter 999
set int:acc_std 1d-16
set fock:densityscreen f

scf
 maxiter 99
 vectors input atomic
 thresh 1d-9
 tol2e 1d-15
end

mp2
 freeze atomic
 tight
end

driver
 clear
 maxiter 99
 tight
end

set "mp2:aotol2e fock" 1d-15
set mp2:aotol2e 1d-15
set mp2:backtol 1d-15


task mp2 optimize
task mp2 frequencies

================================================================================


                                         
                                         
 
 
             Northwest Computational Chemistry Package (NWChem) 7.0.0
             --------------------------------------------------------
 
 
                    Environmental Molecular Sciences Laboratory
                       Pacific Northwest National Laboratory
                                Richland, WA 99352
 
                              Copyright (c) 1994-2020
                       Pacific Northwest National Laboratory
                            Battelle Memorial Institute
 
             NWChem is an open-source computational chemistry package
                        distributed under the terms of the
                      Educational Community License (ECL) 2.0
             A copy of the license is included with this distribution
                              in the LICENSE.TXT file
 
                                  ACKNOWLEDGMENT
                                  --------------

            This software and its documentation were developed at the
            EMSL at Pacific Northwest National Laboratory, a multiprogram
            national laboratory, operated for the U.S. Department of Energy
            by Battelle under Contract Number DE-AC05-76RL01830. Support
            for this work was provided by the Department of Energy Office
            of Biological and Environmental Research, Office of Basic
            Energy Sciences, and the Office of Advanced Scientific Computing.


           Job information
           ---------------

    hostname        = compute-0-40.local
    program         = /scratch/nwchem.277679
    date            = Wed Mar 31 12:17:43 2021

    compiled        = Wed_Mar_31_10:43:23_2021
    source          = /home/edo/nwchem-7.0.1
    nwchem branch   = 7.0.1
    nwchem revision = de46fdf
    ga revision     = 5.7.1
    use scalapack   = T
    input           = 8cR1.nw
    prefix          = 8cR1.
    data base       = ./8cR1.db
    status          = startup
    nproc           =       11
    time left       =     -1s



           Memory information
           ------------------

    heap     =  215205459 doubles =   1641.9 Mbytes
    stack    =  215205461 doubles =   1641.9 Mbytes
    global   =  122974549 doubles =    938.2 Mbytes (distinct from heap & stack)
    total    =  553385469 doubles =   4222.0 Mbytes
    verify   = yes
    hardfail = no 


           Directory information
           ---------------------
 
  0 permanent = .
  0 scratch   = /scratch
 
 
 
 
                                NWChem Input Module
                                -------------------
 
 
                                H,CHO,H Reference 1
                                -------------------

 Scaling coordinates for geometry "geometry" by  1.889725989
 (inverse scale =  0.529177249)

 CS  symmetry detected
 
 
                             Geometry "geometry" -> ""
                             -------------------------
 
 Output coordinates in angstroms (scale by  1.889725989 to convert to a.u.)
 
  No.       Tag          Charge          X              Y              Z
 ---- ---------------- ---------- -------------- -------------- --------------
    1 O                    8.0000    -0.23598882     2.18813772     0.00000000
    2 C                    6.0000    -0.34410074     0.86354238     0.00000000
    3 C                    6.0000     0.71265854     0.00271207     0.00000000
    4 H                    1.0000     0.74061884     2.37326868     0.00000000
    5 H                    1.0000    -1.37402546     0.52225062     0.00000000
    6 C                    6.0000     0.47721815    -1.45641501     0.00000000
    7 H                    1.0000     1.72253173     0.43625232     0.00000000
    8 O                    8.0000    -0.69105089    -1.90099060     0.00000000
    9 H                    1.0000     1.25253677    -2.08798530     0.00000000
 
      Atomic Mass 
      ----------- 
 
      O                 15.994910
      C                 12.000000
      H                  1.007825
 

 Effective nuclear repulsion energy (a.u.)     156.4853435658

            Nuclear Dipole moment (a.u.) 
            ----------------------------
        X                 Y               Z
 ---------------- ---------------- ----------------
     0.0000000000    -0.0000000000     0.0000000000
 
      Symmetry information
      --------------------
 
 Group name             Cs        
 Group number              2
 Group order               2
 No. of unique centers     9
 
      Symmetry unique atoms
 
     1    2    3    4    5    6    7    8    9
 


                                Z-matrix (user)
                                -------- 

 Units are Angstrom for bonds and degrees for angles

  Constants are marked with an asterisk (*).

  Constrained variables are marked with a plus sign (+).

 
      Type          Name      I     J     K     L     M      Value
      ----------- --------  ----- ----- ----- ----- ----- ----------
    1 Stretch      R1          2     1                       1.32900
    2 Stretch      R2          3     2                       1.36300
    3 Bend         A1          3     2     1               124.50000
    4 Stretch      R5          4     1                       0.99400
    5 Bend         A4          4     1     2               105.40000
    6*Torsion      D0          4     1     2     3           0.00000
    7 Stretch      R6          5     2                       1.08500
    8 Bend         A5          5     2     3               122.50000
    9*Torsion      D180        5     2     3     4         180.00000
   10 Stretch      R7          6     3                       1.47800
   11 Bend         A6          6     3     2               120.00000
   12*Torsion      D180        6     3     2     1         180.00000
   13 Stretch      R8          7     3                       1.09900
   14 Bend         A7          7     3     2               117.60000
   15*Torsion      D0          7     3     2     1           0.00000
   16 Stretch      R9          8     6                       1.25000
   17 Bend         A8          8     6     3               120.00000
   18*Torsion      D0          8     6     3     2           0.00000
   19 Stretch      R10         9     6                       1.00000
   20 Bend         A9          9     6     3               120.00000
   21*Torsion      D180        9     6     3     2         180.00000
 
 
            XYZ format geometry
            -------------------
     9
 geometry
 O                    -0.23598882     2.18813772     0.00000000
 C                    -0.34410074     0.86354238     0.00000000
 C                     0.71265854     0.00271207     0.00000000
 H                     0.74061884     2.37326868     0.00000000
 H                    -1.37402546     0.52225062     0.00000000
 C                     0.47721815    -1.45641501     0.00000000
 H                     1.72253173     0.43625232     0.00000000
 O                    -0.69105089    -1.90099060     0.00000000
 H                     1.25253677    -2.08798530     0.00000000
 
 ==============================================================================
                                internuclear distances
 ------------------------------------------------------------------------------
       center one      |      center two      | atomic units |  angstroms
 ------------------------------------------------------------------------------
    2 C                |   1 O                |     2.51145  |     1.32900
    3 C                |   2 C                |     2.57570  |     1.36300
    4 H                |   1 O                |     1.87839  |     0.99400
    5 H                |   2 C                |     2.05035  |     1.08500
    6 C                |   3 C                |     2.79302  |     1.47800
    7 H                |   3 C                |     2.07681  |     1.09900
    8 O                |   6 C                |     2.36216  |     1.25000
    9 H                |   6 C                |     1.88973  |     1.00000
 ------------------------------------------------------------------------------
                         number of included internuclear distances:          8
 ==============================================================================



 ==============================================================================
                                 internuclear angles
 ------------------------------------------------------------------------------
        center 1       |       center 2       |       center 3       |  degrees
 ------------------------------------------------------------------------------
    2 C                |   1 O                |   4 H                |   105.40
    1 O                |   2 C                |   3 C                |   124.50
    1 O                |   2 C                |   5 H                |   113.00
    3 C                |   2 C                |   5 H                |   122.50
    2 C                |   3 C                |   6 C                |   120.00
    2 C                |   3 C                |   7 H                |   117.60
    6 C                |   3 C                |   7 H                |   122.40
    3 C                |   6 C                |   8 O                |   120.00
    3 C                |   6 C                |   9 H                |   120.00
    8 O                |   6 C                |   9 H                |   120.00
 ------------------------------------------------------------------------------
                            number of included internuclear angles:         10
 ==============================================================================





 Summary of "ao basis" -> "" (spherical)
 ------------------------------------------------------------------------------
       Tag                 Description            Shells   Functions and Types
 ---------------- ------------------------------  ------  ---------------------
 *                        aug-cc-pVDZ                 on all atoms 


 
  Deleted DRIVER restart files 
 
 
 
                           NWChem Geometry Optimization
                           ----------------------------
 
 
 
 
                                H,CHO,H Reference 1
 
 
 maximum gradient threshold         (gmax) =   0.000015
 rms gradient threshold             (grms) =   0.000010
 maximum cartesian step threshold   (xmax) =   0.000060
 rms cartesian step threshold       (xrms) =   0.000040
 fixed trust radius                (trust) =   0.300000
 maximum step size to saddle      (sadstp) =   0.100000
 energy precision                  (eprec) =   1.0D-07
 maximum number of steps          (nptopt) =   99
 initial hessian option           (inhess) =    0
 line search option               (linopt) =    1
 hessian update option            (modupd) =    1
 saddle point option              (modsad) =    0
 initial eigen-mode to follow     (moddir) =    0
 initial variable to follow       (vardir) =    0
 follow first negative mode     (firstneg) =    T
 apply conjugacy                    (opcg) =    F
 source of zmatrix                         =   user    


          -------------------
          Energy Minimization
          -------------------

 
 Names of Z-matrix variables 
    1 R1           2 R2           3 A1           4 R5           5 A4      
    6 D0           7 R6           8 A5           9 D180        10 R7      
   11 A6          12 D180        13 R8          14 A7          15 D0      
   16 R9          17 A8          18 D0          19 R10         20 A9      
   21 D180    
 
 Variables with the same non-blank name are constrained to be equal
 
     variables named       D0 =     6   15   18 
     variables named     D180 =     9   12   21 

 Number of frozen variables =    6
           Frozen variables =    6    9   12   15   18   21
 
 Using diagonal initial Hessian 
 Scaling for Hessian diagonals: bonds = 1.00  angles = 0.25  torsions = 0.10

          --------
          Step   0
          --------
 
 
                         Geometry "geometry" -> "geometry"
                         ---------------------------------
 
 Output coordinates in angstroms (scale by  1.889725989 to convert to a.u.)
 
  No.       Tag          Charge          X              Y              Z
 ---- ---------------- ---------- -------------- -------------- --------------
    1 O                    8.0000    -0.23598882     2.18813772     0.00000000
    2 C                    6.0000    -0.34410074     0.86354238     0.00000000
    3 C                    6.0000     0.71265854     0.00271207     0.00000000
    4 H                    1.0000     0.74061884     2.37326868     0.00000000
    5 H                    1.0000    -1.37402546     0.52225062     0.00000000
    6 C                    6.0000     0.47721815    -1.45641501     0.00000000
    7 H                    1.0000     1.72253173     0.43625232     0.00000000
    8 O                    8.0000    -0.69105089    -1.90099060     0.00000000
    9 H                    1.0000     1.25253677    -2.08798530     0.00000000
 
      Atomic Mass 
      ----------- 
 
      O                 15.994910
      C                 12.000000
      H                  1.007825
 

 Effective nuclear repulsion energy (a.u.)     156.4853435658

            Nuclear Dipole moment (a.u.) 
            ----------------------------
        X                 Y               Z
 ---------------- ---------------- ----------------
     0.0000000000    -0.0000000000     0.0000000000
 
      Symmetry information
      --------------------
 
 Group name             Cs        
 Group number              2
 Group order               2
 No. of unique centers     9
 
      Symmetry unique atoms
 
     1    2    3    4    5    6    7    8    9
 
                      Basis "ao basis" -> "ao basis" (spherical)
                      -----
  O (Oxygen)
  ----------
            Exponent  Coefficients 
       -------------- ---------------------------------------------------------
  1 S  1.17200000E+04  0.000710
  1 S  1.75900000E+03  0.005470
  1 S  4.00800000E+02  0.027837
  1 S  1.13700000E+02  0.104800
  1 S  3.70300000E+01  0.283062
  1 S  1.32700000E+01  0.448719
  1 S  5.02500000E+00  0.270952
  1 S  1.01300000E+00  0.015458
 
  2 S  1.17200000E+04 -0.000160
  2 S  1.75900000E+03 -0.001263
  2 S  4.00800000E+02 -0.006267
  2 S  1.13700000E+02 -0.025716
  2 S  3.70300000E+01 -0.070924
  2 S  1.32700000E+01 -0.165411
  2 S  5.02500000E+00 -0.116955
  2 S  1.01300000E+00  0.557368
 
  3 S  3.02300000E-01  1.000000
 
  4 S  7.89600000E-02  1.000000
 
  5 P  1.77000000E+01  0.043018
  5 P  3.85400000E+00  0.228913
  5 P  1.04600000E+00  0.508728
 
  6 P  2.75300000E-01  1.000000
 
  7 P  6.85600000E-02  1.000000
 
  8 D  1.18500000E+00  1.000000
 
  9 D  3.32000000E-01  1.000000
 
  C (Carbon)
  ----------
            Exponent  Coefficients 
       -------------- ---------------------------------------------------------
  1 S  6.66500000E+03  0.000692
  1 S  1.00000000E+03  0.005329
  1 S  2.28000000E+02  0.027077
  1 S  6.47100000E+01  0.101718
  1 S  2.10600000E+01  0.274740
  1 S  7.49500000E+00  0.448564
  1 S  2.79700000E+00  0.285074
  1 S  5.21500000E-01  0.015204
 
  2 S  6.66500000E+03 -0.000146
  2 S  1.00000000E+03 -0.001154
  2 S  2.28000000E+02 -0.005725
  2 S  6.47100000E+01 -0.023312
  2 S  2.10600000E+01 -0.063955
  2 S  7.49500000E+00 -0.149981
  2 S  2.79700000E+00 -0.127262
  2 S  5.21500000E-01  0.544529
 
  3 S  1.59600000E-01  1.000000
 
  4 S  4.69000000E-02  1.000000
 
  5 P  9.43900000E+00  0.038109
  5 P  2.00200000E+00  0.209480
  5 P  5.45600000E-01  0.508557
 
  6 P  1.51700000E-01  1.000000
 
  7 P  4.04100000E-02  1.000000
 
  8 D  5.50000000E-01  1.000000
 
  9 D  1.51000000E-01  1.000000
 
  H (Hydrogen)
  ------------
            Exponent  Coefficients 
       -------------- ---------------------------------------------------------
  1 S  1.30100000E+01  0.019685
  1 S  1.96200000E+00  0.137977
  1 S  4.44600000E-01  0.478148
 
  2 S  1.22000000E-01  1.000000
 
  3 S  2.97400000E-02  1.000000
 
  4 P  7.27000000E-01  1.000000
 
  5 P  1.41000000E-01  1.000000
 


 Summary of "ao basis" -> "ao basis" (spherical)
 ------------------------------------------------------------------------------
       Tag                 Description            Shells   Functions and Types
 ---------------- ------------------------------  ------  ---------------------
 O                        aug-cc-pVDZ                9       23   4s3p2d
 C                        aug-cc-pVDZ                9       23   4s3p2d
 H                        aug-cc-pVDZ                5        9   3s2p


                                 NWChem SCF Module
                                 -----------------
 
 
                                H,CHO,H Reference 1
 
 

  ao basis        = "ao basis"
  functions       =   151
  atoms           =     9
  closed shells   =    19
  open shells     =     0
  charge          =   0.00
  wavefunction    = RHF 
  input vectors   = atomic
  output vectors  = ./8cR1.movecs
  use symmetry    = T
  symmetry adapt  = T


 Summary of "ao basis" -> "ao basis" (spherical)
 ------------------------------------------------------------------------------
       Tag                 Description            Shells   Functions and Types
 ---------------- ------------------------------  ------  ---------------------
 O                        aug-cc-pVDZ                9       23   4s3p2d
 C                        aug-cc-pVDZ                9       23   4s3p2d
 H                        aug-cc-pVDZ                5        9   3s2p


      Symmetry analysis of basis
      --------------------------
 
        a'        108
        a"         43
 

int_init: setting std/high accuracies to  1.0D-16  1.0D-32

 Forming initial guess at       0.5s


 Forcing the number of linearly dependent vectors to be  0
 
      Superposition of Atomic Density Guess
      -------------------------------------
 
 Sum of atomic energies:        -264.53203373
 
      Non-variational initial energy
      ------------------------------

 Total energy =    -267.001518
 1-e energy   =    -669.368470
 2-e energy   =     245.881609
 HOMO         =      -0.299655
 LUMO         =      -0.069034
 
 
      Symmetry analysis of molecular orbitals - initial
      -------------------------------------------------
 
  Numbering of irreducible representations: 
 
     1 a'          2 a"      
 
  Orbital symmetries:
 
     1 a'          2 a'          3 a'          4 a'          5 a'      
     6 a'          7 a'          8 a'          9 a'         10 a'      
    11 a'         12 a'         13 a'         14 a"         15 a"      
    16 a'         17 a'         18 a'         19 a"         20 a"      
    21 a'         22 a'         23 a'         24 a'         25 a"      
    26 a'         27 a"         28 a'         29 a'      
 

 Starting SCF solution at       1.4s



 ----------------------------------------------
         Quadratically convergent ROHF

 Convergence threshold     :          1.000E-09
 Maximum no. of iterations :           99
 Final Fock-matrix accuracy:          1.000E-15
 ----------------------------------------------

 Warning: symmetry breaking in RHF:   2.152620880316763E-014

              iter       energy          gnorm     gmax       time
             ----- ------------------- --------- --------- --------
                 1     -265.5138573541  1.43D+00  2.44D-01      2.0
 Warning: symmetry breaking in RHF:   9.172949907449357E-014
 Warning: symmetry breaking in RHF:   6.706801736239573E-014
                 2     -265.6282660572  4.72D-01  6.95D-02      3.9
 Warning: symmetry breaking in RHF:   6.827373992799153E-014
                 3     -265.6499206976  1.82D-02  4.91D-03      7.4
 Warning: symmetry breaking in RHF:   6.907988889425132E-014
                 4     -265.6500008962  2.44D-04  6.64D-05     12.7
 Warning: symmetry breaking in RHF:   6.908562109367425E-014
                 5     -265.6500009044  3.14D-08  6.34D-09     21.5
 Warning: symmetry breaking in RHF:   6.906422323326411E-014
                 6     -265.6500009044  4.07D-11  1.77D-11     28.4


       Final RHF  results 
       ------------------ 

         Total SCF energy =   -265.650000904378
      One-electron energy =   -672.508726952508
      Two-electron energy =    250.373382482352
 Nuclear repulsion energy =    156.485343565777

        Time for solution =     27.4s


 
       Symmetry analysis of molecular orbitals - final
       -----------------------------------------------
 
  Numbering of irreducible representations: 
 
     1 a'          2 a"      
 
  Orbital symmetries:
 
     1 a'          2 a'          3 a'          4 a'          5 a'      
     6 a'          7 a'          8 a'          9 a'         10 a'      
    11 a'         12 a'         13 a'         14 a"         15 a'      
    16 a'         17 a"         18 a'         19 a"         20 a'      
    21 a'         22 a'         23 a'         24 a"         25 a"      
    26 a'         27 a'         28 a"         29 a'      
 
             Final eigenvalues
             -----------------

              1      
    1  -20.6427
    2  -20.5504
    3  -11.3490
    4  -11.3377
    5  -11.2457
    6   -1.4541
    7   -1.3629
    8   -1.0606
    9   -0.9078
   10   -0.8313
   11   -0.7219
   12   -0.6910
   13   -0.6428
   14   -0.6169
   15   -0.5982
   16   -0.5578
   17   -0.5207
   18   -0.4295
   19   -0.3600
   20    0.0249
   21    0.0415
   22    0.0522
   23    0.0667
   24    0.0682
   25    0.1036
   26    0.1123
   27    0.1240
   28    0.1301
   29    0.1310
 
                       ROHF Final Molecular Orbital Analysis
                       -------------------------------------
 
 Vector    6  Occ=2.000000D+00  E=-1.454128D+00  Symmetry=a'
              MO Center= -1.4D-01,  2.0D+00,  1.0D-35, r^2= 5.7D-01
   Bfn.  Coefficient  Atom+Function         Bfn.  Coefficient  Atom+Function  
  ----- ------------  ---------------      ----- ------------  ---------------
     3      0.476820  1 O  s                  2      0.415653  1 O  s          
    27     -0.181592  2 C  s                 70      0.173307  4 H  s          
    32     -0.161573  2 C  py                49     -0.161555  3 C  s          
 
 Vector    7  Occ=2.000000D+00  E=-1.362866D+00  Symmetry=a'
              MO Center= -3.6D-01, -1.7D+00, -1.6D-34, r^2= 5.9D-01
   Bfn.  Coefficient  Atom+Function         Bfn.  Coefficient  Atom+Function  
  ----- ------------  ---------------      ----- ------------  ---------------
   122      0.454560  8 O  s                121      0.395829  8 O  s          
    89      0.217243  6 C  s                 90      0.174184  6 C  s          
    92     -0.157000  6 C  px         
 
 Vector    8  Occ=2.000000D+00  E=-1.060641D+00  Symmetry=a'
              MO Center=  2.9D-01,  1.6D-01,  3.7D-36, r^2= 1.7D+00
   Bfn.  Coefficient  Atom+Function         Bfn.  Coefficient  Atom+Function  
  ----- ------------  ---------------      ----- ------------  ---------------
    48      0.306070  3 C  s                 50     -0.276483  3 C  s          
    25      0.236653  2 C  s                 49      0.202193  3 C  s          
    91      0.165921  6 C  s                 26      0.152139  2 C  s          
 
 Vector    9  Occ=2.000000D+00  E=-9.078107D-01  Symmetry=a'
              MO Center=  2.2D-01, -5.1D-02,  8.2D-17, r^2= 3.6D+00
   Bfn.  Coefficient  Atom+Function         Bfn.  Coefficient  Atom+Function  
  ----- ------------  ---------------      ----- ------------  ---------------
    26      0.244250  2 C  s                 25      0.238721  2 C  s          
    89     -0.236884  6 C  s                143     -0.206008  9 H  s          
     6     -0.184881  1 O  py                91      0.171507  6 C  s          
    70     -0.156703  4 H  s                 79      0.153908  5 H  s          
   122      0.151628  8 O  s          
 
 Vector   10  Occ=2.000000D+00  E=-8.312755D-01  Symmetry=a'
              MO Center=  2.0D-01,  3.5D-01,  2.6D-31, r^2= 3.9D+00
   Bfn.  Coefficient  Atom+Function         Bfn.  Coefficient  Atom+Function  
  ----- ------------  ---------------      ----- ------------  ---------------
     5      0.254715  1 O  px               143     -0.224178  9 H  s          
    70      0.218940  4 H  s                 28      0.208294  2 C  px         
    89     -0.188336  6 C  s                144     -0.176703  9 H  s          
     6      0.157808  1 O  py         
 
 Vector   11  Occ=2.000000D+00  E=-7.219401D-01  Symmetry=a'
              MO Center=  4.0D-02,  2.8D-01, -9.1D-17, r^2= 3.6D+00
   Bfn.  Coefficient  Atom+Function         Bfn.  Coefficient  Atom+Function  
  ----- ------------  ---------------      ----- ------------  ---------------
     6      0.287698  1 O  py                93      0.243054  6 C  py         
    52     -0.196723  3 C  py                28     -0.193577  2 C  px         
    29     -0.186207  2 C  py               144     -0.183712  9 H  s          
     9      0.180492  1 O  py               143     -0.171599  9 H  s          
   125      0.169778  8 O  py               112     -0.167640  7 H  s          
 
 Vector   12  Occ=2.000000D+00  E=-6.909502D-01  Symmetry=a'
              MO Center=  3.3D-01,  3.5D-01,  1.9D-30, r^2= 3.4D+00
   Bfn.  Coefficient  Atom+Function         Bfn.  Coefficient  Atom+Function  
  ----- ------------  ---------------      ----- ------------  ---------------
    50      0.300198  3 C  s                  5      0.284224  1 O  px         
    51     -0.238000  3 C  px               111     -0.230681  7 H  s          
    27     -0.216028  2 C  s                 70      0.211212  4 H  s          
   112     -0.206355  7 H  s                 29     -0.195130  2 C  py         
    93     -0.187249  6 C  py               144      0.175394  9 H  s          
 
 Vector   13  Occ=2.000000D+00  E=-6.428147D-01  Symmetry=a'
              MO Center= -3.0D-01, -6.1D-01, -2.9D-32, r^2= 3.8D+00
   Bfn.  Coefficient  Atom+Function         Bfn.  Coefficient  Atom+Function  
  ----- ------------  ---------------      ----- ------------  ---------------
    90      0.297850  6 C  s                 92     -0.274512  6 C  px         
     6     -0.250197  1 O  py               124      0.251244  8 O  px         
   125      0.244523  8 O  py                80     -0.217060  5 H  s          
   122     -0.196949  8 O  s                 29      0.181678  2 C  py         
    79     -0.180221  5 H  s                143     -0.171894  9 H  s          
 
 Vector   14  Occ=2.000000D+00  E=-6.168903D-01  Symmetry=a"
              MO Center= -1.9D-01,  1.8D+00,  2.3D-17, r^2= 1.2D+00
   Bfn.  Coefficient  Atom+Function         Bfn.  Coefficient  Atom+Function  
  ----- ------------  ---------------      ----- ------------  ---------------
     7      0.549541  1 O  pz                10      0.403568  1 O  pz         
    30      0.224039  2 C  pz         
 
 Vector   15  Occ=2.000000D+00  E=-5.981503D-01  Symmetry=a'
              MO Center= -1.5D-01,  7.5D-02,  2.3D-16, r^2= 4.3D+00
   Bfn.  Coefficient  Atom+Function         Bfn.  Coefficient  Atom+Function  
  ----- ------------  ---------------      ----- ------------  ---------------
   124      0.333821  8 O  px                 5     -0.267287  1 O  px         
     6      0.234800  1 O  py                52      0.228275  3 C  py         
    93     -0.220194  6 C  py                92     -0.204739  6 C  px         
    50     -0.196689  3 C  s                127      0.186509  8 O  px         
     8     -0.172587  1 O  px                 9      0.167416  1 O  py         
 
 Vector   16  Occ=2.000000D+00  E=-5.577881D-01  Symmetry=a'
              MO Center=  9.3D-02,  4.0D-01,  1.0D-16, r^2= 3.0D+00
   Bfn.  Coefficient  Atom+Function         Bfn.  Coefficient  Atom+Function  
  ----- ------------  ---------------      ----- ------------  ---------------
   112     -0.328244  7 H  s                 28      0.321927  2 C  px         
    51     -0.307782  3 C  px                79     -0.259169  5 H  s          
   111     -0.258841  7 H  s                 80     -0.222845  5 H  s          
     5     -0.200323  1 O  px               124     -0.170582  8 O  px         
    70     -0.158736  4 H  s                144      0.154407  9 H  s          
 
 Vector   17  Occ=2.000000D+00  E=-5.207111D-01  Symmetry=a"
              MO Center= -2.0D-01, -1.4D+00,  7.2D-16, r^2= 1.9D+00
   Bfn.  Coefficient  Atom+Function         Bfn.  Coefficient  Atom+Function  
  ----- ------------  ---------------      ----- ------------  ---------------
   126      0.440434  8 O  pz               129      0.327889  8 O  pz         
    94      0.317731  6 C  pz                97      0.167164  6 C  pz         
 
 Vector   18  Occ=2.000000D+00  E=-4.295158D-01  Symmetry=a'
              MO Center= -2.7D-01, -1.6D+00, -1.4D-17, r^2= 1.7D+00
   Bfn.  Coefficient  Atom+Function         Bfn.  Coefficient  Atom+Function  
  ----- ------------  ---------------      ----- ------------  ---------------
   125      0.532150  8 O  py               128      0.411591  8 O  py         
    96     -0.216891  6 C  py                50      0.208405  3 C  s          
    52      0.204695  3 C  py               143      0.197127  9 H  s          
   124     -0.192141  8 O  px                91     -0.168937  6 C  s          
    90     -0.164417  6 C  s                 93     -0.157364  6 C  py         
 
 Vector   19  Occ=2.000000D+00  E=-3.600156D-01  Symmetry=a"
              MO Center=  1.7D-01,  1.1D-01, -3.9D-16, r^2= 2.6D+00
   Bfn.  Coefficient  Atom+Function         Bfn.  Coefficient  Atom+Function  
  ----- ------------  ---------------      ----- ------------  ---------------
    53      0.399167  3 C  pz                56      0.308429  3 C  pz         
    30      0.265962  2 C  pz               126     -0.253389  8 O  pz         
     7     -0.244527  1 O  pz                10     -0.202986  1 O  pz         
   129     -0.197932  8 O  pz                33      0.188596  2 C  pz         
 
 Vector   20  Occ=0.000000D+00  E= 2.494032D-02  Symmetry=a'
              MO Center=  2.6D+00,  1.9D+00, -3.8D-17, r^2= 1.3D+01
   Bfn.  Coefficient  Atom+Function         Bfn.  Coefficient  Atom+Function  
  ----- ------------  ---------------      ----- ------------  ---------------
    27      6.881989  2 C  s                 50     -6.657941  3 C  s          
    91      5.125469  6 C  s                113     -3.477110  7 H  s          
    57      3.006937  3 C  px                 4     -1.483459  1 O  s          
    72     -1.383552  4 H  s                 34      1.325263  2 C  px         
    58      1.210474  3 C  py                99      0.954494  6 C  py         
 
 Vector   21  Occ=0.000000D+00  E= 4.149972D-02  Symmetry=a'
              MO Center=  2.2D+00, -8.3D-01, -2.5D-17, r^2= 2.2D+01
   Bfn.  Coefficient  Atom+Function         Bfn.  Coefficient  Atom+Function  
  ----- ------------  ---------------      ----- ------------  ---------------
   145      4.351500  9 H  s                 27     -3.354540  2 C  s          
    58      2.569528  3 C  py                99      2.575039  6 C  py         
    72     -2.111699  4 H  s                 91      1.972541  6 C  s          
    81     -1.720860  5 H  s                 34     -1.573374  2 C  px         
    35      1.288228  2 C  py               144      1.010802  9 H  s          
 
 Vector   22  Occ=0.000000D+00  E= 5.223507D-02  Symmetry=a'
              MO Center= -1.9D+00,  3.0D-01,  1.2D-14, r^2= 1.9D+01
   Bfn.  Coefficient  Atom+Function         Bfn.  Coefficient  Atom+Function  
  ----- ------------  ---------------      ----- ------------  ---------------
    81      4.961967  5 H  s                 91     -4.436536  6 C  s          
    34      3.402344  2 C  px               113     -2.722223  7 H  s          
    27      2.302563  2 C  s                 58     -2.276490  3 C  py         
    50     -2.012580  3 C  s                 57      1.518041  3 C  px         
   145      1.391556  9 H  s                  4     -1.133965  1 O  s          
 
 Vector   23  Occ=0.000000D+00  E= 6.666081D-02  Symmetry=a'
              MO Center=  1.7D+00,  4.7D-01,  2.7D-17, r^2= 2.7D+01
   Bfn.  Coefficient  Atom+Function         Bfn.  Coefficient  Atom+Function  
  ----- ------------  ---------------      ----- ------------  ---------------
   113      7.426907  7 H  s                145     -5.153334  9 H  s          
    72     -3.961026  4 H  s                 57     -3.466976  3 C  px         
    91     -2.937912  6 C  s                 81      2.858255  5 H  s          
    58     -2.802837  3 C  py                99     -2.793337  6 C  py         
    34      1.803883  2 C  px                50      1.749077  3 C  s          
 
 Vector   24  Occ=0.000000D+00  E= 6.816127D-02  Symmetry=a"
              MO Center=  2.5D-01, -4.8D-01,  1.9D-15, r^2= 6.0D+00
   Bfn.  Coefficient  Atom+Function         Bfn.  Coefficient  Atom+Function  
  ----- ------------  ---------------      ----- ------------  ---------------
    36      1.036351  2 C  pz                59     -0.747657  3 C  pz         
   100     -0.423192  6 C  pz                13     -0.350548  1 O  pz         
    33      0.347817  2 C  pz               132      0.321207  8 O  pz         
    30      0.306208  2 C  pz                94     -0.247674  6 C  pz         
    97     -0.238944  6 C  pz               126      0.211126  8 O  pz         
 
 Vector   25  Occ=0.000000D+00  E= 1.036354D-01  Symmetry=a"
              MO Center= -3.5D-01, -4.1D-01, -8.5D-15, r^2= 1.3D+01
   Bfn.  Coefficient  Atom+Function         Bfn.  Coefficient  Atom+Function  
  ----- ------------  ---------------      ----- ------------  ---------------
    36      1.597000  2 C  pz               100      1.535632  6 C  pz         
    59     -1.275612  3 C  pz               132     -0.533576  8 O  pz         
    13     -0.343033  1 O  pz         
 
 Vector   26  Occ=0.000000D+00  E= 1.123271D-01  Symmetry=a'
              MO Center= -1.1D+00, -1.0D+00, -3.1D-16, r^2= 1.8D+01
   Bfn.  Coefficient  Atom+Function         Bfn.  Coefficient  Atom+Function  
  ----- ------------  ---------------      ----- ------------  ---------------
    27      8.947943  2 C  s                 50     -5.423849  3 C  s          
    34      3.777662  2 C  px                57      3.362922  3 C  px         
    35     -3.025399  2 C  py                58     -3.004492  3 C  py         
    91     -2.711411  6 C  s                 99     -2.658786  6 C  py         
   123     -2.253161  8 O  s                 98     -2.018737  6 C  px         
 
 Vector   27  Occ=0.000000D+00  E= 1.240372D-01  Symmetry=a'
              MO Center=  9.1D-01,  6.0D-01,  1.7D-15, r^2= 1.8D+01
   Bfn.  Coefficient  Atom+Function         Bfn.  Coefficient  Atom+Function  
  ----- ------------  ---------------      ----- ------------  ---------------
    50     30.603988  3 C  s                 91    -19.168863  6 C  s          
    27    -16.171309  2 C  s                 99     -7.218004  6 C  py         
    34     -6.130735  2 C  px               113      6.116253  7 H  s          
    58     -5.205051  3 C  py                57     -5.142605  3 C  px         
     4      4.721758  1 O  s                145     -3.531559  9 H  s          
 
 Vector   28  Occ=0.000000D+00  E= 1.301491D-01  Symmetry=a"
              MO Center=  1.2D+00, -2.3D-01,  1.1D-15, r^2= 1.3D+01
   Bfn.  Coefficient  Atom+Function         Bfn.  Coefficient  Atom+Function  
  ----- ------------  ---------------      ----- ------------  ---------------
    59      2.926868  3 C  pz               100     -2.477570  6 C  pz         
    36     -0.587809  2 C  pz               132      0.503323  8 O  pz         
    33     -0.243042  2 C  pz         
 
 Vector   29  Occ=0.000000D+00  E= 1.309740D-01  Symmetry=a'
              MO Center=  8.6D-01,  8.7D-01, -1.8D-15, r^2= 1.9D+01
   Bfn.  Coefficient  Atom+Function         Bfn.  Coefficient  Atom+Function  
  ----- ------------  ---------------      ----- ------------  ---------------
    27     17.594306  2 C  s                 50    -13.885869  3 C  s          
    58     -9.058179  3 C  py                91     -8.777171  6 C  s          
    34      6.573806  2 C  px                57      4.523667  3 C  px         
    81      4.420565  5 H  s                 35     -4.228230  2 C  py         
    72      3.456030  4 H  s                113     -2.973146  7 H  s          
 
 Vector   30  Occ=0.000000D+00  E= 1.401546D-01  Symmetry=a'
              MO Center=  9.6D-01,  4.4D-01, -4.0D-17, r^2= 1.6D+01
   Bfn.  Coefficient  Atom+Function         Bfn.  Coefficient  Atom+Function  
  ----- ------------  ---------------      ----- ------------  ---------------
    50     14.719513  3 C  s                 27     -9.419341  2 C  s          
    91     -8.668880  6 C  s                 57     -8.548597  3 C  px         
   113      8.029567  7 H  s                 35      5.039391  2 C  py         
    58     -4.750247  3 C  py                81     -2.351494  5 H  s          
    99     -1.788315  6 C  py               112      1.792066  7 H  s          
 
 Vector   31  Occ=0.000000D+00  E= 1.461618D-01  Symmetry=a'
              MO Center=  6.2D-01, -1.6D-03, -7.2D-15, r^2= 2.2D+01
   Bfn.  Coefficient  Atom+Function         Bfn.  Coefficient  Atom+Function  
  ----- ------------  ---------------      ----- ------------  ---------------
    27     20.887803  2 C  s                 91    -12.330947  6 C  s          
    58    -11.804841  3 C  py                57      6.049132  3 C  px         
     4     -5.852803  1 O  s                 99     -5.010222  6 C  py         
    34      4.930300  2 C  px               145     -3.913940  9 H  s          
    35      3.501968  2 C  py                98     -3.230450  6 C  px         
 
 Vector   32  Occ=0.000000D+00  E= 1.489875D-01  Symmetry=a"
              MO Center=  2.0D-01, -2.7D-02, -4.9D-15, r^2= 1.2D+01
   Bfn.  Coefficient  Atom+Function         Bfn.  Coefficient  Atom+Function  
  ----- ------------  ---------------      ----- ------------  ---------------
    36      2.411790  2 C  pz                59     -2.161578  3 C  pz         
    97      0.353516  6 C  pz                13     -0.339982  1 O  pz         
    94      0.243017  6 C  pz                87     -0.205150  5 H  pz         
    30     -0.178368  2 C  pz               129     -0.175051  8 O  pz         
 
 Vector   33  Occ=0.000000D+00  E= 1.657071D-01  Symmetry=a'
              MO Center=  1.3D+00, -2.4D+00, -1.9D-15, r^2= 1.5D+01
   Bfn.  Coefficient  Atom+Function         Bfn.  Coefficient  Atom+Function  
  ----- ------------  ---------------      ----- ------------  ---------------
    50      9.755167  3 C  s                145     -7.855078  9 H  s          
    99     -6.872882  6 C  py                57     -5.916819  3 C  px         
    98      5.606775  6 C  px                27     -4.676179  2 C  s          
   113      4.291304  7 H  s                144     -3.804127  9 H  s          
    96     -2.102226  6 C  py                81      2.046349  5 H  s          
 
 Vector   34  Occ=0.000000D+00  E= 1.784859D-01  Symmetry=a'
              MO Center= -1.6D+00,  1.1D-01,  2.4D-15, r^2= 1.4D+01
   Bfn.  Coefficient  Atom+Function         Bfn.  Coefficient  Atom+Function  
  ----- ------------  ---------------      ----- ------------  ---------------
    91     14.351113  6 C  s                 81     -7.038375  5 H  s          
    34     -6.728048  2 C  px                58      4.796460  3 C  py         
    50     -4.228740  3 C  s                123     -3.762491  8 O  s          
    99      3.527956  6 C  py                80     -3.311644  5 H  s          
    57      2.910641  3 C  px               113     -2.585890  7 H  s          
 
 Vector   35  Occ=0.000000D+00  E= 2.137831D-01  Symmetry=a'
              MO Center=  1.2D+00,  1.2D+00, -1.8D-16, r^2= 1.5D+01
   Bfn.  Coefficient  Atom+Function         Bfn.  Coefficient  Atom+Function  
  ----- ------------  ---------------      ----- ------------  ---------------
    27     16.137595  2 C  s                 50    -15.411550  3 C  s          
    58     -5.717145  3 C  py               113      5.029348  7 H  s          
   145     -4.138757  9 H  s                 34      3.871943  2 C  px         
   112      3.753499  7 H  s                 72     -2.745629  4 H  s          
    99     -2.166797  6 C  py                71     -1.863052  4 H  s          
 
 Vector   36  Occ=0.000000D+00  E= 2.318184D-01  Symmetry=a'
              MO Center=  6.4D-02, -2.5D-01,  4.6D-16, r^2= 1.3D+01
   Bfn.  Coefficient  Atom+Function         Bfn.  Coefficient  Atom+Function  
  ----- ------------  ---------------      ----- ------------  ---------------
    27     29.641794  2 C  s                 91    -21.091270  6 C  s          
    58     -8.688556  3 C  py                50     -6.242523  3 C  s          
    34      6.161182  2 C  px                99     -6.021459  6 C  py         
    57      5.272981  3 C  px                 4     -4.599452  1 O  s          
    35     -4.530083  2 C  py               144      3.831203  9 H  s          
 
 Vector   37  Occ=0.000000D+00  E= 2.323970D-01  Symmetry=a"
              MO Center=  1.7D-01, -4.3D-01,  6.7D-15, r^2= 6.8D+00
   Bfn.  Coefficient  Atom+Function         Bfn.  Coefficient  Atom+Function  
  ----- ------------  ---------------      ----- ------------  ---------------
    59      1.536305  3 C  pz               100     -0.887827  6 C  pz         
    33      0.450299  2 C  pz               132     -0.446900  8 O  pz         
    36     -0.429100  2 C  pz               151      0.388442  9 H  pz         
    56     -0.370533  3 C  pz               119     -0.369669  7 H  pz         
    13     -0.359946  1 O  pz                97      0.329849  6 C  pz         
 
 Vector   38  Occ=0.000000D+00  E= 2.493334D-01  Symmetry=a"
              MO Center= -4.3D-01,  1.7D+00, -2.5D-15, r^2= 1.1D+01
   Bfn.  Coefficient  Atom+Function         Bfn.  Coefficient  Atom+Function  
  ----- ------------  ---------------      ----- ------------  ---------------
    13      2.315328  1 O  pz                36     -1.600281  2 C  pz         
   100      1.038483  6 C  pz               132     -0.580046  8 O  pz         
    43     -0.441019  2 C  d -1              56     -0.301896  3 C  pz         
    59     -0.287874  3 C  pz                68     -0.252744  3 C  d  1       
    78     -0.237258  4 H  pz                10     -0.189375  1 O  pz         
 
 Vector   39  Occ=0.000000D+00  E= 2.627120D-01  Symmetry=a'
              MO Center= -4.1D-01, -4.1D-01, -1.8D-16, r^2= 1.6D+01
   Bfn.  Coefficient  Atom+Function         Bfn.  Coefficient  Atom+Function  
  ----- ------------  ---------------      ----- ------------  ---------------
    50     31.720004  3 C  s                 91    -30.799201  6 C  s          
    58     -9.902817  3 C  py                99     -7.659847  6 C  py         
     4      5.453728  1 O  s                 27     -5.286385  2 C  s          
   123      4.911148  8 O  s                 34     -3.252360  2 C  px         
    71     -2.736216  4 H  s                112     -2.718294  7 H  s          
 
 Vector   40  Occ=0.000000D+00  E= 2.743221D-01  Symmetry=a'
              MO Center= -2.4D-01,  1.9D+00, -3.1D-17, r^2= 1.3D+01
   Bfn.  Coefficient  Atom+Function         Bfn.  Coefficient  Atom+Function  
  ----- ------------  ---------------      ----- ------------  ---------------
    58      6.102353  3 C  py                12      3.997089  1 O  py         
     4     -3.653353  1 O  s                 91      3.107770  6 C  s          
    55      2.945968  3 C  py                35     -2.466129  2 C  py         
    26     -2.322704  2 C  s                 49      2.197920  3 C  s          
    72     -2.149756  4 H  s                 32      2.107806  2 C  py         
 
 Vector   41  Occ=0.000000D+00  E= 2.872631D-01  Symmetry=a'
              MO Center=  2.4D-01, -3.4D-01,  7.9D-16, r^2= 1.1D+01
   Bfn.  Coefficient  Atom+Function         Bfn.  Coefficient  Atom+Function  
  ----- ------------  ---------------      ----- ------------  ---------------
    50     37.110071  3 C  s                 27    -31.922395  2 C  s          
    57     -8.509453  3 C  px                34     -6.753808  2 C  px         
   112     -5.941647  7 H  s                  4      5.344930  1 O  s          
    91     -5.362075  6 C  s                 80      4.809641  5 H  s          
    58      4.621599  3 C  py                31      4.396154  2 C  px         
 
 Vector   42  Occ=0.000000D+00  E= 3.069967D-01  Symmetry=a"
              MO Center= -7.0D-01, -1.5D+00,  1.6D-15, r^2= 9.6D+00
   Bfn.  Coefficient  Atom+Function         Bfn.  Coefficient  Atom+Function  
  ----- ------------  ---------------      ----- ------------  ---------------
   132      2.312432  8 O  pz               100     -2.077879  6 C  pz         
    59      1.944765  3 C  pz                36     -1.645754  2 C  pz         
    13      0.749072  1 O  pz               109     -0.536826  6 C  d  1       
    68      0.319958  3 C  d  1              33     -0.305168  2 C  pz         
   129     -0.241775  8 O  pz               126     -0.228927  8 O  pz         
 
 Vector   43  Occ=0.000000D+00  E= 3.154548D-01  Symmetry=a'
              MO Center= -4.6D-01, -2.1D-02,  4.1D-16, r^2= 1.4D+01
   Bfn.  Coefficient  Atom+Function         Bfn.  Coefficient  Atom+Function  
  ----- ------------  ---------------      ----- ------------  ---------------
    50     33.999849  3 C  s                 27    -28.956111  2 C  s          
    57    -11.675381  3 C  px                34    -10.262578  2 C  px         
   113      6.620693  7 H  s                 91     -6.276822  6 C  s          
    81     -5.770430  5 H  s                 35      5.053621  2 C  py         
     4      3.352634  1 O  s                 11      3.007243  1 O  px         
 
 Vector   44  Occ=0.000000D+00  E= 3.159452D-01  Symmetry=a'
              MO Center=  3.1D-01,  1.5D+00, -1.2D-16, r^2= 1.1D+01
   Bfn.  Coefficient  Atom+Function         Bfn.  Coefficient  Atom+Function  
  ----- ------------  ---------------      ----- ------------  ---------------
    91     18.477787  6 C  s                 27     -6.580998  2 C  s          
    58      6.577381  3 C  py                50     -6.335597  3 C  s          
    35      4.715409  2 C  py                99      4.566697  6 C  py         
    34     -4.451855  2 C  px                11      3.369836  1 O  px         
    26      3.137036  2 C  s                145      2.971187  9 H  s          
 
 Vector   45  Occ=0.000000D+00  E= 3.361227D-01  Symmetry=a'
              MO Center=  2.0D-01, -3.9D-01,  7.2D-18, r^2= 1.1D+01
   Bfn.  Coefficient  Atom+Function         Bfn.  Coefficient  Atom+Function  
  ----- ------------  ---------------      ----- ------------  ---------------
    91     10.106376  6 C  s                 27     -7.237740  2 C  s          
    58      6.344804  3 C  py               123     -4.105557  8 O  s          
     4      2.787306  1 O  s                 34     -2.782706  2 C  px         
    80     -2.101110  5 H  s                 81     -2.108299  5 H  s          
    35     -1.744714  2 C  py                54     -1.674844  3 C  px         
 
 Vector   46  Occ=0.000000D+00  E= 3.594788D-01  Symmetry=a'
              MO Center= -6.0D-01, -1.4D+00,  1.2D-17, r^2= 1.3D+01
   Bfn.  Coefficient  Atom+Function         Bfn.  Coefficient  Atom+Function  
  ----- ------------  ---------------      ----- ------------  ---------------
    50     21.702133  3 C  s                 91    -21.024882  6 C  s          
    58    -10.828117  3 C  py                99     -9.060600  6 C  py         
    35      4.589628  2 C  py               145     -4.598833  9 H  s          
   113      4.412992  7 H  s                131      4.082486  8 O  py         
    80     -2.861243  5 H  s                123      2.363443  8 O  s          
 
 Vector   47  Occ=0.000000D+00  E= 3.733498D-01  Symmetry=a'
              MO Center= -2.2D-01, -6.7D-02, -3.1D-17, r^2= 1.1D+01
   Bfn.  Coefficient  Atom+Function         Bfn.  Coefficient  Atom+Function  
  ----- ------------  ---------------      ----- ------------  ---------------
    50     10.677016  3 C  s                 91     -8.437725  6 C  s          
     4     -5.029339  1 O  s                 35      4.448840  2 C  py         
    57     -4.268902  3 C  px                58     -4.194994  3 C  py         
   113      3.630758  7 H  s                 80      3.399066  5 H  s          
    27     -2.711727  2 C  s                 46     -2.027855  2 C  d  2       
 
 Vector   48  Occ=0.000000D+00  E= 3.857985D-01  Symmetry=a"
              MO Center=  1.2D+00, -1.5D-01,  1.2D-16, r^2= 7.3D+00
   Bfn.  Coefficient  Atom+Function         Bfn.  Coefficient  Atom+Function  
  ----- ------------  ---------------      ----- ------------  ---------------
   119     -1.524980  7 H  pz                59      1.476540  3 C  pz         
    36     -1.277048  2 C  pz               151     -1.004591  9 H  pz         
    13      0.920100  1 O  pz                97      0.824862  6 C  pz         
    87     -0.611235  5 H  pz                56      0.490955  3 C  pz         
    43     -0.467096  2 C  d -1              66      0.468535  3 C  d -1       
 
 Vector   49  Occ=0.000000D+00  E= 3.859899D-01  Symmetry=a'
              MO Center=  1.3D+00, -1.0D+00,  1.8D-16, r^2= 9.2D+00
   Bfn.  Coefficient  Atom+Function         Bfn.  Coefficient  Atom+Function  
  ----- ------------  ---------------      ----- ------------  ---------------
    27      9.509568  2 C  s                 57      8.456215  3 C  px         
    50     -5.379317  3 C  s                113     -5.306471  7 H  s          
    98     -5.197448  6 C  px               112     -4.740601  7 H  s          
   145      4.040672  9 H  s                144      3.693334  9 H  s          
    96      3.640285  6 C  py                90      3.290363  6 C  s          
 
 Vector   50  Occ=0.000000D+00  E= 4.001608D-01  Symmetry=a"
              MO Center= -9.2D-03,  1.2D+00, -8.4D-16, r^2= 6.6D+00
   Bfn.  Coefficient  Atom+Function         Bfn.  Coefficient  Atom+Function  
  ----- ------------  ---------------      ----- ------------  ---------------
    36      1.497239  2 C  pz                13     -1.326719  1 O  pz         
    78      1.276958  4 H  pz                87     -1.142134  5 H  pz         
    59     -0.927849  3 C  pz                97      0.591329  6 C  pz         
    33      0.555878  2 C  pz                66      0.491904  3 C  d -1       
   119     -0.488240  7 H  pz               100      0.361574  6 C  pz         
 
 Vector   51  Occ=0.000000D+00  E= 4.239532D-01  Symmetry=a'
              MO Center=  7.4D-01,  1.8D-01,  6.6D-17, r^2= 1.1D+01
   Bfn.  Coefficient  Atom+Function         Bfn.  Coefficient  Atom+Function  
  ----- ------------  ---------------      ----- ------------  ---------------
    27     21.901179  2 C  s                 50    -14.348098  3 C  s          
     4     -8.612523  1 O  s                 34      6.529838  2 C  px         
   145     -3.568527  9 H  s                 99     -3.525991  6 C  py         
    71      3.143295  4 H  s                 57      3.065338  3 C  px         
    11     -2.804070  1 O  px                81      2.694093  5 H  s          
 
 Vector   52  Occ=0.000000D+00  E= 4.389161D-01  Symmetry=a'
              MO Center=  2.6D-01, -8.3D-01, -3.9D-17, r^2= 1.0D+01
   Bfn.  Coefficient  Atom+Function         Bfn.  Coefficient  Atom+Function  
  ----- ------------  ---------------      ----- ------------  ---------------
    27     12.313395  2 C  s                 50     -8.580342  3 C  s          
   123      7.824635  8 O  s                 55      6.913818  3 C  py         
    91     -6.132838  6 C  s                  4     -5.615261  1 O  s          
    26     -5.412688  2 C  s                 96      5.055503  6 C  py         
    90      4.625116  6 C  s                 31     -3.737530  2 C  px         
 
 Vector   53  Occ=0.000000D+00  E= 4.422284D-01  Symmetry=a"
              MO Center=  5.3D-02, -3.9D-02,  3.0D-16, r^2= 9.2D+00
   Bfn.  Coefficient  Atom+Function         Bfn.  Coefficient  Atom+Function  
  ----- ------------  ---------------      ----- ------------  ---------------
   100      1.449602  6 C  pz                87      1.318873  5 H  pz         
   151     -1.168515  9 H  pz                78      0.863644  4 H  pz         
   132     -0.853729  8 O  pz                33     -0.837080  2 C  pz         
    59     -0.813012  3 C  pz                97      0.703366  6 C  pz         
   119      0.596058  7 H  pz                68      0.499190  3 C  d  1       
 
 Vector   54  Occ=0.000000D+00  E= 4.506668D-01  Symmetry=a'
              MO Center=  6.4D-02,  4.1D-01, -4.4D-17, r^2= 1.2D+01
   Bfn.  Coefficient  Atom+Function         Bfn.  Coefficient  Atom+Function  
  ----- ------------  ---------------      ----- ------------  ---------------
    27     17.422832  2 C  s                 50    -10.345162  3 C  s          
    91      9.597627  6 C  s                  4     -9.168553  1 O  s          
    90      5.506343  6 C  s                123     -5.286053  8 O  s          
    57      5.106340  3 C  px                49      4.711768  3 C  s          
    32      3.912684  2 C  py                81     -2.443119  5 H  s          
 
 Vector   55  Occ=0.000000D+00  E= 4.794997D-01  Symmetry=a"
              MO Center=  9.1D-01, -5.8D-01, -1.1D-15, r^2= 7.8D+00
   Bfn.  Coefficient  Atom+Function         Bfn.  Coefficient  Atom+Function  
  ----- ------------  ---------------      ----- ------------  ---------------
   151      2.113527  9 H  pz               119     -1.611835  7 H  pz         
    59      1.178530  3 C  pz                97     -1.065303  6 C  pz         
   100     -1.062570  6 C  pz                68     -1.025320  3 C  d  1       
   109      0.925568  6 C  d  1             107      0.695249  6 C  d -1       
    87      0.690602  5 H  pz                78      0.571991  4 H  pz         
 
 Vector   56  Occ=0.000000D+00  E= 4.834545D-01  Symmetry=a'
              MO Center= -1.9D-01,  4.6D-01, -3.5D-16, r^2= 9.1D+00
   Bfn.  Coefficient  Atom+Function         Bfn.  Coefficient  Atom+Function  
  ----- ------------  ---------------      ----- ------------  ---------------
    91     13.353065  6 C  s                  4      8.356338  1 O  s          
    27     -7.812307  2 C  s                123     -5.604316  8 O  s          
    58      5.356509  3 C  py                34     -4.792991  2 C  px         
    55     -4.320069  3 C  py                26      3.998817  2 C  s          
    99      3.485738  6 C  py               112     -3.367972  7 H  s          
 
 Vector   57  Occ=0.000000D+00  E= 5.170451D-01  Symmetry=a'
              MO Center=  2.2D-01, -4.6D-01,  2.0D-16, r^2= 8.8D+00
   Bfn.  Coefficient  Atom+Function         Bfn.  Coefficient  Atom+Function  
  ----- ------------  ---------------      ----- ------------  ---------------
    27      5.238347  2 C  s                 80      5.037502  5 H  s          
    91     -4.242889  6 C  s                 31      4.097316  2 C  px         
    54      3.804424  3 C  px                55     -3.605712  3 C  py         
    99     -3.280072  6 C  py                96     -2.776017  6 C  py         
    32     -2.384286  2 C  py               145     -2.334116  9 H  s          
 

 center of mass
 --------------
 x =  -0.06083710 y =  -0.03241806 z =   0.00000000

 moments of inertia (a.u.)
 ------------------
         640.301405296564          -0.000000000000           0.000000000000
          -0.000000000000          91.882754067941           0.000000000000
           0.000000000000           0.000000000000         732.184159364505
 
  Mulliken analysis of the total density
  --------------------------------------

    Atom       Charge   Shell Charges
 -----------   ------   -------------------------------------------------------
    1 O    8     8.66   2.00  0.83  1.01  0.13  2.82  1.77  0.06  0.02  0.02
    2 C    6     5.15   2.01  0.68  0.50 -0.08  1.89  0.15  0.04  0.15 -0.19
    3 C    6     5.58   2.01  0.64  0.37 -0.24  2.05  0.63  0.12  0.07 -0.06
    4 H    1     0.80   0.69  0.04 -0.02  0.07  0.01
    5 H    1     1.21   0.76  0.43  0.02  0.03 -0.03
    6 C    6     5.03   2.01  0.69  0.30 -0.11  1.89  0.13  0.04  0.17 -0.09
    7 H    1     1.52   0.77  0.70  0.03  0.03 -0.00
    8 O    8     8.77   2.00  0.84  1.05  0.15  2.75  1.82  0.10  0.02  0.03
    9 H    1     1.27   0.83  0.46  0.00  0.03 -0.05
 
       Multipole analysis of the density wrt the origin
       ------------------------------------------------
 
     L   x y z        total         open         nuclear
     -   - - -        -----         ----         -------
     0   0 0 0     -0.000000      0.000000     38.000000
 
     1   1 0 0      1.327228      0.000000      0.000000
     1   0 1 0      0.938324      0.000000     -0.000000
     1   0 0 1     -0.000000      0.000000      0.000000
 
     2   2 0 0    -19.643511      0.000000     58.431578
     2   1 1 0     -1.366835      0.000000     -1.380999
     2   1 0 1     -0.000000      0.000000      0.000000
     2   0 2 0    -24.701711      0.000000    338.786832
     2   0 1 1      0.000000      0.000000      0.000000
     2   0 0 2    -22.945133      0.000000      0.000000
 
                   NWChem MP2 Semi-direct Energy/Gradient Module
                   ---------------------------------------------
 
 
                                H,CHO,H Reference 1
 
 

int_init: setting std/high accuracies to  1.0D-16  1.0D-32
  Basis functions       =    151
  Molecular orbitals    =    151
  Frozen core           =      5
  Frozen virtuals       =      0
  Active alpha occupied =     14
  Active beta occupied  =     14
  Active alpha virtual  =    132
  Active beta virtual   =    132
  Use MO symmetry       = T
  Use skeleton AO sym   = T

  AO/Fock/Back tols     =   1.0D-15  1.0D-15  1.0D-15

 GA uses MA = F    GA memory limited = T

 Available: 
  local mem=  3.77D+08
 global mem=  1.23D+08
 local disk=  0.00D+00

int_init: setting std/high accuracies to  1.0D-16  1.0D-32
  mp2_memr nvloc                     12
  nvloc new                     12
   1 passes of  14:        5242880                     154913                   8466985.
   1 passes of  14: M    376557450           G      122962901           F     371314570.
 
 Semi-direct pass number   1 of   1  for RHF alpha+beta  at       29.3s

int_init: setting std/high accuracies to  1.0D-16  1.0D-32
  vrange nnbf                  11451
  mp2_eaftype                     25  avail_ma_in_mb                   3283
 EAF : mp2_eaftype filesize          25    3289918.
  mp2_eaf for mointskh                      25
Node 0 wrote     15.4 Mb in      0.0 s     Agg I/O rate:  4315.5 Mb/s
 Done moints_semi at       32.6s
  mp2_eaftype                     25  avail_ma_in_mb                   3258
 EAF : mp2_eaftype filesize          25    3289918.
  mp2_eaf for kh                     25
  mp2_eaftype                     10  avail_ma_in_mb                   3258
 EAF : mp2_eaftype filesize          10     620928.
  mp2_eaf for ta tb                     10
  mp2_eaf for ta                      10
  mp2_eaf for tb                      10
 Done maket at       32.7s
 Done pijab at       32.8s
 Done wijab at       32.8s
 Done lai at       33.3s

int_init: setting std/high accuracies to  1.0D-16  1.0D-32
  mp2_eaftype                     29  avail_ma_in_mb                   3237
 EAF : mp2_eaftype filesize          29    3863335.
  mp2_eaf for 2pdm                      29
 Done nonsep at       42.3s
 Done multipass loop at       42.3s


          -------------------------------------------
          SCF energy                -265.650000904378
          Correlation energy          -0.799666556896
          Singlet pairs               -0.485300346041
          Triplet pairs               -0.314366210855
          Total MP2 energy          -266.449667461274
          -------------------------------------------



          ---------------------------------------------------
                    Spin Component Scaled (SCS) MP2
          Same spin pairs                     -0.209577473903
          Same spin scaling factor             0.333333333333
          Opposite spin pairs                 -0.590089082993
          Opposite spin scaling fact.          1.200000000000
          SCS-MP2 correlation energy          -0.777966057559
          Total SCS-MP2 energy              -266.427966961938
          ---------------------------------------------------


int_init: setting std/high accuracies to  1.0D-16  1.0D-32
                                NWChem CPHF Module
                                ------------------
 
 

int_init: setting std/high accuracies to  1.0D-16  1.0D-32
    scftype = RHF 
    nclosed =   19
      nopen =    0
  variables =     2508
  tolerance =   1.0D-06
  max. iter =  999

 Warning: symmetry breaking in RHF:   6.902172774158551E-014
 SCF residual:   3.971581256472126E-011

            ----- linear solve (tol: 1.0E-06 prod-acc: 3.6E-14) -----

               iter nbas    rnorm     rnorm-scal   ratio     time
               ---- ---- ----------- ----------- --------- -------
                  1    1  7.2360E-02  4.0364E-01    0.0000    44.3
                  2    2  2.0652E-02  1.1520E-01    0.2854    45.2
                  3    3  7.3639E-03  4.1078E-02    0.3566    46.1
                  4    4  2.8475E-03  1.5884E-02    0.3867    47.1
                  5    5  1.1246E-03  6.2730E-03    0.3949    48.0
                  6    6  4.2532E-04  2.3725E-03    0.3782    48.9
                  7    7  1.9457E-04  1.0854E-03    0.4575    49.8
                  8    8  6.3091E-05  3.5194E-04    0.3243    50.7
                  9    9  1.9013E-05  1.0606E-04    0.3014    51.6
                 10   10  4.8224E-06  2.6901E-05    0.2536    52.5
                 11   11  1.2810E-06  7.1456E-06    0.2656    53.4
                 12   12  4.0752E-07  2.2732E-06    0.3181    54.2
                 13   13  1.4201E-07  7.9216E-07    0.3485    55.1

 CPHF converged to   7.9D-07 in   13 iters


int_init: setting std/high accuracies to  1.0D-16  1.0D-32
                Dipole Moments (a.u.)
                --------------
         Nuclear       SCF       SCF+MP2
       ----------- ----------- -----------
 X       0.000000    1.327228    1.182091
 Y      -0.000000    0.938324    0.848991
 Z       0.000000   -0.000000   -0.000000
 

 MP2 RHF      natural orbital occupation numbers


              1      
    1    2.0000
    2    2.0000
    3    2.0000
    4    2.0000
    5    2.0000
    6    1.9865
    7    1.9857
    8    1.9808
    9    1.9764
   10    1.9725
   11    1.9674
   12    1.9662
   13    1.9640
   14    1.9631
   15    1.9592
   16    1.9575
   17    1.9546
   18    1.9432
   19    1.9271
   20    0.0625
   21    0.0422
   22    0.0319
   23    0.0302
   24    0.0291
   25    0.0254
   26    0.0200
   27    0.0173
   28    0.0158
   29    0.0152
   30    0.0147
   31    0.0123
   32    0.0120
   33    0.0109
   34    0.0103
   35    0.0091
   36    0.0085
   37    0.0083
   38    0.0081
   39    0.0076
   40    0.0069
   41    0.0066
   42    0.0065
   43    0.0061
   44    0.0059
   45    0.0057
   46    0.0054
   47    0.0050
   48    0.0046
   49    0.0036
   50    0.0034
   51    0.0031
   52    0.0029
   53    0.0027
   54    0.0024
   55    0.0023
   56    0.0023
   57    0.0020
   58    0.0017
   59    0.0015
   60    0.0014
   61    0.0014
   62    0.0013
   63    0.0012
   64    0.0011
   65    0.0010
   66    0.0010
   67    0.0008
   68    0.0008
   69    0.0007
   70    0.0006
   71    0.0006
   72    0.0006
   73    0.0006
   74    0.0006
   75    0.0006
   76    0.0005
   77    0.0005
   78    0.0005
   79    0.0005
   80    0.0005
   81    0.0004
   82    0.0004
   83    0.0004
   84    0.0004
   85    0.0004
   86    0.0003
   87    0.0003
   88    0.0003
   89    0.0003
   90    0.0003
   91    0.0003
   92    0.0003
   93    0.0002
   94    0.0002
   95    0.0002
   96    0.0002
   97    0.0002
   98    0.0002
   99    0.0002
  100    0.0002
  101    0.0001
  102    0.0001
  103    0.0001
  104    0.0001
  105    0.0001
  106    0.0001
  107    0.0001
  108    0.0001
  109    0.0001
  110    0.0001
  111    0.0001
  112    0.0001
  113    0.0001
  114    0.0001
  115    0.0000
  116    0.0000
  117    0.0000
  118    0.0000
  119    0.0000
  120    0.0000
  121    0.0000
  122    0.0000
  123    0.0000
  124    0.0000
  125    0.0000
  126    0.0000
  127    0.0000
  128    0.0000
  129    0.0000
  130    0.0000
  131    0.0000
  132    0.0000
  133    0.0000
  134    0.0000
  135    0.0000
  136    0.0000
  137    0.0000
  138    0.0000
  139    0.0000
  140    0.0000
  141    0.0000
  142   -0.0000
  143   -0.0000
  144   -0.0000
  145   -0.0000
  146   -0.0000
  147   -0.0000
  148   -0.0001
  149   -0.0001
  150   -0.0002
  151   -0.0003
 
  MP2 natural orbitals output to ./8cR1.mp2nos
 

int_init: setting std/high accuracies to  1.0D-16  1.0D-32
  Using symmetry

int_init: setting std/high accuracies to  1.0D-16  1.0D-32


                         mp2 ENERGY GRADIENTS

    atom               coordinates                        gradient
                 x          y          z           x          y          z
   1 O      -0.445954   4.134981   0.000000   -0.024920  -0.025390   0.000000
   2 C      -0.650256   1.631858   0.000000   -0.002387   0.023096   0.000000
   3 C       1.346729   0.005125   0.000000   -0.002928   0.001297   0.000000
   4 H       1.399567   4.484828   0.000000    0.020661  -0.003854   0.000000
   5 H      -2.596532   0.986911   0.000000    0.004482   0.003089   0.000000
   6 C       0.901812  -2.752225   0.000000    0.095146  -0.064696   0.000000
   7 H       3.255113   0.824397   0.000000   -0.001041   0.005353   0.000000
   8 O      -1.305897  -3.592351   0.000000   -0.013784   0.003974   0.000000
   9 H       2.366951  -3.945720   0.000000   -0.075229   0.057133   0.000000
 
                 ----------------------------------------
                 |  Time  |  1-e(secs)   |  2-e(secs)   |
                 ----------------------------------------
                 |  CPU   |       0.00   |       6.10   |
                 ----------------------------------------
                 |  WALL  |       0.00   |       6.11   |
                 ----------------------------------------
 -----------------------
 Performance information
 -----------------------

 Timer overhead =  2.00D-07 seconds/call

               Nr. of calls         CPU time (s)                 Wall time (s)                GFlops
             ---------------    -------------------     ------------------------------   -------------------
Name         Min   Avg   Max    Min     Avg     Max     Min     Avg     Max   Mx/calls   Min     Max     Sum
mp2: moin     1     1     1    3.1     3.2     3.2      3.4     3.4     3.4     3.4      0.0     0.0     0.0   
mp2: make     1     1     1   0.12    0.12    0.13     0.13    0.13    0.13    0.13      0.0     0.0     0.0   
mp2: pija     1     1     1   1.50E-2 1.57E-2 1.60E-2  1.60E-2 1.60E-2 1.62E-2 1.62E-2   0.0     0.0     0.0   
mp2: wija     1     1     1   1.60E-2 1.68E-2 1.70E-2  1.70E-2 1.71E-2 1.71E-2 1.71E-2   0.0     0.0     0.0   
mp2: lai      1     1     1   0.47    0.47    0.48     0.48    0.48    0.48    0.48      0.0     0.0     0.0   
mp2: back     1     1     1   0.29    0.29    0.29     0.30    0.30    0.30    0.30      0.0     0.0     0.0   
mp2: nons     1     1     1    8.3     8.5     8.7      8.3     8.5     8.7     8.7      0.0     0.0     0.0   
mp2: laif     1     1     1    1.0     1.1     1.1      1.1     1.1     1.1     1.1      0.0     0.0     0.0   
mp2: cphf     1     1     1    13.     13.     13.      13.     13.     13.     13.      0.0     0.0     0.0   
mp2: wijf     1     1     1    1.0     1.0     1.0      1.0     1.0     1.0     1.0      0.0     0.0     0.0   
mp2: sep      1     1     1    6.1     6.1     6.2      6.2     6.2     6.2     6.2      0.0     0.0     0.0   
mp2: tota     1     1     1    34.     34.     34.      34.     34.     34.     34.      0.0     0.0     0.0   

 The average no. of pstat calls per process was 1.20D+01
 with a timing overhead of 2.40D-06s


@ Step       Energy      Delta E   Gmax     Grms     Xrms     Xmax   Walltime
@ ---- ---------------- -------- -------- -------- -------- -------- --------
@    0    -266.44966746  0.0D+00  0.09441  0.02246  0.00000  0.00000     63.5
                                                                    



                                Z-matrix (user)
                                -------- 

 Units are Angstrom for bonds and degrees for angles

  Constants are marked with an asterisk (*).

  Constrained variables are marked with a plus sign (+).

 
      Type          Name      I     J     K     L     M      Value     Gradient
      ----------- --------  ----- ----- ----- ----- ----- ---------- ----------
    1 Stretch      R1          2     1                       1.32900   -0.02949
    2 Stretch      R2          3     2                       1.36300   -0.00025
    3 Bend         A1          3     2     1               124.50000   -0.00511
    4 Stretch      R5          4     1                       0.99400    0.01958
    5 Bend         A4          4     1     2               105.40000   -0.00759
    6*Torsion      D0          4     1     2     3           0.00000   -0.00000
    7 Stretch      R6          5     2                       1.08500   -0.00523
    8 Bend         A5          5     2     3               122.50000    0.00165
    9*Torsion      D180        5     2     3     4         180.00000   -0.00000
   10 Stretch      R7          6     3                       1.47800    0.00257
   11 Bend         A6          6     3     2               120.00000   -0.00419
   12*Torsion      D180        6     3     2     1         180.00000   -0.00000
   13 Stretch      R8          7     3                       1.09900    0.00116
   14 Bend         A7          7     3     2               117.60000   -0.00586
   15*Torsion      D0          7     3     2     1           0.00000   -0.00000
   16 Stretch      R9          8     6                       1.25000    0.01147
   17 Bend         A8          8     6     3               120.00000   -0.01077
   18*Torsion      D0          8     6     3     2           0.00000   -0.00000
   19 Stretch      R10         9     6                       1.00000   -0.09441
   20 Bend         A9          9     6     3               120.00000    0.00322
   21*Torsion      D180        9     6     3     2         180.00000   -0.00000
 
                                 NWChem SCF Module
                                 -----------------
 
 
                                H,CHO,H Reference 1
 
 

  ao basis        = "ao basis"
  functions       =   151
  atoms           =     9
  closed shells   =    19
  open shells     =     0
  charge          =   0.00
  wavefunction    = RHF 
  input vectors   = ./8cR1.movecs
  output vectors  = ./8cR1.movecs
  use symmetry    = T
  symmetry adapt  = T


 Summary of "ao basis" -> "ao basis" (spherical)
 ------------------------------------------------------------------------------
       Tag                 Description            Shells   Functions and Types
 ---------------- ------------------------------  ------  ---------------------
 O                        aug-cc-pVDZ                9       23   4s3p2d
 C                        aug-cc-pVDZ                9       23   4s3p2d
 H                        aug-cc-pVDZ                5        9   3s2p


      Symmetry analysis of basis
      --------------------------
 
        a'        108
        a"         43
 

int_init: setting std/high accuracies to  1.0D-16  1.0D-32

 Forming initial guess at      63.6s


 Forcing the number of linearly dependent vectors to be  0

 Loading old vectors from job with title :

H,CHO,H Reference 1

 
      Symmetry analysis of molecular orbitals - initial
      -------------------------------------------------
 
  Numbering of irreducible representations: 
 
     1 a'          2 a"      
 
  Orbital symmetries:
 
     1 a'          2 a'          3 a'          4 a'          5 a'      
     6 a'          7 a'          8 a'          9 a'         10 a'      
    11 a'         12 a'         13 a'         14 a"         15 a'      
    16 a'         17 a"         18 a'         19 a"         20 a'      
    21 a'         22 a'         23 a'         24 a"         25 a"      
    26 a'         27 a'         28 a"         29 a'      
 

 Starting SCF solution at      63.7s



 ----------------------------------------------
         Quadratically convergent ROHF

 Convergence threshold     :          1.000E-09
 Maximum no. of iterations :           99
 Final Fock-matrix accuracy:          1.000E-15
 ----------------------------------------------

 Warning: symmetry breaking in RHF:   6.799006506774735E-014

              iter       energy          gnorm     gmax       time
             ----- ------------------- --------- --------- --------
                 1     -265.6496029826  3.83D-01  5.60D-02     63.3
 Warning: symmetry breaking in RHF:   6.865740517916330E-014
                 2     -265.6608987647  2.71D-02  3.75D-03     66.0
 Warning: symmetry breaking in RHF:   6.870539393723209E-014
                 3     -265.6609782406  5.80D-04  2.60D-04     70.3
 Warning: symmetry breaking in RHF:   6.871438131429817E-014
                 4     -265.6609783353  1.68D-07  2.46D-08     78.1
 Warning: symmetry breaking in RHF:   6.871437967566306E-014
                 5     -265.6609783353  6.18D-11  1.60D-11     85.7


       Final RHF  results 
       ------------------ 

         Total SCF energy =   -265.660978335324
      One-electron energy =   -667.736216956719
      Two-electron energy =    247.980103720290
 Nuclear repulsion energy =    154.095134901105

        Time for solution =     23.4s


 
       Symmetry analysis of molecular orbitals - final
       -----------------------------------------------
 
  Numbering of irreducible representations: 
 
     1 a'          2 a"      
 
  Orbital symmetries:
 
     1 a'          2 a'          3 a'          4 a'          5 a'      
     6 a'          7 a'          8 a'          9 a'         10 a'      
    11 a'         12 a'         13 a'         14 a"         15 a'      
    16 a'         17 a"         18 a'         19 a"         20 a'      
    21 a'         22 a'         23 a'         24 a"         25 a"      
    26 a'         27 a'         28 a"         29 a'      
 
             Final eigenvalues
             -----------------

              1      
    1  -20.6397
    2  -20.5560
    3  -11.3568
    4  -11.3487
    5  -11.2542
    6   -1.4420
    7   -1.3722
    8   -1.0682
    9   -0.9041
   10   -0.8131
   11   -0.7133
   12   -0.6909
   13   -0.6373
   14   -0.6091
   15   -0.6003
   16   -0.5603
   17   -0.5267
   18   -0.4259
   19   -0.3691
   20    0.0248
   21    0.0417
   22    0.0519
   23    0.0662
   24    0.0663
   25    0.1034
   26    0.1116
   27    0.1248
   28    0.1313
   29    0.1319
 
                       ROHF Final Molecular Orbital Analysis
                       -------------------------------------
 
 Vector    6  Occ=2.000000D+00  E=-1.442016D+00  Symmetry=a'
              MO Center= -1.2D-01,  2.1D+00,  1.0D-34, r^2= 5.8D-01
   Bfn.  Coefficient  Atom+Function         Bfn.  Coefficient  Atom+Function  
  ----- ------------  ---------------      ----- ------------  ---------------
     3      0.474840  1 O  s                  2      0.419418  1 O  s          
    70      0.192183  4 H  s                 27     -0.184791  2 C  s          
    32     -0.161124  2 C  py                49     -0.154666  3 C  s          
 
 Vector    7  Occ=2.000000D+00  E=-1.372193D+00  Symmetry=a'
              MO Center= -3.6D-01, -1.8D+00,  1.3D-17, r^2= 5.7D-01
   Bfn.  Coefficient  Atom+Function         Bfn.  Coefficient  Atom+Function  
  ----- ------------  ---------------      ----- ------------  ---------------
   122      0.451448  8 O  s                121      0.398490  8 O  s          
    89      0.217932  6 C  s                 90      0.217663  6 C  s          
    26     -0.160823  2 C  s                 55      0.160628  3 C  py         
    92     -0.159894  6 C  px         
 
 Vector    8  Occ=2.000000D+00  E=-1.068238D+00  Symmetry=a'
              MO Center=  2.8D-01,  1.9D-01, -2.5D-18, r^2= 1.6D+00
   Bfn.  Coefficient  Atom+Function         Bfn.  Coefficient  Atom+Function  
  ----- ------------  ---------------      ----- ------------  ---------------
    48      0.308478  3 C  s                 50     -0.294939  3 C  s          
    25      0.244617  2 C  s                 49      0.187972  3 C  s          
    91      0.180528  6 C  s                 26      0.160033  2 C  s          
 
 Vector    9  Occ=2.000000D+00  E=-9.040870D-01  Symmetry=a'
              MO Center=  1.3D-01,  3.4D-01,  7.5D-17, r^2= 3.4D+00
   Bfn.  Coefficient  Atom+Function         Bfn.  Coefficient  Atom+Function  
  ----- ------------  ---------------      ----- ------------  ---------------
    26      0.309616  2 C  s                 25      0.250073  2 C  s          
    90     -0.217779  6 C  s                  6     -0.206224  1 O  py         
    89     -0.207137  6 C  s                 70     -0.188592  4 H  s          
    79      0.165234  5 H  s                 49     -0.161695  3 C  s          
    52      0.152883  3 C  py         
 
 Vector   10  Occ=2.000000D+00  E=-8.131198D-01  Symmetry=a'
              MO Center=  1.9D-01,  2.3D-01,  4.5D-31, r^2= 4.0D+00
   Bfn.  Coefficient  Atom+Function         Bfn.  Coefficient  Atom+Function  
  ----- ------------  ---------------      ----- ------------  ---------------
     5      0.254942  1 O  px                90     -0.242086  6 C  s          
    89     -0.217698  6 C  s                 70      0.213967  4 H  s          
    28      0.206936  2 C  px               143     -0.188850  9 H  s          
[...]
          12     0.10549     0.00000     0.18790    -0.14817     0.00000     0.00000
          13     0.00000     0.02856     0.00000     0.00000     0.03599     0.11513
          14     0.00000     0.05728     0.00000     0.00000    -0.12572     0.05552
          15     0.22424     0.00000    -0.08231     0.17011     0.00000     0.00000
          16     0.00000     0.08744     0.00000     0.00000     0.12330     0.02742
          17     0.00000     0.11011     0.00000     0.00000    -0.04737    -0.02319
          18    -0.07478     0.00000     0.14876     0.07874     0.00000     0.00000
          19     0.00000     0.03488     0.00000     0.00000     0.04536     0.10572
          20     0.00000     0.14896     0.00000     0.00000     0.01024    -0.08106
          21    -0.12140     0.00000     0.32123    -0.15113     0.00000     0.00000
          22     0.00000     0.10238     0.00000     0.00000     0.14546     0.00516
          23     0.00000     0.07698     0.00000     0.00000    -0.09650     0.02617
          24     0.01899     0.00000     0.00247     0.22406     0.00000     0.00000
          25     0.00000     0.10664     0.00000     0.00000     0.15178    -0.00119
          26     0.00000     0.13676     0.00000     0.00000    -0.00785    -0.06290
          27    -0.20665     0.00000     0.26561     0.01483     0.00000     0.00000

                    7           8           9          10          11          12
 
 P.Frequency      164.60      203.95      250.37      442.05      537.05      735.25
 
           1     0.00000     0.09087     0.00000    -0.08521     0.00000    -0.01964
           2     0.00000     0.07093     0.00000     0.09749     0.00000     0.08952
           3     0.02483     0.00000    -0.10128     0.00000    -0.08665     0.00000
           4     0.00000    -0.06542     0.00000     0.12691     0.00000    -0.02645
           5     0.00000     0.07562     0.00000     0.06527     0.00000     0.02067
           6    -0.11148     0.00000     0.12298     0.00000     0.08253     0.00000
           7     0.00000    -0.11762     0.00000     0.07168     0.00000    -0.06252
           8     0.00000     0.01381     0.00000    -0.01784     0.00000    -0.09709
           9     0.06432     0.00000     0.15262     0.00000    -0.02076     0.00000
          10     0.00000     0.12308     0.00000    -0.13820     0.00000    -0.02351
          11     0.00000    -0.04677     0.00000     0.29611     0.00000     0.11055
          12     0.35415     0.00000    -0.26045     0.00000     0.83959     0.00000
          13     0.00000    -0.10247     0.00000     0.14725     0.00000    -0.06638
          14     0.00000     0.18860     0.00000    -0.00544     0.00000     0.13965
          15    -0.40083     0.00000     0.20393     0.00000     0.10194     0.00000
          16     0.00000    -0.00963     0.00000    -0.05244     0.00000     0.10911
          17     0.00000    -0.00730     0.00000    -0.04593     0.00000    -0.16172
          18    -0.09827     0.00000    -0.08589     0.00000     0.01106     0.00000
          19     0.00000    -0.11808     0.00000     0.12118     0.00000    -0.08573
          20     0.00000     0.02327     0.00000    -0.17244     0.00000    -0.00609
          21     0.25484     0.00000     0.05884     0.00000    -0.26110     0.00000
          22     0.00000     0.05557     0.00000    -0.02975     0.00000     0.01252
          23     0.00000    -0.14907     0.00000    -0.10356     0.00000     0.08904
          24     0.09710     0.00000    -0.01542     0.00000    -0.01095     0.00000
          25     0.00000     0.06742     0.00000    -0.04578     0.00000     0.04873
          26     0.00000     0.09717     0.00000    -0.03978     0.00000    -0.24252
          27    -0.41177     0.00000    -0.40928     0.00000     0.00129     0.00000

                   13          14          15          16          17          18
 
 P.Frequency      801.76      997.50     1002.11     1007.42     1142.25     1282.29
 
           1     0.00000     0.00000     0.01049     0.00000     0.01040     0.03181
           2     0.00000     0.00000     0.03830     0.00000    -0.11744     0.09309
           3    -0.03706    -0.00540     0.00000    -0.00005     0.00000     0.00000
           4     0.00000     0.00000    -0.06515     0.00000     0.07050    -0.02331
           5     0.00000     0.00000    -0.01913     0.00000     0.05832    -0.17096
           6     0.11884     0.07211     0.00000    -0.08936     0.00000     0.00000
           7     0.00000     0.00000     0.11279     0.00000    -0.04193     0.02878
           8     0.00000     0.00000     0.12813     0.00000     0.02585    -0.08633
           9    -0.12071     0.05129     0.00000     0.05038     0.00000     0.00000
          10     0.00000     0.00000     0.07367     0.00000    -0.16181    -0.05015
          11     0.00000     0.00000    -0.18842     0.00000     0.47929     0.38940
          12     0.02459    -0.09022     0.00000     0.13011     0.00000     0.00000
          13     0.00000     0.00000    -0.04603     0.00000    -0.01825    -0.08394
          14     0.00000     0.00000    -0.08407     0.00000     0.35345     0.00095
          15    -0.13440    -0.51506     0.00000     0.64051     0.00000     0.00000
          16     0.00000     0.00000     0.01545     0.00000     0.01007    -0.03122
          17     0.00000     0.00000    -0.10034     0.00000    -0.02416     0.07426
          18    -0.03702    -0.12703     0.00000    -0.12144     0.00000     0.00000
          19     0.00000     0.00000     0.00906     0.00000    -0.18229    -0.11975
          20     0.00000     0.00000     0.49150     0.00000     0.46256     0.34333
          21     0.75429    -0.32201     0.00000     0.20555     0.00000     0.00000
          22     0.00000     0.00000    -0.05371     0.00000    -0.01623     0.00417
          23     0.00000     0.00000    -0.04239     0.00000    -0.00666    -0.00923
          24     0.01661     0.03125     0.00000     0.03020     0.00000     0.00000
          25     0.00000     0.00000    -0.10183     0.00000    -0.00520    -0.01066
          26     0.00000     0.00000    -0.25729     0.00000    -0.04017     0.11471
          27     0.14311     0.56016     0.00000     0.45544     0.00000     0.00000

                   19          20          21          22          23          24
 
 P.Frequency     1312.72     1389.73     1420.08     1669.19     1720.35     2981.01
 
           1    -0.00208     0.06200     0.01637     0.00825    -0.01074    -0.00025
           2    -0.01804    -0.01813    -0.00507    -0.02109     0.02326     0.00051
           3     0.00000     0.00000     0.00000     0.00000     0.00000     0.00000
           4    -0.08888    -0.07397    -0.03356    -0.08583     0.07935     0.00042
           5    -0.01961    -0.01166    -0.01565     0.12103    -0.09870    -0.00066
           6     0.00000     0.00000     0.00000     0.00000     0.00000     0.00000
           7     0.10424    -0.03015     0.02980     0.06927    -0.08538     0.00209
           8     0.00898     0.08995     0.04250    -0.12642     0.07679    -0.00074
           9     0.00000     0.00000     0.00000     0.00000     0.00000     0.00000
          10    -0.04418    -0.11676    -0.03199    -0.01751     0.02064     0.00215
          11     0.11978     0.57977     0.15413     0.06973    -0.07306    -0.00070
          12     0.00000     0.00000     0.00000     0.00000     0.00000     0.00000
          13    -0.31519     0.05460    -0.04062    -0.00142     0.01748     0.00464
          14     0.66458    -0.43920    -0.00536    -0.20343     0.16131    -0.00070
          15     0.00000     0.00000     0.00000     0.00000     0.00000     0.00000
          16    -0.00519     0.01012     0.04060     0.11718     0.15587    -0.06212
          17     0.01724    -0.02129    -0.07623     0.09808     0.07184     0.05075
          18     0.00000     0.00000     0.00000     0.00000     0.00000     0.00000
          19     0.22131     0.09886     0.08735     0.01451    -0.02920    -0.04082
          20    -0.34364    -0.32975    -0.11484     0.09693    -0.16969    -0.00337
          21     0.00000     0.00000     0.00000     0.00000     0.00000     0.00000
          22     0.00979     0.01539    -0.08070    -0.08236    -0.09964    -0.00091
          23    -0.00660     0.00223     0.00126    -0.04192    -0.04457    -0.00088
          24     0.00000     0.00000     0.00000     0.00000     0.00000     0.00000
          25    -0.10542    -0.14563     0.56766    -0.01752    -0.04133     0.76224
          26    -0.12835    -0.23720     0.61435    -0.06692    -0.17487    -0.57690
          27     0.00000     0.00000     0.00000     0.00000     0.00000     0.00000

                   25          26          27
 
 P.Frequency     3210.13     3255.44     3773.41
 
           1    -0.00050    -0.00228    -0.05741
           2     0.00049    -0.00090    -0.01777
           3     0.00000     0.00000     0.00000
           4     0.00565     0.08117    -0.00347
           5    -0.00516     0.02176     0.00002
           6     0.00000     0.00000     0.00000
           7    -0.08062    -0.00242     0.00082
           8    -0.02265     0.00393     0.00130
           9     0.00000     0.00000     0.00000
          10     0.00576     0.02349     0.92839
          11     0.00639    -0.00209     0.26894
          12     0.00000     0.00000     0.00000
          13    -0.01541    -0.90874     0.02081
          14    -0.00390    -0.28447     0.00519
          15     0.00000     0.00000     0.00000
          16    -0.00229     0.00074    -0.00031
          17     0.00516     0.00008    -0.00066
          18     0.00000     0.00000     0.00000
          19     0.90806    -0.02127    -0.00490
          20     0.28530    -0.00505    -0.00388
          21     0.00000     0.00000     0.00000
          22     0.00017    -0.00036     0.00022
          23    -0.00003     0.00014     0.00015
          24     0.00000     0.00000     0.00000
          25     0.02669     0.00196    -0.00150
          26    -0.02541    -0.00336     0.00152
          27     0.00000     0.00000     0.00000



 ----------------------------------------------------------------------------
 Normal Eigenvalue ||    Projected Derivative Dipole Moments (debye/angs)
  Mode   [cm**-1]  ||      [d/dqX]             [d/dqY]           [d/dqZ]
 ------ ---------- || ------------------ ------------------ -----------------
    1       -0.000 ||       0.000               0.000            -0.188
    2       -0.000 ||      -0.069               0.086             0.000
    3        0.000 ||       0.000               0.000             0.379
    4        0.000 ||       0.000               0.000            -0.427
    5        0.000 ||      -0.102               0.127             0.000
    6        0.000 ||       0.103              -0.128             0.000
    7      164.601 ||       0.000               0.000             0.014
    8      203.950 ||      -0.212               0.132             0.000
    9      250.365 ||       0.000               0.000             0.415
   10      442.047 ||       0.212               0.379             0.000
   11      537.054 ||       0.000               0.000             1.338
   12      735.254 ||       0.145              -1.296             0.000
   13      801.763 ||       0.000               0.000             0.782
   14      997.503 ||       0.000               0.000            -0.739
   15     1002.115 ||       0.037              -1.636             0.000
   16     1007.421 ||       0.000               0.000             0.797
   17     1142.245 ||      -0.055               1.825             0.000
   18     1282.287 ||       0.175              -0.492             0.000
   19     1312.720 ||      -0.269               0.865             0.000
   20     1389.729 ||       0.062               0.005             0.000
   21     1420.079 ||       0.245              -0.144             0.000
   22     1669.186 ||       0.331               3.548             0.000
   23     1720.346 ||       1.292              -0.670             0.000
   24     2981.005 ||      -1.348               1.084             0.000
   25     3210.125 ||      -0.317              -0.371             0.000
   26     3255.439 ||      -0.065               0.097             0.000
   27     3773.408 ||       0.743               1.128             0.000
 ----------------------------------------------------------------------------



  
  
 ----------------------------------------------------------------------------
 Normal Eigenvalue ||           Projected Infra Red Intensities
  Mode   [cm**-1]  || [atomic units] [(debye/angs)**2] [(KM/mol)] [arbitrary]
 ------ ---------- || -------------- ----------------- ---------- -----------
    1       -0.000 ||    0.001525           0.035         1.487       0.286
    2       -0.000 ||    0.000525           0.012         0.512       0.098
    3        0.000 ||    0.006232           0.144         6.075       1.169
    4        0.000 ||    0.007920           0.183         7.721       1.486
    5        0.000 ||    0.001154           0.027         1.125       0.217
    6        0.000 ||    0.001165           0.027         1.136       0.219
    7      164.601 ||    0.000009           0.000         0.008       0.002
    8      203.950 ||    0.002704           0.062         2.636       0.507
    9      250.365 ||    0.007480           0.173         7.292       1.403
   10      442.047 ||    0.008168           0.188         7.962       1.532
   11      537.054 ||    0.077556           1.789        75.606      14.549
   12      735.254 ||    0.073767           1.702        71.911      13.838
   13      801.763 ||    0.026478           0.611        25.813       4.967
   14      997.503 ||    0.023666           0.546        23.071       4.440
   15     1002.115 ||    0.116015           2.677       113.097      21.764
   16     1007.421 ||    0.027504           0.635        26.812       5.160
   17     1142.245 ||    0.144548           3.335       140.913      27.117
   18     1282.287 ||    0.011827           0.273        11.530       2.219
   19     1312.720 ||    0.035548           0.820        34.654       6.669
   20     1389.729 ||    0.000169           0.004         0.165       0.032
   21     1420.079 ||    0.003498           0.081         3.410       0.656
   22     1669.186 ||    0.550311          12.696       536.471     103.237
   23     1720.346 ||    0.091832           2.119        89.522      17.227
   24     2981.005 ||    0.129672           2.992       126.410      24.326
   25     3210.125 ||    0.010313           0.238        10.053       1.935
   26     3255.439 ||    0.000591           0.014         0.576       0.111
   27     3773.408 ||    0.079080           1.824        77.091      14.835
 ----------------------------------------------------------------------------



 vib:animation  F

 Task  times  cpu:     2727.5s     wall:     2767.3s
 
 
                                NWChem Input Module
                                -------------------
 
 
 Summary of allocated global arrays
-----------------------------------
  No active global arrays



                         GA Statistics for process    0
                         ------------------------------

       create   destroy   get      put      acc     scatter   gather  read&inc
calls: 6.19e+04 6.19e+04 5.25e+06 8.89e+05 2.05e+06    0        0     7.87e+04 
number of processes/call 1.84e+01 5.12e+01 2.21e+01 0.00e+00 0.00e+00
bytes total:             5.34e+09 6.47e+09 1.55e+09 0.00e+00 0.00e+00 6.29e+05
bytes remote:            3.31e+09 4.44e+09 1.22e+09 0.00e+00 0.00e+00 0.00e+00
Max memory consumed for GA by this process: 61382856 bytes
 
MA_summarize_allocated_blocks: starting scan ...
MA_summarize_allocated_blocks: scan completed: 0 heap blocks, 0 stack blocks
MA usage statistics:

	allocation statistics:
					      heap	     stack
					      ----	     -----
	current number of blocks	         0	         0
	maximum number of blocks	        25	        39
	current total bytes		         0	         0
	maximum total bytes		  51845232	  27107528
	maximum total K-bytes		     51846	     27108
	maximum total M-bytes		        52	        28
 
 
                                     CITATION
                                     --------
                Please cite the following reference when publishing
                           results obtained with NWChem:
 
          E. Apr, E. J. Bylaska, W. A. de Jong, N. Govind, K. Kowalski,
       T. P. Straatsma, M. Valiev, H. J. J. van Dam, Y. Alexeev, J. Anchell,
       V. Anisimov, F. W. Aquino, R. Atta-Fynn, J. Autschbach, N. P. Bauman,
     J. C. Becca, D. E. Bernholdt, K. Bhaskaran-Nair, S. Bogatko, P. Borowski,
        J. Boschen, J. Brabec, A. Bruner, E. Caut, Y. Chen, G. N. Chuev,
      C. J. Cramer, J. Daily, M. J. O. Deegan, T. H. Dunning Jr., M. Dupuis,
   K. G. Dyall, G. I. Fann, S. A. Fischer, A. Fonari, H. Frchtl, L. Gagliardi,
      J. Garza, N. Gawande, S. Ghosh, K. Glaesemann, A. W. Gtz, J. Hammond,
       V. Helms, E. D. Hermes, K. Hirao, S. Hirata, M. Jacquelin, L. Jensen,
   B. G. Johnson, H. Jnsson, R. A. Kendall, M. Klemm, R. Kobayashi, V. Konkov,
      S. Krishnamoorthy, M. Krishnan, Z. Lin, R. D. Lins, R. J. Littlefield,
      A. J. Logsdail, K. Lopata, W. Ma, A. V. Marenich, J. Martin del Campo,
   D. Mejia-Rodriguez, J. E. Moore, J. M. Mullin, T. Nakajima, D. R. Nascimento,
    J. A. Nichols, P. J. Nichols, J. Nieplocha, A. Otero-de-la-Roza, B. Palmer,
    A. Panyala, T. Pirojsirikul, B. Peng, R. Peverati, J. Pittner, L. Pollack,
   R. M. Richard, P. Sadayappan, G. C. Schatz, W. A. Shelton, D. W. Silverstein,
   D. M. A. Smith, T. A. Soares, D. Song, M. Swart, H. L. Taylor, G. S. Thomas,
            V. Tipparaju, D. G. Truhlar, K. Tsemekhman, T. Van Voorhis,
     . Vzquez-Mayagoitia, P. Verma, O. Villa, A. Vishnu, K. D. Vogiatzis,
        D. Wang, J. H. Weare, M. J. Williamson, T. L. Windus, K. Woliski,
        A. T. Wong, Q. Wu, C. Yang, Q. Yu, M. Zacharias, Z. Zhang, Y. Zhao,
                                and R. J. Harrison
                        "NWChem: Past, present, and future
                         J. Chem. Phys. 152, 184102 (2020)
                               doi:10.1063/5.0004997
 
                                      AUTHORS
                                      -------
     E. Apra, E. J. Bylaska, N. Govind, K. Kowalski, M. Valiev, W. A. de Jong,
      T. P. Straatsma, H. J. J. van Dam, D. Wang, T. L. Windus, N. P. Bauman,
       A. Panyala, J. Hammond, J. Autschbach, K. Bhaskaran-Nair, J. Brabec,
    K. Lopata, S. A. Fischer, S. Krishnamoorthy, M. Jacquelin, W. Ma, M. Klemm,
       O. Villa, Y. Chen, V. Anisimov, F. Aquino, S. Hirata, M. T. Hackler,
           Eric Hermes, L. Jensen, J. E. Moore, J. C. Becca, V. Konjkov,
            D. Mejia-Rodriguez, T. Risthaus, M. Malagoli, A. Marenich,
   A. Otero-de-la-Roza, J. Mullin, P. Nichols, R. Peverati, J. Pittner, Y. Zhao,
        P.-D. Fan, A. Fonari, M. J. Williamson, R. J. Harrison, J. R. Rehr,
      M. Dupuis, D. Silverstein, D. M. A. Smith, J. Nieplocha, V. Tipparaju,
      M. Krishnan, B. E. Van Kuiken, A. Vazquez-Mayagoitia, M. Swart, Q. Wu,
   T. Van Voorhis, A. A. Auer, M. Nooijen, L. D. Crosby, E. Brown, G. Cisneros,
     G. I. Fann, H. Fruchtl, J. Garza, K. Hirao, R. A. Kendall, J. A. Nichols,
       K. Tsemekhman, K. Wolinski, J. Anchell, D. E. Bernholdt, P. Borowski,
       T. Clark, D. Clerc, H. Dachsel, M. J. O. Deegan, K. Dyall, D. Elwood,
      E. Glendening, M. Gutowski, A. C. Hess, J. Jaffe, B. G. Johnson, J. Ju,
        R. Kobayashi, R. Kutteh, Z. Lin, R. Littlefield, X. Long, B. Meng,
      T. Nakajima, S. Niu, L. Pollack, M. Rosing, K. Glaesemann, G. Sandrone,
      M. Stave, H. Taylor, G. Thomas, J. H. van Lenthe, A. T. Wong, Z. Zhang.

 Total times  cpu:     3394.0s     wall:     3445.1s
