 argument  1 = 8cR2.nw
 


============================== echo of input deck ==============================
echo
start 8cR2
title "H,CHO,H Reference 2"
charge 0

geometry
 zmatrix
  O
  C  1  R1
  C  2  R2  1  A1
  H  1  R5  2  A4  3  D180
  H  2  R6  3  A5  4  D180
  C  3  R7  2  A6  1  D180
  H  3  R8  2  A7  1  D0
  O  6  R9  3  A8  2  D0
  H  6  R10 3  A9  2  D180
  variables
    R1  1.329
    R2  1.363
    A1  124.5
    R5  0.994
    A4  105.4
    R6  1.085
    A5  122.5
    R7  1.478
    A6  120.0
    R8  1.099
    A7  117.6
    R9  1.250
    A8  120.0
    R10 1.000
    A9  120.0
  constants
    D0  0.000
    D180 180.0
 end
end

basis spherical
 * library aug-cc-pVDZ
end

set lindep:n_dep 0

set cphf:maxsub 95
set cphf:maxiter 999
set int:acc_std 1d-16
set fock:densityscreen f

scf
 maxiter 99
 vectors input atomic
 thresh 1d-9
 tol2e 1d-15
end

mp2
 freeze atomic
 tight
end

driver
 clear
 maxiter 99
 tight
end

set "mp2:aotol2e fock" 1d-15
set mp2:aotol2e 1d-15
set mp2:backtol 1d-15


task mp2 optimize
task mp2 frequencies

================================================================================


                                         
                                         
 
 
             Northwest Computational Chemistry Package (NWChem) 7.0.0
             --------------------------------------------------------
 
 
                    Environmental Molecular Sciences Laboratory
                       Pacific Northwest National Laboratory
                                Richland, WA 99352
 
                              Copyright (c) 1994-2020
                       Pacific Northwest National Laboratory
                            Battelle Memorial Institute
 
             NWChem is an open-source computational chemistry package
                        distributed under the terms of the
                      Educational Community License (ECL) 2.0
             A copy of the license is included with this distribution
                              in the LICENSE.TXT file
 
                                  ACKNOWLEDGMENT
                                  --------------

            This software and its documentation were developed at the
            EMSL at Pacific Northwest National Laboratory, a multiprogram
            national laboratory, operated for the U.S. Department of Energy
            by Battelle under Contract Number DE-AC05-76RL01830. Support
            for this work was provided by the Department of Energy Office
            of Biological and Environmental Research, Office of Basic
            Energy Sciences, and the Office of Advanced Scientific Computing.


           Job information
           ---------------

    hostname        = compute-0-15.local
    program         = /scratch/nwchem.277679
    date            = Wed Mar 31 12:17:40 2021

    compiled        = Wed_Mar_31_10:43:23_2021
    source          = /home/edo/nwchem-7.0.1
    nwchem branch   = 7.0.1
    nwchem revision = de46fdf
    ga revision     = 5.7.1
    use scalapack   = T
    input           = 8cR2.nw
    prefix          = 8cR2.
    data base       = ./8cR2.db
    status          = startup
    nproc           =       11
    time left       =     -1s



           Memory information
           ------------------

    heap     =  215205459 doubles =   1641.9 Mbytes
    stack    =  215205461 doubles =   1641.9 Mbytes
    global   =  122974549 doubles =    938.2 Mbytes (distinct from heap & stack)
    total    =  553385469 doubles =   4222.0 Mbytes
    verify   = yes
    hardfail = no 


           Directory information
           ---------------------
 
  0 permanent = .
  0 scratch   = /scratch
 
 
 
 
                                NWChem Input Module
                                -------------------
 
 
                                H,CHO,H Reference 2
                                -------------------

 Scaling coordinates for geometry "geometry" by  1.889725989
 (inverse scale =  0.529177249)

 CS  symmetry detected
 
 
                             Geometry "geometry" -> ""
                             -------------------------
 
 Output coordinates in angstroms (scale by  1.889725989 to convert to a.u.)
 
  No.       Tag          Charge          X              Y              Z
 ---- ---------------- ---------- -------------- -------------- --------------
    1 O                    8.0000    -0.11785178     2.18874622     0.00000000
    2 C                    6.0000    -0.26701791     0.86814391     0.00000000
    3 C                    6.0000     0.76251817    -0.02506630     0.00000000
    4 H                    1.0000    -1.04048022     2.55860128     0.00000000
    5 H                    1.0000    -1.30703791     0.55897827     0.00000000
    6 C                    6.0000     0.48190996    -1.47618415     0.00000000
    7 H                    1.0000     1.78535905     0.37692566     0.00000000
    8 O                    8.0000    -0.69959295    -1.88429062     0.00000000
    9 H                    1.0000     1.23725557    -2.13151079     0.00000000
 
      Atomic Mass 
      ----------- 
 
      O                 15.994910
      C                 12.000000
      H                  1.007825
 

 Effective nuclear repulsion energy (a.u.)     156.0361021967

            Nuclear Dipole moment (a.u.) 
            ----------------------------
        X                 Y               Z
 ---------------- ---------------- ----------------
    -0.0000000000    -0.0000000000     0.0000000000
 
      Symmetry information
      --------------------
 
 Group name             Cs        
 Group number              2
 Group order               2
 No. of unique centers     9
 
      Symmetry unique atoms
 
     1    2    3    4    5    6    7    8    9
 


                                Z-matrix (user)
                                -------- 

 Units are Angstrom for bonds and degrees for angles

  Constants are marked with an asterisk (*).

  Constrained variables are marked with a plus sign (+).

 
      Type          Name      I     J     K     L     M      Value
      ----------- --------  ----- ----- ----- ----- ----- ----------
    1 Stretch      R1          2     1                       1.32900
    2 Stretch      R2          3     2                       1.36300
    3 Bend         A1          3     2     1               124.50000
    4 Stretch      R5          4     1                       0.99400
    5 Bend         A4          4     1     2               105.40000
    6*Torsion      D180        4     1     2     3         180.00000
    7 Stretch      R6          5     2                       1.08500
    8 Bend         A5          5     2     3               122.50000
    9*Torsion      D180        5     2     3     4         180.00000
   10 Stretch      R7          6     3                       1.47800
   11 Bend         A6          6     3     2               120.00000
   12*Torsion      D180        6     3     2     1         180.00000
   13 Stretch      R8          7     3                       1.09900
   14 Bend         A7          7     3     2               117.60000
   15*Torsion      D0          7     3     2     1           0.00000
   16 Stretch      R9          8     6                       1.25000
   17 Bend         A8          8     6     3               120.00000
   18*Torsion      D0          8     6     3     2           0.00000
   19 Stretch      R10         9     6                       1.00000
   20 Bend         A9          9     6     3               120.00000
   21*Torsion      D180        9     6     3     2         180.00000
 
 
            XYZ format geometry
            -------------------
     9
 geometry
 O                    -0.11785178     2.18874622     0.00000000
 C                    -0.26701791     0.86814391     0.00000000
 C                     0.76251817    -0.02506630     0.00000000
 H                    -1.04048022     2.55860128     0.00000000
 H                    -1.30703791     0.55897827     0.00000000
 C                     0.48190996    -1.47618415     0.00000000
 H                     1.78535905     0.37692566     0.00000000
 O                    -0.69959295    -1.88429062     0.00000000
 H                     1.23725557    -2.13151079     0.00000000
 
 ==============================================================================
                                internuclear distances
 ------------------------------------------------------------------------------
       center one      |      center two      | atomic units |  angstroms
 ------------------------------------------------------------------------------
    2 C                |   1 O                |     2.51145  |     1.32900
    3 C                |   2 C                |     2.57570  |     1.36300
    4 H                |   1 O                |     1.87839  |     0.99400
    5 H                |   2 C                |     2.05035  |     1.08500
    6 C                |   3 C                |     2.79302  |     1.47800
    7 H                |   3 C                |     2.07681  |     1.09900
    8 O                |   6 C                |     2.36216  |     1.25000
    9 H                |   6 C                |     1.88973  |     1.00000
 ------------------------------------------------------------------------------
                         number of included internuclear distances:          8
 ==============================================================================



 ==============================================================================
                                 internuclear angles
 ------------------------------------------------------------------------------
        center 1       |       center 2       |       center 3       |  degrees
 ------------------------------------------------------------------------------
    2 C                |   1 O                |   4 H                |   105.40
    1 O                |   2 C                |   3 C                |   124.50
    1 O                |   2 C                |   5 H                |   113.00
    3 C                |   2 C                |   5 H                |   122.50
    2 C                |   3 C                |   6 C                |   120.00
    2 C                |   3 C                |   7 H                |   117.60
    6 C                |   3 C                |   7 H                |   122.40
    3 C                |   6 C                |   8 O                |   120.00
    3 C                |   6 C                |   9 H                |   120.00
    8 O                |   6 C                |   9 H                |   120.00
 ------------------------------------------------------------------------------
                            number of included internuclear angles:         10
 ==============================================================================





 Summary of "ao basis" -> "" (spherical)
 ------------------------------------------------------------------------------
       Tag                 Description            Shells   Functions and Types
 ---------------- ------------------------------  ------  ---------------------
 *                        aug-cc-pVDZ                 on all atoms 


 
  Deleted DRIVER restart files 
 
 
 
                           NWChem Geometry Optimization
                           ----------------------------
 
 
 
 
                                H,CHO,H Reference 2
 
 
 maximum gradient threshold         (gmax) =   0.000015
 rms gradient threshold             (grms) =   0.000010
 maximum cartesian step threshold   (xmax) =   0.000060
 rms cartesian step threshold       (xrms) =   0.000040
 fixed trust radius                (trust) =   0.300000
 maximum step size to saddle      (sadstp) =   0.100000
 energy precision                  (eprec) =   1.0D-07
 maximum number of steps          (nptopt) =   99
 initial hessian option           (inhess) =    0
 line search option               (linopt) =    1
 hessian update option            (modupd) =    1
 saddle point option              (modsad) =    0
 initial eigen-mode to follow     (moddir) =    0
 initial variable to follow       (vardir) =    0
 follow first negative mode     (firstneg) =    T
 apply conjugacy                    (opcg) =    F
 source of zmatrix                         =   user    


          -------------------
          Energy Minimization
          -------------------

 
 Names of Z-matrix variables 
    1 R1           2 R2           3 A1           4 R5           5 A4      
    6 D180         7 R6           8 A5           9 D180        10 R7      
   11 A6          12 D180        13 R8          14 A7          15 D0      
   16 R9          17 A8          18 D0          19 R10         20 A9      
   21 D180    
 
 Variables with the same non-blank name are constrained to be equal
 
     variables named     D180 =     6    9   12   21 
     variables named       D0 =    15   18 

 Number of frozen variables =    6
           Frozen variables =    6    9   12   15   18   21
 
 Using diagonal initial Hessian 
 Scaling for Hessian diagonals: bonds = 1.00  angles = 0.25  torsions = 0.10

          --------
          Step   0
          --------
 
 
                         Geometry "geometry" -> "geometry"
                         ---------------------------------
 
 Output coordinates in angstroms (scale by  1.889725989 to convert to a.u.)
 
  No.       Tag          Charge          X              Y              Z
 ---- ---------------- ---------- -------------- -------------- --------------
    1 O                    8.0000    -0.11785178     2.18874622     0.00000000
    2 C                    6.0000    -0.26701791     0.86814391     0.00000000
    3 C                    6.0000     0.76251817    -0.02506630     0.00000000
    4 H                    1.0000    -1.04048022     2.55860128     0.00000000
    5 H                    1.0000    -1.30703791     0.55897827     0.00000000
    6 C                    6.0000     0.48190996    -1.47618415     0.00000000
    7 H                    1.0000     1.78535905     0.37692566     0.00000000
    8 O                    8.0000    -0.69959295    -1.88429062     0.00000000
    9 H                    1.0000     1.23725557    -2.13151079     0.00000000
 
      Atomic Mass 
      ----------- 
 
      O                 15.994910
      C                 12.000000
      H                  1.007825
 

 Effective nuclear repulsion energy (a.u.)     156.0361021967

            Nuclear Dipole moment (a.u.) 
            ----------------------------
        X                 Y               Z
 ---------------- ---------------- ----------------
    -0.0000000000    -0.0000000000     0.0000000000
 
      Symmetry information
      --------------------
 
 Group name             Cs        
 Group number              2
 Group order               2
 No. of unique centers     9
 
      Symmetry unique atoms
 
     1    2    3    4    5    6    7    8    9
 
                      Basis "ao basis" -> "ao basis" (spherical)
                      -----
  O (Oxygen)
  ----------
            Exponent  Coefficients 
       -------------- ---------------------------------------------------------
  1 S  1.17200000E+04  0.000710
  1 S  1.75900000E+03  0.005470
  1 S  4.00800000E+02  0.027837
  1 S  1.13700000E+02  0.104800
  1 S  3.70300000E+01  0.283062
  1 S  1.32700000E+01  0.448719
  1 S  5.02500000E+00  0.270952
  1 S  1.01300000E+00  0.015458
 
  2 S  1.17200000E+04 -0.000160
  2 S  1.75900000E+03 -0.001263
  2 S  4.00800000E+02 -0.006267
  2 S  1.13700000E+02 -0.025716
  2 S  3.70300000E+01 -0.070924
  2 S  1.32700000E+01 -0.165411
  2 S  5.02500000E+00 -0.116955
  2 S  1.01300000E+00  0.557368
 
  3 S  3.02300000E-01  1.000000
 
  4 S  7.89600000E-02  1.000000
 
  5 P  1.77000000E+01  0.043018
  5 P  3.85400000E+00  0.228913
  5 P  1.04600000E+00  0.508728
 
  6 P  2.75300000E-01  1.000000
 
  7 P  6.85600000E-02  1.000000
 
  8 D  1.18500000E+00  1.000000
 
  9 D  3.32000000E-01  1.000000
 
  C (Carbon)
  ----------
            Exponent  Coefficients 
       -------------- ---------------------------------------------------------
  1 S  6.66500000E+03  0.000692
  1 S  1.00000000E+03  0.005329
  1 S  2.28000000E+02  0.027077
  1 S  6.47100000E+01  0.101718
  1 S  2.10600000E+01  0.274740
  1 S  7.49500000E+00  0.448564
  1 S  2.79700000E+00  0.285074
  1 S  5.21500000E-01  0.015204
 
  2 S  6.66500000E+03 -0.000146
  2 S  1.00000000E+03 -0.001154
  2 S  2.28000000E+02 -0.005725
  2 S  6.47100000E+01 -0.023312
  2 S  2.10600000E+01 -0.063955
  2 S  7.49500000E+00 -0.149981
  2 S  2.79700000E+00 -0.127262
  2 S  5.21500000E-01  0.544529
 
  3 S  1.59600000E-01  1.000000
 
  4 S  4.69000000E-02  1.000000
 
  5 P  9.43900000E+00  0.038109
  5 P  2.00200000E+00  0.209480
  5 P  5.45600000E-01  0.508557
 
  6 P  1.51700000E-01  1.000000
 
  7 P  4.04100000E-02  1.000000
 
  8 D  5.50000000E-01  1.000000
 
  9 D  1.51000000E-01  1.000000
 
  H (Hydrogen)
  ------------
            Exponent  Coefficients 
       -------------- ---------------------------------------------------------
  1 S  1.30100000E+01  0.019685
  1 S  1.96200000E+00  0.137977
  1 S  4.44600000E-01  0.478148
 
  2 S  1.22000000E-01  1.000000
 
  3 S  2.97400000E-02  1.000000
 
  4 P  7.27000000E-01  1.000000
 
  5 P  1.41000000E-01  1.000000
 


 Summary of "ao basis" -> "ao basis" (spherical)
 ------------------------------------------------------------------------------
       Tag                 Description            Shells   Functions and Types
 ---------------- ------------------------------  ------  ---------------------
 O                        aug-cc-pVDZ                9       23   4s3p2d
 C                        aug-cc-pVDZ                9       23   4s3p2d
 H                        aug-cc-pVDZ                5        9   3s2p


                                 NWChem SCF Module
                                 -----------------
 
 
                                H,CHO,H Reference 2
 
 

  ao basis        = "ao basis"
  functions       =   151
  atoms           =     9
  closed shells   =    19
  open shells     =     0
  charge          =   0.00
  wavefunction    = RHF 
  input vectors   = atomic
  output vectors  = ./8cR2.movecs
  use symmetry    = T
  symmetry adapt  = T


 Summary of "ao basis" -> "ao basis" (spherical)
 ------------------------------------------------------------------------------
       Tag                 Description            Shells   Functions and Types
 ---------------- ------------------------------  ------  ---------------------
 O                        aug-cc-pVDZ                9       23   4s3p2d
 C                        aug-cc-pVDZ                9       23   4s3p2d
 H                        aug-cc-pVDZ                5        9   3s2p


      Symmetry analysis of basis
      --------------------------
 
        a'        108
        a"         43
 

int_init: setting std/high accuracies to  1.0D-16  1.0D-32

 Forming initial guess at       2.4s


 Forcing the number of linearly dependent vectors to be  0
 
      Superposition of Atomic Density Guess
      -------------------------------------
 
 Sum of atomic energies:        -264.53203373
 
      Non-variational initial energy
      ------------------------------

 Total energy =    -266.988415
 1-e energy   =    -668.470826
 2-e energy   =     245.446309
 HOMO         =      -0.299799
 LUMO         =      -0.069010
 
 
      Symmetry analysis of molecular orbitals - initial
      -------------------------------------------------
 
  Numbering of irreducible representations: 
 
     1 a'          2 a"      
 
  Orbital symmetries:
 
     1 a'          2 a'          3 a'          4 a'          5 a'      
     6 a'          7 a'          8 a'          9 a'         10 a'      
    11 a'         12 a'         13 a'         14 a"         15 a'      
    16 a"         17 a'         18 a'         19 a"         20 a"      
    21 a'         22 a'         23 a'         24 a'         25 a"      
    26 a'         27 a'         28 a"         29 a'      
 

 Starting SCF solution at       3.3s



 ----------------------------------------------
         Quadratically convergent ROHF

 Convergence threshold     :          1.000E-09
 Maximum no. of iterations :           99
 Final Fock-matrix accuracy:          1.000E-15
 ----------------------------------------------

 Warning: symmetry breaking in RHF:   3.212048038727857E-014

              iter       energy          gnorm     gmax       time
             ----- ------------------- --------- --------- --------
                 1     -265.5126680451  1.42D+00  2.38D-01      1.9
 Warning: symmetry breaking in RHF:   3.727556154104533E-014
 Warning: symmetry breaking in RHF:   2.552839306860309E-014
                 2     -265.6265716994  4.67D-01  7.09D-02      3.9
 Warning: symmetry breaking in RHF:   2.523379393513120E-014
                 3     -265.6476955953  1.88D-02  5.07D-03      7.4
 Warning: symmetry breaking in RHF:   2.541365028321955E-014
                 4     -265.6477773134  2.53D-04  5.51D-05     12.6
 Warning: symmetry breaking in RHF:   2.541266558496675E-014
                 5     -265.6477773218  2.46D-08  3.46D-09     21.4
 Warning: symmetry breaking in RHF:   2.537974792686452E-014
                 6     -265.6477773218  8.05D-11  2.56D-11     27.3


       Final RHF  results 
       ------------------ 

         Total SCF energy =   -265.647777321763
      One-electron energy =   -671.743999712712
      Two-electron energy =    250.060120194246
 Nuclear repulsion energy =    156.036102196702

        Time for solution =     26.4s


 
       Symmetry analysis of molecular orbitals - final
       -----------------------------------------------
 
  Numbering of irreducible representations: 
 
     1 a'          2 a"      
 
  Orbital symmetries:
 
     1 a'          2 a'          3 a'          4 a'          5 a'      
     6 a'          7 a'          8 a'          9 a'         10 a'      
    11 a'         12 a'         13 a'         14 a"         15 a'      
    16 a'         17 a"         18 a'         19 a"         20 a'      
    21 a'         22 a'         23 a'         24 a"         25 a"      
    26 a'         27 a'         28 a'         29 a"      
 
             Final eigenvalues
             -----------------

              1      
    1  -20.6412
    2  -20.5474
    3  -11.3449
    4  -11.3340
    5  -11.2395
    6   -1.4525
    7   -1.3600
    8   -1.0580
    9   -0.9012
   10   -0.7895
   11   -0.7778
   12   -0.6638
   13   -0.6466
   14   -0.6149
   15   -0.6030
   16   -0.5389
   17   -0.5175
   18   -0.4269
   19   -0.3541
   20    0.0253
   21    0.0388
   22    0.0555
   23    0.0655
   24    0.0696
   25    0.1016
   26    0.1125
   27    0.1172
   28    0.1288
   29    0.1394
 
                       ROHF Final Molecular Orbital Analysis
                       -------------------------------------
 
 Vector    6  Occ=2.000000D+00  E=-1.452526D+00  Symmetry=a'
              MO Center= -2.5D-01,  2.0D+00,  1.3D-17, r^2= 5.7D-01
   Bfn.  Coefficient  Atom+Function         Bfn.  Coefficient  Atom+Function  
  ----- ------------  ---------------      ----- ------------  ---------------
     3      0.474380  1 O  s                  2      0.416142  1 O  s          
    27     -0.194212  2 C  s                 70      0.174388  4 H  s          
    32     -0.167641  2 C  py                26      0.154716  2 C  s          
 
 Vector    7  Occ=2.000000D+00  E=-1.360023D+00  Symmetry=a'
              MO Center= -3.6D-01, -1.7D+00, -2.5D-31, r^2= 5.9D-01
   Bfn.  Coefficient  Atom+Function         Bfn.  Coefficient  Atom+Function  
  ----- ------------  ---------------      ----- ------------  ---------------
   122      0.454043  8 O  s                121      0.396081  8 O  s          
    89      0.216679  6 C  s                 90      0.181565  6 C  s          
    92     -0.158553  6 C  px         
 
 Vector    8  Occ=2.000000D+00  E=-1.058046D+00  Symmetry=a'
              MO Center=  3.0D-01,  2.0D-01, -5.5D-18, r^2= 1.7D+00
   Bfn.  Coefficient  Atom+Function         Bfn.  Coefficient  Atom+Function  
  ----- ------------  ---------------      ----- ------------  ---------------
    48      0.303935  3 C  s                 25      0.243898  2 C  s          
    49      0.180444  3 C  s                 26      0.173812  2 C  s          
    50     -0.151247  3 C  s          
 
 Vector    9  Occ=2.000000D+00  E=-9.011951D-01  Symmetry=a'
              MO Center=  3.1D-01, -3.8D-01,  1.2D-30, r^2= 3.5D+00
   Bfn.  Coefficient  Atom+Function         Bfn.  Coefficient  Atom+Function  
  ----- ------------  ---------------      ----- ------------  ---------------
    89      0.263356  6 C  s                143      0.228536  9 H  s          
    25     -0.217879  2 C  s                 26     -0.217818  2 C  s          
     6      0.186624  1 O  py                27      0.181014  2 C  s          
    52     -0.174561  3 C  py               122     -0.173346  8 O  s          
    92      0.161501  6 C  px               144      0.159518  9 H  s          
 
 Vector   10  Occ=2.000000D+00  E=-7.894647D-01  Symmetry=a'
              MO Center=  1.3D-01,  2.1D-01,  7.6D-31, r^2= 3.8D+00
   Bfn.  Coefficient  Atom+Function         Bfn.  Coefficient  Atom+Function  
  ----- ------------  ---------------      ----- ------------  ---------------
    50      0.388856  3 C  s                 91     -0.233803  6 C  s          
    49     -0.230899  3 C  s                  6     -0.226729  1 O  py         
    27     -0.225156  2 C  s                 28     -0.226138  2 C  px         
   143      0.225767  9 H  s                 80      0.210661  5 H  s          
    79      0.209088  5 H  s                144      0.194165  9 H  s          
 
 Vector   11  Occ=2.000000D+00  E=-7.778394D-01  Symmetry=a'
              MO Center= -2.8D-01,  1.2D+00,  6.3D-17, r^2= 2.7D+00
   Bfn.  Coefficient  Atom+Function         Bfn.  Coefficient  Atom+Function  
  ----- ------------  ---------------      ----- ------------  ---------------
     5      0.309379  1 O  px                70     -0.285431  4 H  s          
     6     -0.242554  1 O  py                80     -0.212032  5 H  s          
    29      0.205902  2 C  py                28      0.194372  2 C  px         
    79     -0.191909  5 H  s                  8      0.159040  1 O  px         
   144      0.151009  9 H  s          
 
 Vector   12  Occ=2.000000D+00  E=-6.638289D-01  Symmetry=a'
              MO Center=  2.4D-01, -5.1D-01, -1.0D-30, r^2= 3.8D+00
   Bfn.  Coefficient  Atom+Function         Bfn.  Coefficient  Atom+Function  
  ----- ------------  ---------------      ----- ------------  ---------------
    90      0.265237  6 C  s                111     -0.243207  7 H  s          
   125      0.242638  8 O  py                92     -0.218136  6 C  px         
     5      0.214808  1 O  px                51     -0.213261  3 C  px         
   112     -0.209087  7 H  s                124      0.198989  8 O  px         
   122     -0.194703  8 O  s                128      0.151318  8 O  py         
 
 Vector   13  Occ=2.000000D+00  E=-6.465832D-01  Symmetry=a'
              MO Center=  2.5D-01,  8.5D-03, -7.5D-17, r^2= 3.2D+00
   Bfn.  Coefficient  Atom+Function         Bfn.  Coefficient  Atom+Function  
  ----- ------------  ---------------      ----- ------------  ---------------
    93     -0.292930  6 C  py                29     -0.290574  2 C  py         
     6      0.279430  1 O  py                52      0.252230  3 C  py         
   144      0.203809  9 H  s                 55      0.188250  3 C  py         
    51     -0.185174  3 C  px               143      0.166008  9 H  s          
     9      0.157104  1 O  py         
 
 Vector   14  Occ=2.000000D+00  E=-6.148912D-01  Symmetry=a"
              MO Center= -1.3D-01,  1.8D+00,  7.5D-17, r^2= 1.2D+00
   Bfn.  Coefficient  Atom+Function         Bfn.  Coefficient  Atom+Function  
  ----- ------------  ---------------      ----- ------------  ---------------
     7      0.551378  1 O  pz                10      0.404541  1 O  pz         
    30      0.224181  2 C  pz         
 
 Vector   15  Occ=2.000000D+00  E=-6.030352D-01  Symmetry=a'
              MO Center= -2.1D-01, -4.7D-01,  1.6D-18, r^2= 4.1D+00
   Bfn.  Coefficient  Atom+Function         Bfn.  Coefficient  Atom+Function  
  ----- ------------  ---------------      ----- ------------  ---------------
   124      0.383792  8 O  px                92     -0.289247  6 C  px         
     5     -0.258688  1 O  px                50     -0.255517  3 C  s          
   127      0.202581  8 O  px               122     -0.189404  8 O  s          
    91      0.180179  6 C  s                  8     -0.165972  1 O  px         
    52      0.150803  3 C  py         
 
 Vector   16  Occ=2.000000D+00  E=-5.389460D-01  Symmetry=a'
              MO Center=  8.5D-02,  6.7D-01, -1.2D-16, r^2= 2.9D+00
   Bfn.  Coefficient  Atom+Function         Bfn.  Coefficient  Atom+Function  
  ----- ------------  ---------------      ----- ------------  ---------------
    80     -0.317113  5 H  s                112     -0.316151  7 H  s          
    28      0.309832  2 C  px                51     -0.281292  3 C  px         
    79     -0.280247  5 H  s                  5     -0.261611  1 O  px         
   111     -0.248656  7 H  s                 26      0.207954  2 C  s          
     8     -0.165771  1 O  px                27      0.164081  2 C  s          
 
 Vector   17  Occ=2.000000D+00  E=-5.175119D-01  Symmetry=a"
              MO Center= -2.0D-01, -1.4D+00, -1.4D-16, r^2= 1.8D+00
   Bfn.  Coefficient  Atom+Function         Bfn.  Coefficient  Atom+Function  
  ----- ------------  ---------------      ----- ------------  ---------------
   126      0.443230  8 O  pz               129      0.330232  8 O  pz         
    94      0.317346  6 C  pz                97      0.166158  6 C  pz         
 
 Vector   18  Occ=2.000000D+00  E=-4.268576D-01  Symmetry=a'
              MO Center= -2.8D-01, -1.6D+00, -6.2D-17, r^2= 1.6D+00
   Bfn.  Coefficient  Atom+Function         Bfn.  Coefficient  Atom+Function  
  ----- ------------  ---------------      ----- ------------  ---------------
   125      0.539983  8 O  py               128      0.417044  8 O  py         
    96     -0.210285  6 C  py                52      0.201393  3 C  py         
   143      0.196079  9 H  s                124     -0.174298  8 O  px         
    50      0.171297  3 C  s                 91     -0.164870  6 C  s          
    93     -0.159207  6 C  py         
 
 Vector   19  Occ=2.000000D+00  E=-3.540501D-01  Symmetry=a"
              MO Center=  2.0D-01,  1.2D-01, -2.4D-16, r^2= 2.6D+00
   Bfn.  Coefficient  Atom+Function         Bfn.  Coefficient  Atom+Function  
  ----- ------------  ---------------      ----- ------------  ---------------
    53      0.395180  3 C  pz                56      0.310997  3 C  pz         
    30      0.277413  2 C  pz               126     -0.249270  8 O  pz         
     7     -0.241789  1 O  pz                10     -0.200487  1 O  pz         
    33      0.198578  2 C  pz               129     -0.194938  8 O  pz         
 
 Vector   20  Occ=0.000000D+00  E= 2.529910D-02  Symmetry=a'
              MO Center= -2.0D+00,  3.1D+00,  3.0D-16, r^2= 1.1D+01
   Bfn.  Coefficient  Atom+Function         Bfn.  Coefficient  Atom+Function  
  ----- ------------  ---------------      ----- ------------  ---------------
    72      2.359896  4 H  s                 91     -2.124764  6 C  s          
    27     -1.825204  2 C  s                 35     -1.395283  2 C  py         
     4      1.169977  1 O  s                 81      1.102556  5 H  s          
    34      1.047879  2 C  px                80      0.727636  5 H  s          
    49     -0.706062  3 C  s                 58     -0.683489  3 C  py         
 
 Vector   21  Occ=0.000000D+00  E= 3.883191D-02  Symmetry=a'
              MO Center=  2.9D+00, -1.2D+00, -1.4D-16, r^2= 1.6D+01
   Bfn.  Coefficient  Atom+Function         Bfn.  Coefficient  Atom+Function  
  ----- ------------  ---------------      ----- ------------  ---------------
    27      7.258762  2 C  s                 50     -6.157384  3 C  s          
    91      4.216977  6 C  s                113     -3.519048  7 H  s          
    57      3.279051  3 C  px               145     -2.495559  9 H  s          
    35     -2.026912  2 C  py                34      1.688255  2 C  px         
   144     -1.149319  9 H  s                 81      1.137936  5 H  s          
 
 Vector   22  Occ=0.000000D+00  E= 5.550472D-02  Symmetry=a'
              MO Center=  1.7D+00, -7.1D-01,  8.7D-15, r^2= 2.5D+01
   Bfn.  Coefficient  Atom+Function         Bfn.  Coefficient  Atom+Function  
  ----- ------------  ---------------      ----- ------------  ---------------
   113      5.468771  7 H  s                145     -4.895717  9 H  s          
    57     -3.071713  3 C  px                50      2.965422  3 C  s          
    99     -2.588934  6 C  py                81     -2.152253  5 H  s          
    58     -1.590117  3 C  py                98      1.441148  6 C  px         
    91     -1.104280  6 C  s                112      1.044566  7 H  s          
 
 Vector   23  Occ=0.000000D+00  E= 6.549178D-02  Symmetry=a'
              MO Center= -1.4D+00,  8.5D-01,  4.8D-17, r^2= 2.4D+01
   Bfn.  Coefficient  Atom+Function         Bfn.  Coefficient  Atom+Function  
  ----- ------------  ---------------      ----- ------------  ---------------
    91     -8.919468  6 C  s                 50      8.331815  3 C  s          
    81      5.965795  5 H  s                 58     -5.157936  3 C  py         
   145     -3.984465  9 H  s                113      3.684409  7 H  s          
    99     -3.527849  6 C  py                72     -3.506322  4 H  s          
    35      3.075505  2 C  py                27     -2.952503  2 C  s          
 
 Vector   24  Occ=0.000000D+00  E= 6.964717D-02  Symmetry=a"
              MO Center=  1.6D-01, -4.1D-01,  2.1D-16, r^2= 6.1D+00
   Bfn.  Coefficient  Atom+Function         Bfn.  Coefficient  Atom+Function  
  ----- ------------  ---------------      ----- ------------  ---------------
    36      1.156204  2 C  pz                59     -0.789627  3 C  pz         
   100     -0.373095  6 C  pz                13     -0.362502  1 O  pz         
    33      0.306284  2 C  pz                30      0.294907  2 C  pz         
   132      0.294061  8 O  pz                94     -0.248820  6 C  pz         
    97     -0.242533  6 C  pz               126      0.207983  8 O  pz         
 
 Vector   25  Occ=0.000000D+00  E= 1.015606D-01  Symmetry=a"
              MO Center= -4.3D-01, -3.0D-01, -5.7D-15, r^2= 1.3D+01
   Bfn.  Coefficient  Atom+Function         Bfn.  Coefficient  Atom+Function  
  ----- ------------  ---------------      ----- ------------  ---------------
    36      1.738976  2 C  pz               100      1.607787  6 C  pz         
    59     -1.506021  3 C  pz               132     -0.578558  8 O  pz         
    13     -0.317919  1 O  pz                56     -0.153229  3 C  pz         
 
 Vector   26  Occ=0.000000D+00  E= 1.124602D-01  Symmetry=a'
              MO Center= -6.0D-01, -5.0D-01,  6.9D-17, r^2= 1.8D+01
   Bfn.  Coefficient  Atom+Function         Bfn.  Coefficient  Atom+Function  
  ----- ------------  ---------------      ----- ------------  ---------------
    27      9.522960  2 C  s                 50     -5.653631  3 C  s          
    34      5.385901  2 C  px                58     -4.215384  3 C  py         
    91     -3.125935  6 C  s                 99     -2.201542  6 C  py         
   123     -2.094655  8 O  s                 81      2.025215  5 H  s          
    98     -1.967775  6 C  px                 4     -1.901805  1 O  s          
 
 Vector   27  Occ=0.000000D+00  E= 1.172002D-01  Symmetry=a'
              MO Center= -4.0D-01,  1.0D+00,  4.8D-17, r^2= 2.2D+01
   Bfn.  Coefficient  Atom+Function         Bfn.  Coefficient  Atom+Function  
  ----- ------------  ---------------      ----- ------------  ---------------
    50     22.562114  3 C  s                 27    -18.130047  2 C  s          
    35      7.519715  2 C  py                34     -7.408011  2 C  px         
    57     -6.008077  3 C  px                58      4.242100  3 C  py         
    81     -3.973943  5 H  s                 72     -3.381325  4 H  s          
   113      3.053002  7 H  s                  4     -1.932837  1 O  s          
 
 Vector   28  Occ=0.000000D+00  E= 1.287760D-01  Symmetry=a'
              MO Center=  6.7D-01, -6.2D-01, -5.2D-17, r^2= 1.9D+01
   Bfn.  Coefficient  Atom+Function         Bfn.  Coefficient  Atom+Function  
  ----- ------------  ---------------      ----- ------------  ---------------
    50     19.967038  3 C  s                 91    -14.652330  6 C  s          
    99     -7.037250  6 C  py                27     -5.759163  2 C  s          
    58     -4.899628  3 C  py               113      3.989538  7 H  s          
   145     -3.853869  9 H  s                 34     -3.027569  2 C  px         
     4      2.498619  1 O  s                112     -1.802452  7 H  s          
 
 Vector   29  Occ=0.000000D+00  E= 1.393973D-01  Symmetry=a"
              MO Center=  7.8D-01, -5.2D-01, -1.4D-14, r^2= 1.4D+01
   Bfn.  Coefficient  Atom+Function         Bfn.  Coefficient  Atom+Function  
  ----- ------------  ---------------      ----- ------------  ---------------
   100      2.406605  6 C  pz                59     -2.052975  3 C  pz         
   132     -0.421630  8 O  pz                36     -0.270604  2 C  pz         
    33      0.227755  2 C  pz                30      0.177972  2 C  pz         
    87      0.170207  5 H  pz         
 
 Vector   30  Occ=0.000000D+00  E= 1.485706D-01  Symmetry=a"
              MO Center=  8.3D-01,  2.7D-02, -7.0D-15, r^2= 1.1D+01
   Bfn.  Coefficient  Atom+Function         Bfn.  Coefficient  Atom+Function  
  ----- ------------  ---------------      ----- ------------  ---------------
    59      2.920038  3 C  pz                36     -2.197255  2 C  pz         
   100     -0.614360  6 C  pz                97     -0.370383  6 C  pz         
    13      0.275666  1 O  pz                94     -0.243377  6 C  pz         
   129      0.177064  8 O  pz               132      0.171189  8 O  pz         
   126      0.156100  8 O  pz         
 
 Vector   31  Occ=0.000000D+00  E= 1.522579D-01  Symmetry=a'
              MO Center=  8.7D-01, -5.8D-02,  1.2D-16, r^2= 2.0D+01
   Bfn.  Coefficient  Atom+Function         Bfn.  Coefficient  Atom+Function  
  ----- ------------  ---------------      ----- ------------  ---------------
    27     24.526769  2 C  s                 50    -12.988699  3 C  s          
    57      9.558548  3 C  px                58     -6.488418  3 C  py         
   113     -4.578240  7 H  s                  4     -4.361516  1 O  s          
    98     -4.371008  6 C  px                80     -2.680531  5 H  s          
    34      2.287799  2 C  px               123     -2.102877  8 O  s          
 
 Vector   32  Occ=0.000000D+00  E= 1.598747D-01  Symmetry=a'
              MO Center=  1.5D+00, -5.5D-01, -6.7D-16, r^2= 1.7D+01
   Bfn.  Coefficient  Atom+Function         Bfn.  Coefficient  Atom+Function  
  ----- ------------  ---------------      ----- ------------  ---------------
    27     10.291577  2 C  s                 50     -7.684218  3 C  s          
    91      4.905008  6 C  s                 57      4.434740  3 C  px         
   113     -4.364909  7 H  s                 81      4.016075  5 H  s          
     4     -3.389614  1 O  s                145     -3.177570  9 H  s          
    34      2.995989  2 C  px                99     -2.751098  6 C  py         
 
 Vector   33  Occ=0.000000D+00  E= 1.719300D-01  Symmetry=a'
              MO Center=  1.7D+00, -1.4D+00, -2.8D-16, r^2= 1.7D+01
   Bfn.  Coefficient  Atom+Function         Bfn.  Coefficient  Atom+Function  
  ----- ------------  ---------------      ----- ------------  ---------------
    50     16.972490  3 C  s                 91    -10.312678  6 C  s          
   145     -8.362421  9 H  s                 99     -7.687463  6 C  py         
    57     -7.285276  3 C  px               113      7.224370  7 H  s          
    58     -6.660255  3 C  py                98      3.672155  6 C  px         
    27     -3.244692  2 C  s                144     -3.051312  9 H  s          
 
 Vector   34  Occ=0.000000D+00  E= 1.808414D-01  Symmetry=a'
              MO Center=  1.7D-01,  9.7D-01,  1.7D-15, r^2= 1.8D+01
   Bfn.  Coefficient  Atom+Function         Bfn.  Coefficient  Atom+Function  
  ----- ------------  ---------------      ----- ------------  ---------------
    91     27.750043  6 C  s                 58     17.445802  3 C  py         
    27    -11.801945  2 C  s                 50    -10.596231  3 C  s          
    35     -7.614761  2 C  py                81     -6.460696  5 H  s          
    99      6.379902  6 C  py                34     -5.639523  2 C  px         
     4      5.374158  1 O  s                123     -4.196644  8 O  s          
 
 Vector   35  Occ=0.000000D+00  E= 2.065677D-01  Symmetry=a'
              MO Center= -3.7D-01,  5.8D-01,  5.4D-16, r^2= 1.5D+01
   Bfn.  Coefficient  Atom+Function         Bfn.  Coefficient  Atom+Function  
  ----- ------------  ---------------      ----- ------------  ---------------
    50     27.807274  3 C  s                 91    -16.899370  6 C  s          
    27    -15.716189  2 C  s                112     -4.829045  7 H  s          
    35      4.529211  2 C  py                 4      3.687007  1 O  s          
    99     -3.686589  6 C  py                58     -3.458788  3 C  py         
    57     -3.264739  3 C  px               123      3.026309  8 O  s          
 
 Vector   36  Occ=0.000000D+00  E= 2.355282D-01  Symmetry=a'
              MO Center= -4.9D-01,  6.3D-01,  1.3D-15, r^2= 1.3D+01
   Bfn.  Coefficient  Atom+Function         Bfn.  Coefficient  Atom+Function  
  ----- ------------  ---------------      ----- ------------  ---------------
    27     28.094227  2 C  s                 91    -16.930324  6 C  s          
    58     -9.566608  3 C  py                 4     -7.239298  1 O  s          
    57      4.685344  3 C  px                80     -4.670728  5 H  s          
    50     -4.410718  3 C  s                 99     -4.049649  6 C  py         
   144      3.006017  9 H  s                 71      2.452138  4 H  s          
 
 Vector   37  Occ=0.000000D+00  E= 2.366451D-01  Symmetry=a"
              MO Center=  2.0D-01, -1.4D-01, -6.8D-16, r^2= 8.0D+00
   Bfn.  Coefficient  Atom+Function         Bfn.  Coefficient  Atom+Function  
  ----- ------------  ---------------      ----- ------------  ---------------
    59      1.395101  3 C  pz                13     -1.083164  1 O  pz         
   100     -0.988913  6 C  pz                33      0.464655  2 C  pz         
   132     -0.385658  8 O  pz               151      0.365661  9 H  pz         
    56     -0.351768  3 C  pz                97      0.302298  6 C  pz         
   119     -0.299736  7 H  pz                53     -0.286064  3 C  pz         
 
 Vector   38  Occ=0.000000D+00  E= 2.492821D-01  Symmetry=a'
              MO Center= -2.7D-01,  1.1D+00,  1.1D-14, r^2= 1.6D+01
   Bfn.  Coefficient  Atom+Function         Bfn.  Coefficient  Atom+Function  
  ----- ------------  ---------------      ----- ------------  ---------------
    91    -12.828442  6 C  s                 27     12.110727  2 C  s          
    35    -11.317816  2 C  py                34      5.825590  2 C  px         
    99     -5.624939  6 C  py                50     -5.255558  3 C  s          
     4      4.639782  1 O  s                 71     -3.490077  4 H  s          
    11     -3.393595  1 O  px                98      3.388193  6 C  px         
 
 Vector   39  Occ=0.000000D+00  E= 2.503038D-01  Symmetry=a"
              MO Center= -1.8D-01,  1.3D+00, -2.1D-16, r^2= 1.0D+01
   Bfn.  Coefficient  Atom+Function         Bfn.  Coefficient  Atom+Function  
  ----- ------------  ---------------      ----- ------------  ---------------
    13      2.063419  1 O  pz                36     -1.503377  2 C  pz         
   100      0.903759  6 C  pz               132     -0.723289  8 O  pz         
    43     -0.349678  2 C  d -1             151      0.229560  9 H  pz         
   119     -0.224470  7 H  pz                10     -0.218643  1 O  pz         
    97      0.210811  6 C  pz                68     -0.204611  3 C  d  1       
 
 Vector   40  Occ=0.000000D+00  E= 2.694453D-01  Symmetry=a'
              MO Center= -7.1D-01, -1.1D-01,  1.2D-15, r^2= 1.5D+01
   Bfn.  Coefficient  Atom+Function         Bfn.  Coefficient  Atom+Function  
  ----- ------------  ---------------      ----- ------------  ---------------
    50     19.080134  3 C  s                 91    -14.523277  6 C  s          
   123      3.770740  8 O  s                 99     -3.462194  6 C  py         
    34     -3.390083  2 C  px                58     -3.269684  3 C  py         
    27     -2.894045  2 C  s                 55      2.877039  3 C  py         
     4     -2.853712  1 O  s                 31     -2.704743  2 C  px         
 
 Vector   41  Occ=0.000000D+00  E= 2.930500D-01  Symmetry=a'
              MO Center=  1.8D-01, -5.2D-01,  4.0D-15, r^2= 1.2D+01
   Bfn.  Coefficient  Atom+Function         Bfn.  Coefficient  Atom+Function  
  ----- ------------  ---------------      ----- ------------  ---------------
    50     47.537169  3 C  s                 27    -32.944166  2 C  s          
    91    -11.749250  6 C  s                 57    -10.263395  3 C  px         
    34     -8.282385  2 C  px                35      6.083304  2 C  py         
   112     -5.574812  7 H  s                 99     -3.903607  6 C  py         
   113      3.887469  7 H  s                 80      3.548089  5 H  s          
 
 Vector   42  Occ=0.000000D+00  E= 2.968120D-01  Symmetry=a'
              MO Center= -2.7D-01,  9.3D-01,  7.1D-16, r^2= 1.3D+01
   Bfn.  Coefficient  Atom+Function         Bfn.  Coefficient  Atom+Function  
  ----- ------------  ---------------      ----- ------------  ---------------
    27     20.288361  2 C  s                 91    -14.295877  6 C  s          
    58     -9.959758  3 C  py                50     -8.664015  3 C  s          
    34      6.627999  2 C  px                57      4.671866  3 C  px         
    99     -3.932650  6 C  py                35     -3.834548  2 C  py         
    81      3.082018  5 H  s                 26      2.857909  2 C  s          
 
 Vector   43  Occ=0.000000D+00  E= 3.073031D-01  Symmetry=a"
              MO Center= -6.4D-01, -1.5D+00,  3.6D-16, r^2= 9.7D+00
   Bfn.  Coefficient  Atom+Function         Bfn.  Coefficient  Atom+Function  
  ----- ------------  ---------------      ----- ------------  ---------------
   132      2.300747  8 O  pz               100     -2.071161  6 C  pz         
    59      1.902819  3 C  pz                36     -1.612447  2 C  pz         
    13      0.912570  1 O  pz               109     -0.536973  6 C  d  1       
    33     -0.355903  2 C  pz                68      0.335324  3 C  d  1       
   129     -0.245955  8 O  pz                45      0.236320  2 C  d  1       
 
 Vector   44  Occ=0.000000D+00  E= 3.383265D-01  Symmetry=a'
              MO Center= -5.4D-02, -1.1D+00, -3.8D-16, r^2= 1.3D+01
   Bfn.  Coefficient  Atom+Function         Bfn.  Coefficient  Atom+Function  
  ----- ------------  ---------------      ----- ------------  ---------------
    50     11.635326  3 C  s                 27     -9.214213  2 C  s          
    91     -6.309837  6 C  s                 57     -5.944395  3 C  px         
    34     -4.069289  2 C  px                98      3.387876  6 C  px         
   131     -3.105480  8 O  py               113      2.964278  7 H  s          
    26     -2.771250  2 C  s                 81     -1.942709  5 H  s          
 
 Vector   45  Occ=0.000000D+00  E= 3.531235D-01  Symmetry=a'
              MO Center=  7.8D-01, -2.6D-01,  2.0D-17, r^2= 1.1D+01
   Bfn.  Coefficient  Atom+Function         Bfn.  Coefficient  Atom+Function  
  ----- ------------  ---------------      ----- ------------  ---------------
    50     10.334124  3 C  s                 91     -9.523263  6 C  s          
    57     -5.019218  3 C  px               113      3.473888  7 H  s          
    27     -3.209026  2 C  s                 58     -3.196316  3 C  py         
   112      2.980262  7 H  s                 26     -2.581152  2 C  s          
     4     -2.495381  1 O  s                 31     -2.312975  2 C  px         
 
 Vector   46  Occ=0.000000D+00  E= 3.570117D-01  Symmetry=a'
              MO Center= -2.7D-01,  7.6D-01, -1.2D-15, r^2= 8.5D+00
   Bfn.  Coefficient  Atom+Function         Bfn.  Coefficient  Atom+Function  
  ----- ------------  ---------------      ----- ------------  ---------------
    91     11.724789  6 C  s                 58      6.679917  3 C  py         
    27     -5.994207  2 C  s                  4      5.576698  1 O  s          
    34     -5.007804  2 C  px                81     -3.760917  5 H  s          
    35     -3.615179  2 C  py                50     -3.473543  3 C  s          
   123     -2.963752  8 O  s                 72      1.696114  4 H  s          
 
 Vector   47  Occ=0.000000D+00  E= 3.708233D-01  Symmetry=a"
              MO Center= -7.3D-01,  1.5D+00, -2.6D-17, r^2= 6.4D+00
   Bfn.  Coefficient  Atom+Function         Bfn.  Coefficient  Atom+Function  
  ----- ------------  ---------------      ----- ------------  ---------------
    78      1.147734  4 H  pz                87      1.149210  5 H  pz         
    36     -0.863009  2 C  pz                59      0.754324  3 C  pz         
   119      0.604663  7 H  pz                97     -0.499087  6 C  pz         
    13     -0.489281  1 O  pz                66     -0.459048  3 C  d -1       
    33     -0.400925  2 C  pz                45     -0.379276  2 C  d  1       
 
 Vector   48  Occ=0.000000D+00  E= 3.744495D-01  Symmetry=a'
              MO Center=  1.8D-01, -4.1D-01,  4.3D-16, r^2= 1.3D+01
   Bfn.  Coefficient  Atom+Function         Bfn.  Coefficient  Atom+Function  
  ----- ------------  ---------------      ----- ------------  ---------------
    50     33.938529  3 C  s                 91    -31.347902  6 C  s          
    58    -14.726858  3 C  py                99    -10.858769  6 C  py         
    35      6.957473  2 C  py               113      6.828702  7 H  s          
    57     -6.676465  3 C  px               145     -5.956902  9 H  s          
    27     -5.864907  2 C  s                123      4.437450  8 O  s          
 
 Vector   49  Occ=0.000000D+00  E= 3.914600D-01  Symmetry=a'
              MO Center=  1.1D+00, -1.4D+00, -6.8D-17, r^2= 9.3D+00
   Bfn.  Coefficient  Atom+Function         Bfn.  Coefficient  Atom+Function  
  ----- ------------  ---------------      ----- ------------  ---------------
    91      6.110512  6 C  s                 50     -5.524294  3 C  s          
    98      5.367198  6 C  px                57     -5.036079  3 C  px         
   112      5.018550  7 H  s                144     -4.350712  9 H  s          
    58      3.419213  3 C  py                96     -3.419326  6 C  py         
    55     -3.291191  3 C  py               145     -3.222299  9 H  s          
 
 Vector   50  Occ=0.000000D+00  E= 4.004581D-01  Symmetry=a"
              MO Center=  1.1D+00, -5.3D-01, -1.9D-16, r^2= 7.7D+00
   Bfn.  Coefficient  Atom+Function         Bfn.  Coefficient  Atom+Function  
  ----- ------------  ---------------      ----- ------------  ---------------
    59     -1.327472  3 C  pz               119      1.297343  7 H  pz         
   151      1.252093  9 H  pz                36      1.223654  2 C  pz         
    97     -0.986789  6 C  pz                43      0.473027  2 C  d -1       
    78     -0.439178  4 H  pz                66     -0.408404  3 C  d -1       
    13     -0.357854  1 O  pz                56     -0.357038  3 C  pz         
 
 Vector   51  Occ=0.000000D+00  E= 4.163431D-01  Symmetry=a'
              MO Center=  1.4D-01,  2.8D-01,  2.7D-16, r^2= 1.1D+01
   Bfn.  Coefficient  Atom+Function         Bfn.  Coefficient  Atom+Function  
  ----- ------------  ---------------      ----- ------------  ---------------
    27     13.603374  2 C  s                 50    -13.188117  3 C  s          
   123      5.034975  8 O  s                  4     -4.885393  1 O  s          
    57      4.544968  3 C  px               113     -2.855196  7 H  s          
    71      2.373767  4 H  s                 49     -2.284152  3 C  s          
    34      1.990703  2 C  px                96      1.860269  6 C  py         
 
 Vector   52  Occ=0.000000D+00  E= 4.320949D-01  Symmetry=a'
              MO Center=  2.1D-01,  1.1D-01, -2.6D-17, r^2= 1.1D+01
   Bfn.  Coefficient  Atom+Function         Bfn.  Coefficient  Atom+Function  
  ----- ------------  ---------------      ----- ------------  ---------------
    27     16.121457  2 C  s                 50    -12.491668  3 C  s          
     4     -5.910210  1 O  s                 49      4.675635  3 C  s          
    91      3.617559  6 C  s                 35     -3.222858  2 C  py         
    71      3.147639  4 H  s                 96     -3.150396  6 C  py         
    55     -3.067389  3 C  py                34      2.868316  2 C  px         
 
 Vector   53  Occ=0.000000D+00  E= 4.534488D-01  Symmetry=a'
              MO Center=  2.6D-01,  2.1D-01,  4.7D-17, r^2= 1.2D+01
   Bfn.  Coefficient  Atom+Function         Bfn.  Coefficient  Atom+Function  
  ----- ------------  ---------------      ----- ------------  ---------------
    27     23.360528  2 C  s                 50    -12.208403  3 C  s          
     4    -10.727978  1 O  s                 91      7.038369  6 C  s          
    57      6.126217  3 C  px               123     -5.255944  8 O  s          
    49      4.780078  3 C  s                 90      4.258781  6 C  s          
    32      4.206772  2 C  py                58     -3.249466  3 C  py         
 
 Vector   54  Occ=0.000000D+00  E= 4.674937D-01  Symmetry=a"
              MO Center= -6.7D-01,  5.4D-01, -1.5D-17, r^2= 8.6D+00
   Bfn.  Coefficient  Atom+Function         Bfn.  Coefficient  Atom+Function  
  ----- ------------  ---------------      ----- ------------  ---------------
    87      1.676928  5 H  pz               100      1.465096  6 C  pz         
    13      1.219969  1 O  pz                78     -1.165488  4 H  pz         
    59     -1.046260  3 C  pz                33     -0.986218  2 C  pz         
   119      0.760543  7 H  pz               132     -0.757259  8 O  pz         
   151     -0.699392  9 H  pz                36     -0.624629  2 C  pz         
 
 Vector   55  Occ=0.000000D+00  E= 4.788771D-01  Symmetry=a'
              MO Center=  1.9D-01, -6.8D-02, -1.9D-16, r^2= 1.0D+01
   Bfn.  Coefficient  Atom+Function         Bfn.  Coefficient  Atom+Function  
  ----- ------------  ---------------      ----- ------------  ---------------
    91    -17.357309  6 C  s                 27     15.916174  2 C  s          
     4    -11.159982  1 O  s                123      7.627060  8 O  s          
    58     -6.894777  3 C  py                26     -6.298354  2 C  s          
    55      6.092124  3 C  py                90      4.302450  6 C  s          
    99     -4.248951  6 C  py                34      4.022815  2 C  px         
 
 Vector   56  Occ=0.000000D+00  E= 4.815126D-01  Symmetry=a"
              MO Center=  1.0D+00, -8.1D-01, -2.2D-16, r^2= 7.3D+00
   Bfn.  Coefficient  Atom+Function         Bfn.  Coefficient  Atom+Function  
  ----- ------------  ---------------      ----- ------------  ---------------
   151      2.177701  9 H  pz               119     -1.656300  7 H  pz         
    59      1.421581  3 C  pz               100     -1.234275  6 C  pz         
    97     -1.156489  6 C  pz                68     -1.080827  3 C  d  1       
   109      0.909236  6 C  d  1             107      0.755083  6 C  d -1       
    36     -0.672661  2 C  pz                87      0.545277  5 H  pz         
 
 Vector   57  Occ=0.000000D+00  E= 5.189082D-01  Symmetry=a'
              MO Center=  5.3D-01, -1.1D-01, -8.6D-17, r^2= 1.1D+01
   Bfn.  Coefficient  Atom+Function         Bfn.  Coefficient  Atom+Function  
  ----- ------------  ---------------      ----- ------------  ---------------
     4      8.285891  1 O  s                 35     -6.642275  2 C  py         
   144     -5.533433  9 H  s                 58      5.189450  3 C  py         
    71     -3.631156  4 H  s                 27     -3.604794  2 C  s          
    91      3.047590  6 C  s                 11     -2.876204  1 O  px         
    54      2.855494  3 C  px                98      2.812087  6 C  px         
 

 center of mass
 --------------
 x =  -0.01746574 y =  -0.03552374 z =   0.00000000

 moments of inertia (a.u.)
 ------------------
         643.599978491781           0.000000000000           0.000000000000
           0.000000000000          93.676327793318           0.000000000000
           0.000000000000           0.000000000000         737.276306285099
 
  Mulliken analysis of the total density
  --------------------------------------

    Atom       Charge   Shell Charges
 -----------   ------   -------------------------------------------------------
    1 O    8     8.76   2.00  0.82  1.00  0.23  2.83  1.75  0.09  0.02  0.01
    2 C    6     4.93   2.01  0.68  0.47 -0.25  1.89  0.06  0.04  0.15 -0.12
    3 C    6     5.79   2.01  0.64  0.37 -0.14  2.05  0.69  0.18  0.07 -0.07
    4 H    1     0.73   0.69 -0.03 -0.00  0.08 -0.01
    5 H    1     1.37   0.77  0.58  0.02  0.03 -0.03
    6 C    6     4.97   2.01  0.69  0.31 -0.16  1.89  0.13  0.03  0.17 -0.10
    7 H    1     1.38   0.76  0.58  0.02  0.03 -0.01
    8 O    8     8.79   2.00  0.84  1.05  0.16  2.76  1.82  0.11  0.02  0.03
    9 H    1     1.29   0.83  0.47  0.01  0.03 -0.05
 
       Multipole analysis of the density wrt the origin
       ------------------------------------------------
 
     L   x y z        total         open         nuclear
     -   - - -        -----         ----         -------
     0   0 0 0     -0.000000      0.000000     38.000000
 
     1   1 0 0      0.167280      0.000000     -0.000000
     1   0 1 0      1.069697      0.000000     -0.000000
     1   0 0 1      0.000000      0.000000      0.000000
 
     2   2 0 0    -18.992547      0.000000     60.156823
     2   1 1 0     -8.143028      0.000000     -9.458369
     2   1 0 1     -0.000000      0.000000      0.000000
     2   0 2 0    -23.178908      0.000000    342.372679
     2   0 1 1     -0.000000      0.000000      0.000000
     2   0 0 2    -22.957973      0.000000      0.000000
 
                   NWChem MP2 Semi-direct Energy/Gradient Module
                   ---------------------------------------------
 
 
                                H,CHO,H Reference 2
 
 

int_init: setting std/high accuracies to  1.0D-16  1.0D-32
  Basis functions       =    151
  Molecular orbitals    =    151
  Frozen core           =      5
  Frozen virtuals       =      0
  Active alpha occupied =     14
  Active beta occupied  =     14
  Active alpha virtual  =    132
  Active beta virtual   =    132
  Use MO symmetry       = T
  Use skeleton AO sym   = T

  AO/Fock/Back tols     =   1.0D-15  1.0D-15  1.0D-15

 GA uses MA = F    GA memory limited = T

 Available: 
  local mem=  3.77D+08
 global mem=  1.23D+08
 local disk=  0.00D+00

int_init: setting std/high accuracies to  1.0D-16  1.0D-32
  mp2_memr nvloc                     12
  nvloc new                     12
   1 passes of  14:        5242880                     154913                   8405891.
   1 passes of  14: M    376557457           G      122962901           F     371314577.
 
 Semi-direct pass number   1 of   1  for RHF alpha+beta  at       30.6s

int_init: setting std/high accuracies to  1.0D-16  1.0D-32
  vrange nnbf                  11451
  mp2_eaftype                     25  avail_ma_in_mb                   3283
 EAF : mp2_eaftype filesize          25    3289918.
  mp2_eaf for mointskh                      25
Node 0 wrote     15.4 Mb in      0.0 s     Agg I/O rate:  4311.5 Mb/s
 Done moints_semi at       33.9s
  mp2_eaftype                     25  avail_ma_in_mb                   3258
 EAF : mp2_eaftype filesize          25    3289918.
  mp2_eaf for kh                     25
  mp2_eaftype                     10  avail_ma_in_mb                   3258
 EAF : mp2_eaftype filesize          10     620928.
  mp2_eaf for ta tb                     10
  mp2_eaf for ta                      10
  mp2_eaf for tb                      10
 Done maket at       34.1s
 Done pijab at       34.1s
 Done wijab at       34.1s
 Done lai at       34.6s

int_init: setting std/high accuracies to  1.0D-16  1.0D-32
  mp2_eaftype                     29  avail_ma_in_mb                   3237
 EAF : mp2_eaftype filesize          29    3813022.
  mp2_eaf for 2pdm                      29
 Done nonsep at       43.9s
 Done multipass loop at       43.9s


          -------------------------------------------
          SCF energy                -265.647777321763
          Correlation energy          -0.799663637451
          Singlet pairs               -0.485673157719
          Triplet pairs               -0.313990479733
          Total MP2 energy          -266.447440959215
          -------------------------------------------



          ---------------------------------------------------
                    Spin Component Scaled (SCS) MP2
          Same spin pairs                     -0.209326986489
          Same spin scaling factor             0.333333333333
          Opposite spin pairs                 -0.590336650963
          Opposite spin scaling fact.          1.200000000000
          SCS-MP2 correlation energy          -0.778179643318
          Total SCS-MP2 energy              -266.425956965082
          ---------------------------------------------------


int_init: setting std/high accuracies to  1.0D-16  1.0D-32
                                NWChem CPHF Module
                                ------------------
 
 

int_init: setting std/high accuracies to  1.0D-16  1.0D-32
    scftype = RHF 
    nclosed =   19
      nopen =    0
  variables =     2508
  tolerance =   1.0D-06
  max. iter =  999

 Warning: symmetry breaking in RHF:   2.546911887518810E-014
 SCF residual:   8.058622111478524E-011

            ----- linear solve (tol: 1.0E-06 prod-acc: 3.6E-14) -----

               iter nbas    rnorm     rnorm-scal   ratio     time
               ---- ---- ----------- ----------- --------- -------
                  1    1  7.1701E-02  4.0265E-01    0.0000    43.5
                  2    2  2.0090E-02  1.1282E-01    0.2802    44.4
                  3    3  7.2769E-03  4.0864E-02    0.3622    45.4
                  4    4  2.7841E-03  1.5634E-02    0.3826    46.3
                  5    5  1.1059E-03  6.2102E-03    0.3972    47.2
                  6    6  4.0857E-04  2.2944E-03    0.3695    48.1
                  7    7  1.8695E-04  1.0498E-03    0.4576    49.0
                  8    8  6.0917E-05  3.4209E-04    0.3258    49.9
                  9    9  1.8958E-05  1.0646E-04    0.3112    50.8
                 10   10  4.6274E-06  2.5986E-05    0.2441    51.7
                 11   11  1.1652E-06  6.5435E-06    0.2518    52.5
                 12   12  3.9056E-07  2.1933E-06    0.3352    53.4
                 13   13  1.3601E-07  7.6380E-07    0.3482    54.2

 CPHF converged to   7.6D-07 in   13 iters


int_init: setting std/high accuracies to  1.0D-16  1.0D-32
                Dipole Moments (a.u.)
                --------------
         Nuclear       SCF       SCF+MP2
       ----------- ----------- -----------
 X      -0.000000    0.167280    0.079016
 Y      -0.000000    1.069697    0.988322
 Z       0.000000    0.000000    0.000000
 

 MP2 RHF      natural orbital occupation numbers


              1      
    1    2.0000
    2    2.0000
    3    2.0000
    4    2.0000
    5    2.0000
    6    1.9864
    7    1.9856
    8    1.9806
    9    1.9764
   10    1.9727
   11    1.9669
   12    1.9658
   13    1.9644
   14    1.9630
   15    1.9593
   16    1.9576
   17    1.9550
   18    1.9431
   19    1.9261
   20    0.0632
   21    0.0426
   22    0.0315
   23    0.0296
   24    0.0288
   25    0.0249
   26    0.0204
   27    0.0173
   28    0.0161
   29    0.0158
   30    0.0156
   31    0.0123
   32    0.0122
   33    0.0109
   34    0.0102
   35    0.0087
   36    0.0084
   37    0.0083
   38    0.0082
   39    0.0076
   40    0.0070
   41    0.0068
   42    0.0064
   43    0.0061
   44    0.0058
   45    0.0057
   46    0.0054
   47    0.0050
   48    0.0044
   49    0.0036
   50    0.0035
   51    0.0032
   52    0.0029
   53    0.0027
   54    0.0024
   55    0.0023
   56    0.0023
   57    0.0019
   58    0.0017
   59    0.0015
   60    0.0014
   61    0.0014
   62    0.0013
   63    0.0012
   64    0.0011
   65    0.0011
   66    0.0010
   67    0.0008
   68    0.0008
   69    0.0008
   70    0.0007
   71    0.0007
   72    0.0006
   73    0.0006
   74    0.0006
   75    0.0006
   76    0.0005
   77    0.0005
   78    0.0005
   79    0.0005
   80    0.0005
   81    0.0004
   82    0.0004
   83    0.0004
   84    0.0004
   85    0.0004
   86    0.0003
   87    0.0003
   88    0.0003
   89    0.0003
   90    0.0003
   91    0.0003
   92    0.0003
   93    0.0002
   94    0.0002
   95    0.0002
   96    0.0002
   97    0.0002
   98    0.0002
   99    0.0002
  100    0.0002
  101    0.0001
  102    0.0001
  103    0.0001
  104    0.0001
  105    0.0001
  106    0.0001
  107    0.0001
  108    0.0001
  109    0.0001
  110    0.0001
  111    0.0001
  112    0.0001
  113    0.0001
  114    0.0001
  115    0.0000
  116    0.0000
  117    0.0000
  118    0.0000
  119    0.0000
  120    0.0000
  121    0.0000
  122    0.0000
  123    0.0000
  124    0.0000
  125    0.0000
  126    0.0000
  127    0.0000
  128    0.0000
  129    0.0000
  130    0.0000
  131    0.0000
  132    0.0000
  133    0.0000
  134    0.0000
  135    0.0000
  136    0.0000
  137    0.0000
  138    0.0000
  139    0.0000
  140    0.0000
  141    0.0000
  142   -0.0000
  143   -0.0000
  144   -0.0000
  145   -0.0000
  146   -0.0000
  147   -0.0000
  148   -0.0001
  149   -0.0001
  150   -0.0002
  151   -0.0003
 
  MP2 natural orbitals output to ./8cR2.mp2nos
 

int_init: setting std/high accuracies to  1.0D-16  1.0D-32
  Using symmetry

int_init: setting std/high accuracies to  1.0D-16  1.0D-32


                         mp2 ENERGY GRADIENTS

    atom               coordinates                        gradient
                 x          y          z           x          y          z
   1 O      -0.222708   4.136131   0.000000    0.016945  -0.036547   0.000000
   2 C      -0.504591   1.640554   0.000000    0.002107   0.029701   0.000000
   3 C       1.440950  -0.047368   0.000000   -0.007480  -0.007329   0.000000
   4 H      -1.966223   4.835055   0.000000   -0.025945   0.002183   0.000000
   5 H      -2.469944   1.056316   0.000000    0.004312   0.012416   0.000000
   6 C       0.910678  -2.789584   0.000000    0.094742  -0.069874   0.000000
   7 H       3.373839   0.712286   0.000000    0.001236   0.004521   0.000000
   8 O      -1.322039  -3.560793   0.000000   -0.012463   0.005794   0.000000
   9 H       2.338074  -4.027971   0.000000   -0.073455   0.059134   0.000000
 
                 ----------------------------------------
                 |  Time  |  1-e(secs)   |  2-e(secs)   |
                 ----------------------------------------
                 |  CPU   |       0.00   |       6.04   |
                 ----------------------------------------
                 |  WALL  |       0.00   |       6.06   |
                 ----------------------------------------
 -----------------------
 Performance information
 -----------------------

 Timer overhead =  2.00D-07 seconds/call

               Nr. of calls         CPU time (s)                 Wall time (s)                GFlops
             ---------------    -------------------     ------------------------------   -------------------
Name         Min   Avg   Max    Min     Avg     Max     Min     Avg     Max   Mx/calls   Min     Max     Sum
mp2: moin     1     1     1    3.1     3.2     3.2      3.4     3.4     3.4     3.4      0.0     0.0     0.0   
mp2: make     1     1     1   0.12    0.12    0.13     0.13    0.13    0.13    0.13      0.0     0.0     0.0   
mp2: pija     1     1     1   1.60E-2 1.60E-2 1.60E-2  1.59E-2 1.60E-2 1.62E-2 1.62E-2   0.0     0.0     0.0   
mp2: wija     1     1     1   1.60E-2 1.70E-2 1.80E-2  1.70E-2 1.71E-2 1.71E-2 1.71E-2   0.0     0.0     0.0   
mp2: lai      1     1     1   0.47    0.47    0.47     0.47    0.47    0.47    0.47      0.0     0.0     0.0   
mp2: back     1     1     1   0.29    0.29    0.29     0.30    0.30    0.30    0.30      0.0     0.0     0.0   
mp2: nons     1     1     1    8.1     8.4     9.0      8.1     8.4     9.0     9.0      0.0     0.0     0.0   
mp2: laif     1     1     1    1.0     1.0     1.0      1.0     1.0     1.0     1.0      0.0     0.0     0.0   
mp2: cphf     1     1     1    13.     13.     13.      13.     13.     13.     13.      0.0     0.0     0.0   
mp2: wijf     1     1     1    1.0     1.0     1.0      1.0     1.0     1.0     1.0      0.0     0.0     0.0   
mp2: sep      1     1     1    6.1     6.1     6.1      6.1     6.1     6.1     6.1      0.0     0.0     0.0   
mp2: tota     1     1     1    34.     34.     34.      35.     35.     35.     35.      0.0     0.0     0.0   

 The average no. of pstat calls per process was 1.20D+01
 with a timing overhead of 2.40D-06s


@ Step       Energy      Delta E   Gmax     Grms     Xrms     Xmax   Walltime
@ ---- ---------------- -------- -------- -------- -------- -------- --------
@    0    -266.44744096  0.0D+00  0.09424  0.02343  0.00000  0.00000     65.1
                                                                    



                                Z-matrix (user)
                                -------- 

 Units are Angstrom for bonds and degrees for angles

  Constants are marked with an asterisk (*).

  Constrained variables are marked with a plus sign (+).

 
      Type          Name      I     J     K     L     M      Value     Gradient
      ----------- --------  ----- ----- ----- ----- ----- ---------- ----------
    1 Stretch      R1          2     1                       1.32900   -0.03516
    2 Stretch      R2          3     2                       1.36300    0.00703
    3 Bend         A1          3     2     1               124.50000    0.01434
    4 Stretch      R5          4     1                       0.99400    0.02489
    5 Bend         A4          4     1     2               105.40000   -0.00758
    6*Torsion      D180        4     1     2     3         180.00000   -0.00000
    7 Stretch      R6          5     2                       1.08500   -0.00767
    8 Bend         A5          5     2     3               122.50000    0.01158
    9*Torsion      D180        5     2     3     4         180.00000    0.00000
   10 Stretch      R7          6     3                       1.47800    0.00318
   11 Bend         A6          6     3     2               120.00000   -0.00121
   12*Torsion      D180        6     3     2     1         180.00000   -0.00000
   13 Stretch      R8          7     3                       1.09900    0.00280
   14 Bend         A7          7     3     2               117.60000   -0.00413
   15*Torsion      D0          7     3     2     1           0.00000    0.00000
   16 Stretch      R9          8     6                       1.25000    0.00989
   17 Bend         A8          8     6     3               120.00000   -0.01193
   18*Torsion      D0          8     6     3     2           0.00000   -0.00000
   19 Stretch      R10         9     6                       1.00000   -0.09424
   20 Bend         A9          9     6     3               120.00000    0.00347
   21*Torsion      D180        9     6     3     2         180.00000   -0.00000
 
                                 NWChem SCF Module
                                 -----------------
 
 
                                H,CHO,H Reference 2
 
 

  ao basis        = "ao basis"
  functions       =   151
  atoms           =     9
  closed shells   =    19
  open shells     =     0
  charge          =   0.00
  wavefunction    = RHF 
  input vectors   = ./8cR2.movecs
  output vectors  = ./8cR2.movecs
  use symmetry    = T
  symmetry adapt  = T


 Summary of "ao basis" -> "ao basis" (spherical)
 ------------------------------------------------------------------------------
       Tag                 Description            Shells   Functions and Types
 ---------------- ------------------------------  ------  ---------------------
 O                        aug-cc-pVDZ                9       23   4s3p2d
 C                        aug-cc-pVDZ                9       23   4s3p2d
 H                        aug-cc-pVDZ                5        9   3s2p


      Symmetry analysis of basis
      --------------------------
 
        a'        108
        a"         43
 

int_init: setting std/high accuracies to  1.0D-16  1.0D-32

 Forming initial guess at      65.1s


 Forcing the number of linearly dependent vectors to be  0

 Loading old vectors from job with title :

H,CHO,H Reference 2

 
      Symmetry analysis of molecular orbitals - initial
      -------------------------------------------------
 
  Numbering of irreducible representations: 
 
     1 a'          2 a"      
 
  Orbital symmetries:
 
     1 a'          2 a'          3 a'          4 a'          5 a'      
     6 a'          7 a'          8 a'          9 a'         10 a'      
    11 a'         12 a'         13 a'         14 a"         15 a'      
    16 a'         17 a"         18 a'         19 a"         20 a'      
    21 a'         22 a'         23 a'         24 a"         25 a"      
    26 a'         27 a'         28 a'         29 a"      
 

 Starting SCF solution at      65.2s



 ----------------------------------------------
         Quadratically convergent ROHF

 Convergence threshold     :          1.000E-09
 Maximum no. of iterations :           99
 Final Fock-matrix accuracy:          1.000E-15
 ----------------------------------------------

 Warning: symmetry breaking in RHF:   2.407068861163252E-014

              iter       energy          gnorm     gmax       time
             ----- ------------------- --------- --------- --------
                 1     -265.6315789558  5.93D-01  7.09D-02     62.4
 Warning: symmetry breaking in RHF:   1.487901349018588E-014
                 2     -265.6572634880  4.17D-02  5.78D-03     65.1
 Warning: symmetry breaking in RHF:   1.516044558226388E-014
                 3     -265.6574434813  1.53D-03  4.06D-04     68.5
 Warning: symmetry breaking in RHF:   1.516714393533213E-014
                 4     -265.6574439143  2.17D-06  5.22D-07     75.5
 Warning: symmetry breaking in RHF:   1.516713402365784E-014
                 5     -265.6574439143  8.38D-11  1.22D-11     85.0


       Final RHF  results 
       ------------------ 

         Total SCF energy =   -265.657443914348
      One-electron energy =   -668.989736313730
      Two-electron energy =    248.686705061782
 Nuclear repulsion energy =    154.645587337600

        Time for solution =     23.6s


 
       Symmetry analysis of molecular orbitals - final
       -----------------------------------------------
 
  Numbering of irreducible representations: 
 
     1 a'          2 a"      
 
  Orbital symmetries:
 
     1 a'          2 a'          3 a'          4 a'          5 a'      
     6 a'          7 a'          8 a'          9 a'         10 a'      
    11 a'         12 a'         13 a'         14 a"         15 a'      
    16 a'         17 a"         18 a'         19 a"         20 a'      
    21 a'         22 a'         23 a'         24 a"         25 a"      
    26 a'         27 a'         28 a'         29 a"      
 
             Final eigenvalues
             -----------------

              1      
    1  -20.6369
    2  -20.5535
    3  -11.3489
    4  -11.3445
    5  -11.2441
    6   -1.4386
    7   -1.3691
    8   -1.0698
    9   -0.8935
   10   -0.7776
   11   -0.7618
   12   -0.6607
   13   -0.6395
   14   -0.6067
   15   -0.6039
   16   -0.5489
   17   -0.5237
   18   -0.4230
   19   -0.3633
   20    0.0262
   21    0.0401
   22    0.0558
   23    0.0637
   24    0.0664
   25    0.1016
   26    0.1113
   27    0.1227
   28    0.1290
   29    0.1392
 
                       ROHF Final Molecular Orbital Analysis
                       -------------------------------------
 
 Vector    6  Occ=2.000000D+00  E=-1.438581D+00  Symmetry=a'
              MO Center= -2.2D-01,  2.1D+00, -9.5D-32, r^2= 5.8D-01
   Bfn.  Coefficient  Atom+Function         Bfn.  Coefficient  Atom+Function  
  ----- ------------  ---------------      ----- ------------  ---------------
     3      0.478676  1 O  s                  2      0.419381  1 O  s          
    27     -0.199837  2 C  s                 70      0.198860  4 H  s          
    32     -0.178251  2 C  py         
 
 Vector    7  Occ=2.000000D+00  E=-1.369099D+00  Symmetry=a'
              MO Center= -3.6D-01, -1.8D+00, -2.9D-34, r^2= 5.7D-01
   Bfn.  Coefficient  Atom+Function         Bfn.  Coefficient  Atom+Function  
  ----- ------------  ---------------      ----- ------------  ---------------
   122      0.451317  8 O  s                121      0.398641  8 O  s          
    90      0.221782  6 C  s                 89      0.216948  6 C  s          
    26     -0.159883  2 C  s                 92     -0.158293  6 C  px         
    55      0.154155  3 C  py         
 
 Vector    8  Occ=2.000000D+00  E=-1.069754D+00  Symmetry=a'
              MO Center=  2.1D-01,  2.7D-01, -3.2D-19, r^2= 1.7D+00
   Bfn.  Coefficient  Atom+Function         Bfn.  Coefficient  Atom+Function  
  ----- ------------  ---------------      ----- ------------  ---------------
    48      0.303352  3 C  s                 25      0.251187  2 C  s          
    26      0.189280  2 C  s                 49      0.189381  3 C  s          
    50     -0.157769  3 C  s          
 
 Vector    9  Occ=2.000000D+00  E=-8.935420D-01  Symmetry=a'
              MO Center=  2.4D-01, -9.9D-02, -4.0D-18, r^2= 3.4D+00
   Bfn.  Coefficient  Atom+Function         Bfn.  Coefficient  Atom+Function  
  ----- ------------  ---------------      ----- ------------  ---------------
    26      0.315947  2 C  s                 89     -0.246067  6 C  s          
    90     -0.245087  6 C  s                 25      0.228306  2 C  s          
     6     -0.211237  1 O  py                52      0.188867  3 C  py         
   122      0.167176  8 O  s                 27     -0.162947  2 C  s          
    49     -0.162707  3 C  s                 70     -0.155729  4 H  s          
 
 Vector   10  Occ=2.000000D+00  E=-7.775506D-01  Symmetry=a'
              MO Center= -3.4D-01,  1.2D+00,  4.1D-17, r^2= 2.0D+00
   Bfn.  Coefficient  Atom+Function         Bfn.  Coefficient  Atom+Function  
  ----- ------------  ---------------      ----- ------------  ---------------
     5      0.280449  1 O  px                79     -0.269468  5 H  s          
    28      0.262851  2 C  px                80     -0.242882  5 H  s          
[...]
          12     0.00000    -0.09974     0.00000     0.00000     0.01441     0.28080
          13    -0.01634     0.00000     0.02058     0.12066     0.00000     0.00000
          14     0.01967     0.00000     0.14746     0.00536     0.00000     0.00000
          15     0.00000    -0.13564     0.00000     0.00000     0.16484     0.20042
          16     0.07867     0.00000    -0.07523     0.10839     0.00000     0.00000
          17     0.10581     0.00000     0.06060    -0.00576     0.00000     0.00000
          18     0.00000     0.16050     0.00000     0.00000     0.08249    -0.03552
          19    -0.00796     0.00000     0.01213     0.11958     0.00000     0.00000
          20     0.16916     0.00000    -0.00329    -0.01394     0.00000     0.00000
          21     0.00000     0.34289     0.00000     0.00000    -0.14507    -0.04360
          22     0.10297     0.00000    -0.09973     0.10526     0.00000     0.00000
          23     0.05151     0.00000     0.11535     0.00125     0.00000     0.00000
          24     0.00000    -0.00712     0.00000     0.00000     0.22422     0.02421
          25     0.11028     0.00000    -0.10710     0.10431     0.00000     0.00000
          26     0.14921     0.00000     0.01683    -0.01136     0.00000     0.00000
          27     0.00000     0.30602     0.00000     0.00000     0.02366    -0.13721

                    7           8           9          10          11          12
 
 P.Frequency      166.46      204.99      252.58      429.99      438.25      738.33
 
           1     0.00000     0.09130     0.00000     0.00000    -0.08109    -0.01706
           2     0.00000     0.05678     0.00000     0.00000     0.11764     0.09254
           3    -0.06341     0.00000    -0.12005    -0.04314     0.00000     0.00000
           4     0.00000    -0.06814     0.00000     0.00000     0.12726    -0.02568
           5     0.00000     0.07331     0.00000     0.00000     0.07091     0.02261
           6     0.11440     0.00000     0.12913    -0.05773     0.00000     0.00000
           7     0.00000    -0.11764     0.00000     0.00000     0.06686    -0.06516
           8     0.00000     0.01438     0.00000     0.00000    -0.01805    -0.09749
           9    -0.06797     0.00000     0.14981     0.02342     0.00000     0.00000
          10     0.00000     0.14848     0.00000     0.00000    -0.17949    -0.04757
          11     0.00000     0.16546     0.00000     0.00000    -0.06648     0.03813
          12     0.21742     0.00000    -0.01132     0.91970     0.00000     0.00000
          13     0.00000    -0.10741     0.00000     0.00000     0.14937    -0.06574
          14     0.00000     0.18730     0.00000     0.00000    -0.00229     0.13633
          15     0.40287     0.00000     0.21020    -0.16564     0.00000     0.00000
          16     0.00000    -0.00892     0.00000     0.00000    -0.05251     0.10842
          17     0.00000    -0.00681     0.00000     0.00000    -0.04491    -0.16124
          18     0.09974     0.00000    -0.08469    -0.00692     0.00000     0.00000
          19     0.00000    -0.12096     0.00000     0.00000     0.12555    -0.08869
          20     0.00000     0.03022     0.00000     0.00000    -0.18734    -0.01063
          21    -0.26605     0.00000     0.04519     0.19910     0.00000     0.00000
          22     0.00000     0.05549     0.00000     0.00000    -0.02845     0.01353
          23     0.00000    -0.14770     0.00000     0.00000    -0.10525     0.08942
          24    -0.09497     0.00000    -0.01570     0.01362     0.00000     0.00000
          25     0.00000     0.06842     0.00000     0.00000    -0.04321     0.04882
          26     0.00000     0.09697     0.00000     0.00000    -0.03511    -0.24026
          27     0.41911     0.00000    -0.40262     0.00632     0.00000     0.00000

                   13          14          15          16          17          18
 
 P.Frequency      818.80      968.56      994.18     1003.74     1162.43     1241.24
 
           1     0.00000     0.00000     0.00887     0.00000    -0.00842    -0.05551
           2     0.00000     0.00000     0.02218     0.00000     0.06071    -0.13142
           3    -0.02992     0.01461     0.00000     0.00129     0.00000     0.00000
           4     0.00000     0.00000    -0.06145     0.00000    -0.09420     0.02293
           5     0.00000     0.00000    -0.02515     0.00000    -0.06307     0.15523
           6     0.12936    -0.10770     0.00000    -0.01729     0.00000     0.00000
           7     0.00000     0.00000     0.11367     0.00000     0.05671     0.00408
           8     0.00000     0.00000     0.12225     0.00000    -0.01531     0.05635
           9    -0.11943    -0.01179     0.00000     0.07339     0.00000     0.00000
          10     0.00000     0.00000     0.09056     0.00000     0.23263     0.19660
          11     0.00000     0.00000     0.17653     0.00000     0.52164     0.31591
          12    -0.09143    -0.02849     0.00000    -0.02833     0.00000     0.00000
          13     0.00000     0.00000    -0.04712     0.00000    -0.01433     0.00143
          14     0.00000     0.00000    -0.07249     0.00000    -0.32813     0.23975
          15    -0.22197     0.78207     0.00000     0.10806     0.00000     0.00000
          16     0.00000     0.00000     0.01485     0.00000    -0.00580     0.02724
          17     0.00000     0.00000    -0.10064     0.00000     0.01512    -0.05972
          18    -0.03952     0.00250     0.00000    -0.17542     0.00000     0.00000
          19     0.00000     0.00000    -0.00947     0.00000     0.21924     0.11522
          20     0.00000     0.00000     0.52374     0.00000    -0.49966    -0.25210
          21     0.70864     0.48039     0.00000    -0.07941     0.00000     0.00000
          22     0.00000     0.00000    -0.05477     0.00000     0.01368    -0.00463
          23     0.00000     0.00000    -0.04278     0.00000     0.00553     0.00557
          24     0.01706     0.00020     0.00000     0.04323     0.00000     0.00000
          25     0.00000     0.00000    -0.10405     0.00000    -0.00556    -0.00479
          26     0.00000     0.00000    -0.25878     0.00000     0.00806    -0.11460
          27     0.16110    -0.07601     0.00000     0.71392     0.00000     0.00000

                   19          20          21          22          23          24
 
 P.Frequency     1330.51     1365.29     1418.62     1677.29     1732.28     2986.18
 
           1     0.00299    -0.05785     0.00862     0.00855    -0.01577     0.00003
           2     0.01453     0.00039     0.00203    -0.00746     0.01799     0.00048
           3     0.00000     0.00000     0.00000     0.00000     0.00000     0.00000
           4    -0.07502     0.06307    -0.02299    -0.06305     0.10127     0.00037
           5    -0.04710    -0.03584    -0.01061     0.09011    -0.13117    -0.00079
           6     0.00000     0.00000     0.00000     0.00000     0.00000     0.00000
           7     0.10076     0.03147     0.03364     0.04265    -0.10072     0.00159
           8    -0.01260    -0.12898     0.03498    -0.09704     0.10210    -0.00092
           9     0.00000     0.00000     0.00000     0.00000     0.00000     0.00000
          10    -0.10496     0.21802    -0.03658    -0.03920     0.05796    -0.00147
          11    -0.18604     0.50590    -0.08055    -0.08691     0.14732     0.00094
          12     0.00000     0.00000     0.00000     0.00000     0.00000     0.00000
          13    -0.33046    -0.03853    -0.05447     0.00228     0.01812     0.00507
          14     0.71052     0.28797     0.07921    -0.15347     0.20825    -0.00041
          15     0.00000     0.00000     0.00000     0.00000     0.00000     0.00000
          16    -0.01269    -0.02132     0.04027     0.15588     0.11739    -0.06187
          17     0.03380     0.04954    -0.07414     0.11300     0.04400     0.05124
          18     0.00000     0.00000     0.00000     0.00000     0.00000     0.00000
          19     0.16900    -0.15271     0.08055     0.00626    -0.03467    -0.03559
          20    -0.20205     0.41354    -0.07883     0.03926    -0.17588    -0.00278
          21     0.00000     0.00000     0.00000     0.00000     0.00000     0.00000
          22     0.01124    -0.00425    -0.08277    -0.10627    -0.07295    -0.00092
          23    -0.00864    -0.00285     0.00080    -0.05217    -0.03117    -0.00090
          24     0.00000     0.00000     0.00000     0.00000     0.00000     0.00000
          25    -0.11489     0.08687     0.58097    -0.03158    -0.03756     0.75941
          26    -0.10759     0.20443     0.62810    -0.11563    -0.14825    -0.58078
          27     0.00000     0.00000     0.00000     0.00000     0.00000     0.00000

                   25          26          27
 
 P.Frequency     3215.92     3239.28     3827.15
 
           1    -0.00190    -0.00029     0.05259
           2    -0.00084     0.00031    -0.03054
           3     0.00000     0.00000     0.00000
           4     0.08126     0.00512     0.00295
           5     0.02166    -0.00480     0.00119
           6     0.00000     0.00000     0.00000
           7    -0.00313    -0.08056    -0.00062
           8     0.00422    -0.02385     0.00102
           9     0.00000     0.00000     0.00000
          10     0.01446    -0.00004    -0.84951
          11     0.00020     0.00295     0.45998
          12     0.00000     0.00000     0.00000
          13    -0.90674    -0.00685    -0.01191
          14    -0.29160    -0.00178     0.00232
          15     0.00000     0.00000     0.00000
          16     0.00072    -0.00163    -0.00004
          17     0.00015     0.00486    -0.00058
          18     0.00000     0.00000     0.00000
          19    -0.01265     0.90388    -0.00162
          20    -0.00326     0.29872     0.00013
          21     0.00000     0.00000     0.00000
          22    -0.00041     0.00018     0.00015
          23     0.00014     0.00006     0.00016
          24     0.00000     0.00000     0.00000
          25     0.00273     0.02252    -0.00118
          26    -0.00408    -0.02231     0.00038
          27     0.00000     0.00000     0.00000



 ----------------------------------------------------------------------------
 Normal Eigenvalue ||    Projected Derivative Dipole Moments (debye/angs)
  Mode   [cm**-1]  ||      [d/dqX]             [d/dqY]           [d/dqZ]
 ------ ---------- || ------------------ ------------------ -----------------
    1       -0.000 ||      -0.131               0.004             0.000
    2       -0.000 ||       0.000               0.000            -0.016
    3       -0.000 ||       0.132              -0.004             0.000
    4       -0.000 ||       0.017              -0.001             0.000
    5       -0.000 ||       0.000               0.000            -0.148
    6        0.000 ||       0.000               0.000             0.131
    7      166.464 ||       0.000               0.000             0.981
    8      204.993 ||      -0.145               0.508             0.000
    9      252.582 ||       0.000               0.000            -0.005
   10      429.991 ||       0.000               0.000             1.539
   11      438.250 ||       0.062              -0.302             0.000
   12      738.326 ||       0.147              -1.487             0.000
   13      818.796 ||       0.000               0.000             0.478
   14      968.557 ||       0.000               0.000             0.900
   15      994.182 ||       0.224              -0.883             0.000
   16     1003.742 ||       0.000               0.000            -0.030
   17     1162.428 ||       0.210               0.004             0.000
   18     1241.241 ||      -0.183               2.165             0.000
   19     1330.513 ||      -0.221              -0.029             0.000
   20     1365.285 ||       0.170               1.674             0.000
   21     1418.620 ||       0.258              -0.422             0.000
   22     1677.295 ||       0.557               2.968             0.000
   23     1732.277 ||       1.224              -1.194             0.000
   24     2986.183 ||      -1.362               1.074             0.000
   25     3215.922 ||       0.076               0.127             0.000
   26     3239.281 ||      -0.151              -0.220             0.000
   27     3827.154 ||      -1.124               1.478             0.000
 ----------------------------------------------------------------------------



  
  
 ----------------------------------------------------------------------------
 Normal Eigenvalue ||           Projected Infra Red Intensities
  Mode   [cm**-1]  || [atomic units] [(debye/angs)**2] [(KM/mol)] [arbitrary]
 ------ ---------- || -------------- ----------------- ---------- -----------
    1       -0.000 ||    0.000739           0.017         0.721       0.134
    2       -0.000 ||    0.000011           0.000         0.011       0.002
    3       -0.000 ||    0.000752           0.017         0.733       0.136
    4       -0.000 ||    0.000012           0.000         0.012       0.002
    5       -0.000 ||    0.000953           0.022         0.929       0.173
    6        0.000 ||    0.000748           0.017         0.729       0.136
    7      166.464 ||    0.041734           0.963        40.684       7.567
    8      204.993 ||    0.012085           0.279        11.781       2.191
    9      252.582 ||    0.000001           0.000         0.001       0.000
   10      429.991 ||    0.102640           2.368       100.059      18.609
   11      438.250 ||    0.004107           0.095         4.004       0.745
   12      738.326 ||    0.096825           2.234        94.390      17.555
   13      818.796 ||    0.009893           0.228         9.644       1.794
   14      968.557 ||    0.035114           0.810        34.231       6.367
   15      994.182 ||    0.035932           0.829        35.028       6.515
   16     1003.742 ||    0.000038           0.001         0.037       0.007
   17     1162.428 ||    0.001904           0.044         1.856       0.345
   18     1241.241 ||    0.204563           4.719       199.418      37.089
   19     1330.513 ||    0.002149           0.050         2.095       0.390
   20     1365.285 ||    0.122721           2.831       119.635      22.250
   21     1418.620 ||    0.010585           0.244        10.319       1.919
   22     1677.295 ||    0.395142           9.116       385.204      71.642
   23     1732.277 ||    0.126724           2.924       123.537      22.976
   24     2986.183 ||    0.130411           3.009       127.131      23.644
   25     3215.922 ||    0.000945           0.022         0.921       0.171
   26     3239.281 ||    0.003079           0.071         3.001       0.558
   27     3827.154 ||    0.149377           3.446       145.621      27.083
 ----------------------------------------------------------------------------



 vib:animation  F

 Task  times  cpu:     2731.4s     wall:     2770.8s
 
 
                                NWChem Input Module
                                -------------------
 
 
 Summary of allocated global arrays
-----------------------------------
  No active global arrays



                         GA Statistics for process    0
                         ------------------------------

       create   destroy   get      put      acc     scatter   gather  read&inc
calls: 6.31e+04 6.31e+04 5.38e+06 9.06e+05 2.11e+06    0        0     8.08e+04 
number of processes/call 1.82e+01 5.12e+01 2.19e+01 0.00e+00 0.00e+00
bytes total:             5.44e+09 6.61e+09 1.58e+09 0.00e+00 0.00e+00 6.47e+05
bytes remote:            3.38e+09 4.54e+09 1.24e+09 0.00e+00 0.00e+00 0.00e+00
Max memory consumed for GA by this process: 61382856 bytes
 
MA_summarize_allocated_blocks: starting scan ...
MA_summarize_allocated_blocks: scan completed: 0 heap blocks, 0 stack blocks
MA usage statistics:

	allocation statistics:
					      heap	     stack
					      ----	     -----
	current number of blocks	         0	         0
	maximum number of blocks	        25	        39
	current total bytes		         0	         0
	maximum total bytes		  51845232	  27107528
	maximum total K-bytes		     51846	     27108
	maximum total M-bytes		        52	        28
 
 
                                     CITATION
                                     --------
                Please cite the following reference when publishing
                           results obtained with NWChem:
 
          E. Apr, E. J. Bylaska, W. A. de Jong, N. Govind, K. Kowalski,
       T. P. Straatsma, M. Valiev, H. J. J. van Dam, Y. Alexeev, J. Anchell,
       V. Anisimov, F. W. Aquino, R. Atta-Fynn, J. Autschbach, N. P. Bauman,
     J. C. Becca, D. E. Bernholdt, K. Bhaskaran-Nair, S. Bogatko, P. Borowski,
        J. Boschen, J. Brabec, A. Bruner, E. Caut, Y. Chen, G. N. Chuev,
      C. J. Cramer, J. Daily, M. J. O. Deegan, T. H. Dunning Jr., M. Dupuis,
   K. G. Dyall, G. I. Fann, S. A. Fischer, A. Fonari, H. Frchtl, L. Gagliardi,
      J. Garza, N. Gawande, S. Ghosh, K. Glaesemann, A. W. Gtz, J. Hammond,
       V. Helms, E. D. Hermes, K. Hirao, S. Hirata, M. Jacquelin, L. Jensen,
   B. G. Johnson, H. Jnsson, R. A. Kendall, M. Klemm, R. Kobayashi, V. Konkov,
      S. Krishnamoorthy, M. Krishnan, Z. Lin, R. D. Lins, R. J. Littlefield,
      A. J. Logsdail, K. Lopata, W. Ma, A. V. Marenich, J. Martin del Campo,
   D. Mejia-Rodriguez, J. E. Moore, J. M. Mullin, T. Nakajima, D. R. Nascimento,
    J. A. Nichols, P. J. Nichols, J. Nieplocha, A. Otero-de-la-Roza, B. Palmer,
    A. Panyala, T. Pirojsirikul, B. Peng, R. Peverati, J. Pittner, L. Pollack,
   R. M. Richard, P. Sadayappan, G. C. Schatz, W. A. Shelton, D. W. Silverstein,
   D. M. A. Smith, T. A. Soares, D. Song, M. Swart, H. L. Taylor, G. S. Thomas,
            V. Tipparaju, D. G. Truhlar, K. Tsemekhman, T. Van Voorhis,
     . Vzquez-Mayagoitia, P. Verma, O. Villa, A. Vishnu, K. D. Vogiatzis,
        D. Wang, J. H. Weare, M. J. Williamson, T. L. Windus, K. Woliski,
        A. T. Wong, Q. Wu, C. Yang, Q. Yu, M. Zacharias, Z. Zhang, Y. Zhao,
                                and R. J. Harrison
                        "NWChem: Past, present, and future
                         J. Chem. Phys. 152, 184102 (2020)
                               doi:10.1063/5.0004997
 
                                      AUTHORS
                                      -------
     E. Apra, E. J. Bylaska, N. Govind, K. Kowalski, M. Valiev, W. A. de Jong,
      T. P. Straatsma, H. J. J. van Dam, D. Wang, T. L. Windus, N. P. Bauman,
       A. Panyala, J. Hammond, J. Autschbach, K. Bhaskaran-Nair, J. Brabec,
    K. Lopata, S. A. Fischer, S. Krishnamoorthy, M. Jacquelin, W. Ma, M. Klemm,
       O. Villa, Y. Chen, V. Anisimov, F. Aquino, S. Hirata, M. T. Hackler,
           Eric Hermes, L. Jensen, J. E. Moore, J. C. Becca, V. Konjkov,
            D. Mejia-Rodriguez, T. Risthaus, M. Malagoli, A. Marenich,
   A. Otero-de-la-Roza, J. Mullin, P. Nichols, R. Peverati, J. Pittner, Y. Zhao,
        P.-D. Fan, A. Fonari, M. J. Williamson, R. J. Harrison, J. R. Rehr,
      M. Dupuis, D. Silverstein, D. M. A. Smith, J. Nieplocha, V. Tipparaju,
      M. Krishnan, B. E. Van Kuiken, A. Vazquez-Mayagoitia, M. Swart, Q. Wu,
   T. Van Voorhis, A. A. Auer, M. Nooijen, L. D. Crosby, E. Brown, G. Cisneros,
     G. I. Fann, H. Fruchtl, J. Garza, K. Hirao, R. A. Kendall, J. A. Nichols,
       K. Tsemekhman, K. Wolinski, J. Anchell, D. E. Bernholdt, P. Borowski,
       T. Clark, D. Clerc, H. Dachsel, M. J. O. Deegan, K. Dyall, D. Elwood,
      E. Glendening, M. Gutowski, A. C. Hess, J. Jaffe, B. G. Johnson, J. Ju,
        R. Kobayashi, R. Kutteh, Z. Lin, R. Littlefield, X. Long, B. Meng,
      T. Nakajima, S. Niu, L. Pollack, M. Rosing, K. Glaesemann, G. Sandrone,
      M. Stave, H. Taylor, G. Thomas, J. H. van Lenthe, A. T. Wong, Z. Zhang.

 Total times  cpu:     3454.0s     wall:     3508.2s
