 argument  1 = 8tC.nw
 


============================== echo of input deck ==============================
echo
start 8tC_
title "H,CHO,H Chelate"
charge 0

geometry
 zmatrix
  O
  C  1  R1
  C  2  R2  1  A1
  C  3  R3  2  A2  1  D0
  O  4  R4  3  A3  2  D0
  H  1  R5  2  A4  3  D0
  H  2  R6  3  A5  4  D180
  C  3  R7  2  A6  1  D180
  H  4  R8  3  A7  2  D180
  O  8  R9  3  A8  2  D180
  H  8  R10 3  A9  2  D0
  variables
    R1  1.329
    R2  1.363
    A1  124.5
    R3  1.440
    A2  119.5
    R4  1.249
    A3  123.5
    R5  0.994
    A4  105.4
    R6  1.085
    A5  122.5
    R7  1.478
    A6  120.0
    R8  1.099
    A7  117.6
    R9  1.250
    A8  120.0
    R10 1.000
    A9  120.0
  constants
    D0  0.000
    D180 180.0
 end
end

basis spherical
 * library aug-cc-pVDZ
end

set lindep:n_dep 0

set cphf:maxsub 95
set cphf:maxiter 999
set int:acc_std 1d-16
set fock:densityscreen f

scf
 maxiter 99
 vectors input atomic
 thresh 1d-9
 tol2e 1d-15
end

mp2
 freeze atomic
 tight
end

driver
 clear
 maxiter 99
 tight
end

set "mp2:aotol2e fock" 1d-15
set mp2:aotol2e 1d-15
set mp2:backtol 1d-15


task mp2 optimize
task mp2 frequencies


================================================================================


                                         
                                         
 
 
             Northwest Computational Chemistry Package (NWChem) 7.0.0
             --------------------------------------------------------
 
 
                    Environmental Molecular Sciences Laboratory
                       Pacific Northwest National Laboratory
                                Richland, WA 99352
 
                              Copyright (c) 1994-2020
                       Pacific Northwest National Laboratory
                            Battelle Memorial Institute
 
             NWChem is an open-source computational chemistry package
                        distributed under the terms of the
                      Educational Community License (ECL) 2.0
             A copy of the license is included with this distribution
                              in the LICENSE.TXT file
 
                                  ACKNOWLEDGMENT
                                  --------------

            This software and its documentation were developed at the
            EMSL at Pacific Northwest National Laboratory, a multiprogram
            national laboratory, operated for the U.S. Department of Energy
            by Battelle under Contract Number DE-AC05-76RL01830. Support
            for this work was provided by the Department of Energy Office
            of Biological and Environmental Research, Office of Basic
            Energy Sciences, and the Office of Advanced Scientific Computing.


           Job information
           ---------------

    hostname        = compute-0-19.local
    program         = /scratch/nwchem.277679
    date            = Wed Mar 31 20:07:01 2021

    compiled        = Wed_Mar_31_10:43:23_2021
    source          = /home/edo/nwchem-7.0.1
    nwchem branch   = 7.0.1
    nwchem revision = de46fdf
    ga revision     = 5.7.1
    use scalapack   = T
    input           = 8tC.nw
    prefix          = 8tC_.
    data base       = ./8tC_.db
    status          = startup
    nproc           =       11
    time left       =     -1s



           Memory information
           ------------------

    heap     =  215205459 doubles =   1641.9 Mbytes
    stack    =  215205461 doubles =   1641.9 Mbytes
    global   =  122974549 doubles =    938.2 Mbytes (distinct from heap & stack)
    total    =  553385469 doubles =   4222.0 Mbytes
    verify   = yes
    hardfail = no 


           Directory information
           ---------------------
 
  0 permanent = .
  0 scratch   = /scratch
 
 
 
 
                                NWChem Input Module
                                -------------------
 
 
                                  H,CHO,H Chelate
                                  ---------------

 Scaling coordinates for geometry "geometry" by  1.889725989
 (inverse scale =  0.529177249)

 CS  symmetry detected
 
 
                             Geometry "geometry" -> ""
                             -------------------------
 
 Output coordinates in angstroms (scale by  1.889725989 to convert to a.u.)
 
  No.       Tag          Charge          X              Y              Z
 ---- ---------------- ---------- -------------- -------------- --------------
    1 O                    8.0000    -0.89404942     2.04898477     0.00000000
    2 C                    6.0000    -1.16998907     0.74894696     0.00000000
    3 C                    6.0000    -0.23147664    -0.23946764     0.00000000
    4 C                    6.0000     1.16564867     0.10930291     0.00000000
    5 O                    8.0000     1.58223380     1.28678235     0.00000000
    6 H                    1.0000     0.09818392     2.10822152     0.00000000
    7 H                    1.0000    -2.23499480     0.54161199     0.00000000
    8 C                    6.0000    -0.65084252    -1.65672423     0.00000000
    9 H                    1.0000     1.89554060    -0.71231669     0.00000000
   10 O                    8.0000     0.20986221    -2.56319396     0.00000000
   11 H                    1.0000    -1.62314506    -1.89045007     0.00000000
 
      Atomic Mass 
      ----------- 
 
      O                 15.994910
      C                 12.000000
      H                  1.007825
 

 Effective nuclear repulsion energy (a.u.)     278.2559429631

            Nuclear Dipole moment (a.u.) 
            ----------------------------
        X                 Y               Z
 ---------------- ---------------- ----------------
    -0.0000000000     0.0000000000     0.0000000000
 
      Symmetry information
      --------------------
 
 Group name             Cs        
 Group number              2
 Group order               2
 No. of unique centers    11
 
      Symmetry unique atoms
 
     1    2    3    4    5    6    7    8    9   10   11
 


                                Z-matrix (user)
                                -------- 

 Units are Angstrom for bonds and degrees for angles

  Constants are marked with an asterisk (*).

  Constrained variables are marked with a plus sign (+).

 
      Type          Name      I     J     K     L     M      Value
      ----------- --------  ----- ----- ----- ----- ----- ----------
    1 Stretch      R1          2     1                       1.32900
    2 Stretch      R2          3     2                       1.36300
    3 Bend         A1          3     2     1               124.50000
    4 Stretch      R3          4     3                       1.44000
    5 Bend         A2          4     3     2               119.50000
    6*Torsion      D0          4     3     2     1           0.00000
    7 Stretch      R4          5     4                       1.24900
    8 Bend         A3          5     4     3               123.50000
    9*Torsion      D0          5     4     3     2           0.00000
   10 Stretch      R5          6     1                       0.99400
   11 Bend         A4          6     1     2               105.40000
   12*Torsion      D0          6     1     2     3           0.00000
   13 Stretch      R6          7     2                       1.08500
   14 Bend         A5          7     2     3               122.50000
   15*Torsion      D180        7     2     3     4         180.00000
   16 Stretch      R7          8     3                       1.47800
   17 Bend         A6          8     3     2               120.00000
   18*Torsion      D180        8     3     2     1         180.00000
   19 Stretch      R8          9     4                       1.09900
   20 Bend         A7          9     4     3               117.60000
   21*Torsion      D180        9     4     3     2         180.00000
   22 Stretch      R9         10     8                       1.25000
   23 Bend         A8         10     8     3               120.00000
   24*Torsion      D180       10     8     3     2         180.00000
   25 Stretch      R10        11     8                       1.00000
   26 Bend         A9         11     8     3               120.00000
   27*Torsion      D0         11     8     3     2           0.00000
 
 
            XYZ format geometry
            -------------------
    11
 geometry
 O                    -0.89404942     2.04898477     0.00000000
 C                    -1.16998907     0.74894696     0.00000000
 C                    -0.23147664    -0.23946764     0.00000000
 C                     1.16564867     0.10930291     0.00000000
 O                     1.58223380     1.28678235     0.00000000
 H                     0.09818392     2.10822152     0.00000000
 H                    -2.23499480     0.54161199     0.00000000
 C                    -0.65084252    -1.65672423     0.00000000
 H                     1.89554060    -0.71231669     0.00000000
 O                     0.20986221    -2.56319396     0.00000000
 H                    -1.62314506    -1.89045007     0.00000000
 
 ==============================================================================
                                internuclear distances
 ------------------------------------------------------------------------------
       center one      |      center two      | atomic units |  angstroms
 ------------------------------------------------------------------------------
    2 C                |   1 O                |     2.51145  |     1.32900
    3 C                |   2 C                |     2.57570  |     1.36300
    4 C                |   3 C                |     2.72121  |     1.44000
    5 O                |   4 C                |     2.36027  |     1.24900
    6 H                |   1 O                |     1.87839  |     0.99400
    7 H                |   2 C                |     2.05035  |     1.08500
    8 C                |   3 C                |     2.79302  |     1.47800
    9 H                |   4 C                |     2.07681  |     1.09900
   10 O                |   8 C                |     2.36216  |     1.25000
   11 H                |   8 C                |     1.88973  |     1.00000
 ------------------------------------------------------------------------------
                         number of included internuclear distances:         10
 ==============================================================================



 ==============================================================================
                                 internuclear angles
 ------------------------------------------------------------------------------
        center 1       |       center 2       |       center 3       |  degrees
 ------------------------------------------------------------------------------
    2 C                |   1 O                |   6 H                |   105.40
    1 O                |   2 C                |   3 C                |   124.50
    1 O                |   2 C                |   7 H                |   113.00
    3 C                |   2 C                |   7 H                |   122.50
    2 C                |   3 C                |   4 C                |   119.50
    2 C                |   3 C                |   8 C                |   120.00
    4 C                |   3 C                |   8 C                |   120.50
    3 C                |   4 C                |   5 O                |   123.50
    3 C                |   4 C                |   9 H                |   117.60
    5 O                |   4 C                |   9 H                |   118.90
    3 C                |   8 C                |  10 O                |   120.00
    3 C                |   8 C                |  11 H                |   120.00
   10 O                |   8 C                |  11 H                |   120.00
 ------------------------------------------------------------------------------
                            number of included internuclear angles:         13
 ==============================================================================





 Summary of "ao basis" -> "" (spherical)
 ------------------------------------------------------------------------------
       Tag                 Description            Shells   Functions and Types
 ---------------- ------------------------------  ------  ---------------------
 *                        aug-cc-pVDZ                 on all atoms 


 
  Deleted DRIVER restart files 
 
 
 
                           NWChem Geometry Optimization
                           ----------------------------
 
 
 
 
                                  H,CHO,H Chelate
 
 
 maximum gradient threshold         (gmax) =   0.000015
 rms gradient threshold             (grms) =   0.000010
 maximum cartesian step threshold   (xmax) =   0.000060
 rms cartesian step threshold       (xrms) =   0.000040
 fixed trust radius                (trust) =   0.300000
 maximum step size to saddle      (sadstp) =   0.100000
 energy precision                  (eprec) =   1.0D-07
 maximum number of steps          (nptopt) =   99
 initial hessian option           (inhess) =    0
 line search option               (linopt) =    1
 hessian update option            (modupd) =    1
 saddle point option              (modsad) =    0
 initial eigen-mode to follow     (moddir) =    0
 initial variable to follow       (vardir) =    0
 follow first negative mode     (firstneg) =    T
 apply conjugacy                    (opcg) =    F
 source of zmatrix                         =   user    


          -------------------
          Energy Minimization
          -------------------

 
 Names of Z-matrix variables 
    1 R1           2 R2           3 A1           4 R3           5 A2      
    6 D0           7 R4           8 A3           9 D0          10 R5      
   11 A4          12 D0          13 R6          14 A5          15 D180    
   16 R7          17 A6          18 D180        19 R8          20 A7      
   21 D180        22 R9          23 A8          24 D180        25 R10     
   26 A9          27 D0      
 
 Variables with the same non-blank name are constrained to be equal
 
     variables named       D0 =     6    9   12   27 
     variables named     D180 =    15   18   21   24 

 Number of frozen variables =    8
           Frozen variables =    6    9   12   15   18   21   24   27
 
 Using diagonal initial Hessian 
 Scaling for Hessian diagonals: bonds = 1.00  angles = 0.25  torsions = 0.10

          --------
          Step   0
          --------
 
 
                         Geometry "geometry" -> "geometry"
                         ---------------------------------
 
 Output coordinates in angstroms (scale by  1.889725989 to convert to a.u.)
 
  No.       Tag          Charge          X              Y              Z
 ---- ---------------- ---------- -------------- -------------- --------------
    1 O                    8.0000    -0.89404942     2.04898477     0.00000000
    2 C                    6.0000    -1.16998907     0.74894696     0.00000000
    3 C                    6.0000    -0.23147664    -0.23946764     0.00000000
    4 C                    6.0000     1.16564867     0.10930291     0.00000000
    5 O                    8.0000     1.58223380     1.28678235     0.00000000
    6 H                    1.0000     0.09818392     2.10822152     0.00000000
    7 H                    1.0000    -2.23499480     0.54161199     0.00000000
    8 C                    6.0000    -0.65084252    -1.65672423     0.00000000
    9 H                    1.0000     1.89554060    -0.71231669     0.00000000
   10 O                    8.0000     0.20986221    -2.56319396     0.00000000
   11 H                    1.0000    -1.62314506    -1.89045007     0.00000000
 
      Atomic Mass 
      ----------- 
 
      O                 15.994910
      C                 12.000000
      H                  1.007825
 

 Effective nuclear repulsion energy (a.u.)     278.2559429631

            Nuclear Dipole moment (a.u.) 
            ----------------------------
        X                 Y               Z
 ---------------- ---------------- ----------------
    -0.0000000000     0.0000000000     0.0000000000
 
      Symmetry information
      --------------------
 
 Group name             Cs        
 Group number              2
 Group order               2
 No. of unique centers    11
 
      Symmetry unique atoms
 
     1    2    3    4    5    6    7    8    9   10   11
 
                      Basis "ao basis" -> "ao basis" (spherical)
                      -----
  O (Oxygen)
  ----------
            Exponent  Coefficients 
       -------------- ---------------------------------------------------------
  1 S  1.17200000E+04  0.000710
  1 S  1.75900000E+03  0.005470
  1 S  4.00800000E+02  0.027837
  1 S  1.13700000E+02  0.104800
  1 S  3.70300000E+01  0.283062
  1 S  1.32700000E+01  0.448719
  1 S  5.02500000E+00  0.270952
  1 S  1.01300000E+00  0.015458
 
  2 S  1.17200000E+04 -0.000160
  2 S  1.75900000E+03 -0.001263
  2 S  4.00800000E+02 -0.006267
  2 S  1.13700000E+02 -0.025716
  2 S  3.70300000E+01 -0.070924
  2 S  1.32700000E+01 -0.165411
  2 S  5.02500000E+00 -0.116955
  2 S  1.01300000E+00  0.557368
 
  3 S  3.02300000E-01  1.000000
 
  4 S  7.89600000E-02  1.000000
 
  5 P  1.77000000E+01  0.043018
  5 P  3.85400000E+00  0.228913
  5 P  1.04600000E+00  0.508728
 
  6 P  2.75300000E-01  1.000000
 
  7 P  6.85600000E-02  1.000000
 
  8 D  1.18500000E+00  1.000000
 
  9 D  3.32000000E-01  1.000000
 
  C (Carbon)
  ----------
            Exponent  Coefficients 
       -------------- ---------------------------------------------------------
  1 S  6.66500000E+03  0.000692
  1 S  1.00000000E+03  0.005329
  1 S  2.28000000E+02  0.027077
  1 S  6.47100000E+01  0.101718
  1 S  2.10600000E+01  0.274740
  1 S  7.49500000E+00  0.448564
  1 S  2.79700000E+00  0.285074
  1 S  5.21500000E-01  0.015204
 
  2 S  6.66500000E+03 -0.000146
  2 S  1.00000000E+03 -0.001154
  2 S  2.28000000E+02 -0.005725
  2 S  6.47100000E+01 -0.023312
  2 S  2.10600000E+01 -0.063955
  2 S  7.49500000E+00 -0.149981
  2 S  2.79700000E+00 -0.127262
  2 S  5.21500000E-01  0.544529
 
  3 S  1.59600000E-01  1.000000
 
  4 S  4.69000000E-02  1.000000
 
  5 P  9.43900000E+00  0.038109
  5 P  2.00200000E+00  0.209480
  5 P  5.45600000E-01  0.508557
 
  6 P  1.51700000E-01  1.000000
 
  7 P  4.04100000E-02  1.000000
 
  8 D  5.50000000E-01  1.000000
 
  9 D  1.51000000E-01  1.000000
 
  H (Hydrogen)
  ------------
            Exponent  Coefficients 
       -------------- ---------------------------------------------------------
  1 S  1.30100000E+01  0.019685
  1 S  1.96200000E+00  0.137977
  1 S  4.44600000E-01  0.478148
 
  2 S  1.22000000E-01  1.000000
 
  3 S  2.97400000E-02  1.000000
 
  4 P  7.27000000E-01  1.000000
 
  5 P  1.41000000E-01  1.000000
 


 Summary of "ao basis" -> "ao basis" (spherical)
 ------------------------------------------------------------------------------
       Tag                 Description            Shells   Functions and Types
 ---------------- ------------------------------  ------  ---------------------
 O                        aug-cc-pVDZ                9       23   4s3p2d
 C                        aug-cc-pVDZ                9       23   4s3p2d
 H                        aug-cc-pVDZ                5        9   3s2p


                                 NWChem SCF Module
                                 -----------------
 
 
                                  H,CHO,H Chelate
 
 

  ao basis        = "ao basis"
  functions       =   197
  atoms           =    11
  closed shells   =    26
  open shells     =     0
  charge          =   0.00
  wavefunction    = RHF 
  input vectors   = atomic
  output vectors  = ./8tC_.movecs
  use symmetry    = T
  symmetry adapt  = T


 Summary of "ao basis" -> "ao basis" (spherical)
 ------------------------------------------------------------------------------
       Tag                 Description            Shells   Functions and Types
 ---------------- ------------------------------  ------  ---------------------
 O                        aug-cc-pVDZ                9       23   4s3p2d
 C                        aug-cc-pVDZ                9       23   4s3p2d
 H                        aug-cc-pVDZ                5        9   3s2p


      Symmetry analysis of basis
      --------------------------
 
        a'        140
        a"         57
 

int_init: setting std/high accuracies to  1.0D-16  1.0D-32

 Forming initial guess at       0.4s


 Forcing the number of linearly dependent vectors to be  0
 
      Superposition of Atomic Density Guess
      -------------------------------------
 
 Sum of atomic energies:        -376.96587037
 
      Non-variational initial energy
      ------------------------------

 Total energy =    -380.481992
 1-e energy   =   -1065.477309
 2-e energy   =     406.739374
 HOMO         =      -0.324494
 LUMO         =      -0.069018
 
 
      Symmetry analysis of molecular orbitals - initial
      -------------------------------------------------
 
  Numbering of irreducible representations: 
 
     1 a'          2 a"      
 
  Orbital symmetries:
 
     1 a'          2 a'          3 a'          4 a'          5 a'      
     6 a'          7 a'          8 a'          9 a'         10 a'      
    11 a'         12 a'         13 a'         14 a'         15 a'      
    16 a'         17 a"         18 a'         19 a'         20 a'      
    21 a"         22 a"         23 a'         24 a'         25 a"      
    26 a'         27 a"         28 a"         29 a'         30 a'      
    31 a'         32 a'         33 a"         34 a'         35 a'      
    36 a'      
 

 Starting SCF solution at       2.8s



 ----------------------------------------------
         Quadratically convergent ROHF

 Convergence threshold     :          1.000E-09
 Maximum no. of iterations :           99
 Final Fock-matrix accuracy:          1.000E-15
 ----------------------------------------------

 Warning: symmetry breaking in RHF:   3.994782327264631E-014

              iter       energy          gnorm     gmax       time
             ----- ------------------- --------- --------- --------
                 1     -378.2009615623  1.81D+00  3.80D-01      5.7
 Warning: symmetry breaking in RHF:   3.218502094635586E-014
 Warning: symmetry breaking in RHF:   2.953669682313683E-014
                 2     -378.3781983405  5.49D-01  6.71D-02     12.4
 Warning: symmetry breaking in RHF:   3.044708918299213E-014
                 3     -378.4078055735  2.25D-02  5.13D-03     22.2
 Warning: symmetry breaking in RHF:   3.043359593479907E-014
                 4     -378.4079230351  2.54D-04  5.81D-05     36.5
 Warning: symmetry breaking in RHF:   3.043349844731795E-014
                 5     -378.4079230456  4.81D-08  6.13D-09     60.9
 Warning: symmetry breaking in RHF:   2.989184883534564E-014
                 6     -378.4079230456  7.69D-11  1.07D-11     79.3


       Final RHF  results 
       ------------------ 

         Total SCF energy =   -378.407923045569
      One-electron energy =  -1068.751071860843
      Two-electron energy =    412.087205852201
 Nuclear repulsion energy =    278.255942963073

        Time for solution =     77.0s


 
       Symmetry analysis of molecular orbitals - final
       -----------------------------------------------
 
  Numbering of irreducible representations: 
 
     1 a'          2 a"      
 
  Orbital symmetries:
 
     1 a'          2 a'          3 a'          4 a'          5 a'      
     6 a'          7 a'          8 a'          9 a'         10 a'      
    11 a'         12 a'         13 a'         14 a'         15 a'      
    16 a'         17 a'         18 a'         19 a'         20 a"      
    21 a'         22 a"         23 a"         24 a'         25 a'      
    26 a"         27 a'         28 a'         29 a"         30 a'      
    31 a'         32 a"         33 a"         34 a'         35 a'      
    36 a'      
 
             Final eigenvalues
             -----------------

              1      
    1  -20.6431
    2  -20.5902
    3  -20.5745
    4  -11.3889
    5  -11.3694
    6  -11.3598
    7  -11.2692
    8   -1.4656
    9   -1.4031
   10   -1.3855
   11   -1.1206
   12   -0.9350
   13   -0.9054
   14   -0.8391
   15   -0.7436
   16   -0.7158
   17   -0.6674
   18   -0.6453
   19   -0.6422
   20   -0.6306
   21   -0.6029
   22   -0.5600
   23   -0.5322
   24   -0.4693
   25   -0.4408
   26   -0.3888
   27    0.0254
   28    0.0467
   29    0.0475
   30    0.0486
   31    0.0641
   32    0.0728
   33    0.0865
   34    0.0951
   35    0.1006
   36    0.1280
 
                       ROHF Final Molecular Orbital Analysis
                       -------------------------------------
 
 Vector    8  Occ=2.000000D+00  E=-1.465574D+00  Symmetry=a'
              MO Center= -6.8D-01,  1.7D+00,  1.0D-17, r^2= 9.5D-01
   Bfn.  Coefficient  Atom+Function         Bfn.  Coefficient  Atom+Function  
  ----- ------------  ---------------      ----- ------------  ---------------
     3      0.453055   1 O  s                 2      0.394008   1 O  s         
    27     -0.231917   2 C  s                32     -0.213204   2 C  py        
    49     -0.207050   3 C  s                26      0.167751   2 C  s         
   116      0.162911   6 H  s                55     -0.159611   3 C  py        
    25      0.154655   2 C  s               136     -0.153153   8 C  s         
 
 Vector    9  Occ=2.000000D+00  E=-1.403105D+00  Symmetry=a'
              MO Center=  1.2D+00,  9.6D-01,  3.7D-33, r^2= 1.3D+00
   Bfn.  Coefficient  Atom+Function         Bfn.  Coefficient  Atom+Function  
  ----- ------------  ---------------      ----- ------------  ---------------
    95      0.443575   5 O  s                94      0.379545   5 O  s         
    27      0.262580   2 C  s                72      0.260814   4 C  s         
    73     -0.207520   4 C  s                71      0.201798   4 C  s         
    54     -0.172491   3 C  px               75      0.152921   4 C  py        
 
 Vector   10  Occ=2.000000D+00  E=-1.385461D+00  Symmetry=a'
              MO Center=  1.1D-02, -2.2D+00,  1.0D-17, r^2= 9.1D-01
   Bfn.  Coefficient  Atom+Function         Bfn.  Coefficient  Atom+Function  
  ----- ------------  ---------------      ----- ------------  ---------------
   168      0.453048  10 O  s               167      0.391057  10 O  s         
   137     -0.283843   8 C  s               136      0.238500   8 C  s         
    55      0.215777   3 C  py              135      0.213668   8 C  s         
    27      0.187768   2 C  s                26     -0.177424   2 C  s         
    58     -0.169186   3 C  py              142      0.168826   8 C  py        
 
 Vector   11  Occ=2.000000D+00  E=-1.120610D+00  Symmetry=a'
              MO Center= -3.8D-01, -4.6D-02,  4.3D-34, r^2= 1.8D+00
   Bfn.  Coefficient  Atom+Function         Bfn.  Coefficient  Atom+Function  
  ----- ------------  ---------------      ----- ------------  ---------------
    48      0.305140   3 C  s                26      0.245695   2 C  s         
    25      0.205557   2 C  s                49      0.205664   3 C  s         
    50     -0.181897   3 C  s         
 
 Vector   12  Occ=2.000000D+00  E=-9.350106D-01  Symmetry=a'
              MO Center= -2.8D-01,  4.9D-01,  3.9D-33, r^2= 2.9D+00
   Bfn.  Coefficient  Atom+Function         Bfn.  Coefficient  Atom+Function  
  ----- ------------  ---------------      ----- ------------  ---------------
    26      0.547582   2 C  s                72     -0.503261   4 C  s         
    27     -0.330851   2 C  s                77      0.303929   4 C  px        
    54      0.286446   3 C  px               25      0.265836   2 C  s         
    73      0.264243   4 C  s                31      0.221081   2 C  px        
    65      0.210402   3 C  d -2             71     -0.204686   4 C  s         
 
 Vector   13  Occ=2.000000D+00  E=-9.053939D-01  Symmetry=a'
              MO Center= -5.0D-01, -9.2D-01, -1.3D-30, r^2= 3.2D+00
   Bfn.  Coefficient  Atom+Function         Bfn.  Coefficient  Atom+Function  
  ----- ------------  ---------------      ----- ------------  ---------------
   137      0.469877   8 C  s                72      0.378225   4 C  s         
   190     -0.304944  11 H  s               135     -0.287189   8 C  s         
    58      0.267586   3 C  py              189     -0.267342  11 H  s         
    77     -0.214353   4 C  px               69     -0.213181   3 C  d  2      
    73     -0.197446   4 C  s               168      0.195902  10 O  s         
 
 Vector   14  Occ=2.000000D+00  E=-8.391125D-01  Symmetry=a'
              MO Center= -5.8D-02,  6.4D-01, -1.2D-17, r^2= 3.5D+00
   Bfn.  Coefficient  Atom+Function         Bfn.  Coefficient  Atom+Function  
  ----- ------------  ---------------      ----- ------------  ---------------
     5      0.273799   1 O  px              116      0.201857   6 H  s         
    28      0.196283   2 C  px               29     -0.183807   2 C  py        
   157     -0.181688   9 H  s                71     -0.166129   4 C  s         
 
 Vector   15  Occ=2.000000D+00  E=-7.435748D-01  Symmetry=a'
              MO Center= -3.6D-01, -5.9D-01, -1.3D-17, r^2= 4.0D+00
   Bfn.  Coefficient  Atom+Function         Bfn.  Coefficient  Atom+Function  
  ----- ------------  ---------------      ----- ------------  ---------------
   137      0.362997   8 C  s                27     -0.298627   2 C  s         
   136      0.292813   8 C  s               190     -0.266113  11 H  s         
   189     -0.253933  11 H  s               138      0.251928   8 C  px        
    26     -0.241836   2 C  s               139      0.233529   8 C  py        
    58      0.228477   3 C  py               52     -0.212443   3 C  py        
 
 Vector   16  Occ=2.000000D+00  E=-7.157794D-01  Symmetry=a'
              MO Center= -7.2D-02,  5.0D-01, -4.9D-17, r^2= 4.0D+00
   Bfn.  Coefficient  Atom+Function         Bfn.  Coefficient  Atom+Function  
  ----- ------------  ---------------      ----- ------------  ---------------
    29     -0.277261   2 C  py                6      0.263211   1 O  py        
    74      0.233455   4 C  px               27     -0.213110   2 C  s         
     5      0.182767   1 O  px              126      0.177004   7 H  s         
   157      0.176917   9 H  s                51     -0.164411   3 C  px        
     9      0.150246   1 O  py               98     -0.150511   5 O  py        
 
 Vector   17  Occ=2.000000D+00  E=-6.674154D-01  Symmetry=a'
              MO Center=  1.8D-01,  8.7D-01,  8.6D-17, r^2= 3.5D+00
   Bfn.  Coefficient  Atom+Function         Bfn.  Coefficient  Atom+Function  
  ----- ------------  ---------------      ----- ------------  ---------------
    73      0.291716   4 C  s                54      0.287821   3 C  px        
     6      0.274058   1 O  py              158     -0.255945   9 H  s         
    97     -0.252335   5 O  px               74     -0.237280   4 C  px        
   126      0.234045   7 H  s                28     -0.231357   2 C  px        
    26      0.212677   2 C  s                72     -0.205148   4 C  s         
 
 Vector   18  Occ=2.000000D+00  E=-6.452624D-01  Symmetry=a'
              MO Center=  5.1D-01,  5.3D-01, -1.1D-16, r^2= 3.5D+00
   Bfn.  Coefficient  Atom+Function         Bfn.  Coefficient  Atom+Function  
  ----- ------------  ---------------      ----- ------------  ---------------
    98      0.386886   5 O  py               75     -0.311221   4 C  py        
   101      0.209252   5 O  py               51      0.189566   3 C  px        
    28     -0.180903   2 C  px              125      0.174393   7 H  s         
    95      0.162424   5 O  s         
 
 Vector   19  Occ=2.000000D+00  E=-6.422241D-01  Symmetry=a'
              MO Center= -1.9D-01, -1.3D+00,  1.4D-17, r^2= 4.7D+00
   Bfn.  Coefficient  Atom+Function         Bfn.  Coefficient  Atom+Function  
  ----- ------------  ---------------      ----- ------------  ---------------
   171      0.342095  10 O  py              138      0.259408   8 C  px        
   170     -0.248798  10 O  px              168     -0.237173  10 O  s         
     5      0.216684   1 O  px              136      0.217559   8 C  s         
    26     -0.199497   2 C  s               137      0.195129   8 C  s         
   139     -0.186090   8 C  py              174      0.181091  10 O  py        
 
 Vector   20  Occ=2.000000D+00  E=-6.306003D-01  Symmetry=a"
              MO Center= -6.0D-01,  1.3D+00,  6.6D-18, r^2= 2.2D+00
   Bfn.  Coefficient  Atom+Function         Bfn.  Coefficient  Atom+Function  
  ----- ------------  ---------------      ----- ------------  ---------------
     7      0.461736   1 O  pz               10      0.343850   1 O  pz        
    30      0.240383   2 C  pz               53      0.167367   3 C  pz        
 
 Vector   21  Occ=2.000000D+00  E=-6.028915D-01  Symmetry=a'
              MO Center= -2.1D-01,  3.3D-01, -1.6D-16, r^2= 4.9D+00
   Bfn.  Coefficient  Atom+Function         Bfn.  Coefficient  Atom+Function  
  ----- ------------  ---------------      ----- ------------  ---------------
   170      0.263457  10 O  px               50      0.242653   3 C  s         
     6     -0.240606   1 O  py                5      0.236645   1 O  px        
   139      0.226559   8 C  py               97     -0.216169   5 O  px        
    52     -0.211359   3 C  py               27     -0.191471   2 C  s         
     9     -0.168829   1 O  py               29      0.163952   2 C  py        
 
 Vector   22  Occ=2.000000D+00  E=-5.600069D-01  Symmetry=a"
              MO Center=  4.3D-01,  3.5D-01,  8.2D-17, r^2= 4.1D+00
   Bfn.  Coefficient  Atom+Function         Bfn.  Coefficient  Atom+Function  
  ----- ------------  ---------------      ----- ------------  ---------------
    99     -0.329723   5 O  pz                7      0.301717   1 O  pz        
   102     -0.248620   5 O  pz               76     -0.234181   4 C  pz        
    10      0.229781   1 O  pz              172     -0.213183  10 O  pz        
   140     -0.169943   8 C  pz              175     -0.162300  10 O  pz        
 
 Vector   23  Occ=2.000000D+00  E=-5.321786D-01  Symmetry=a"
              MO Center=  4.6D-01, -1.1D+00,  3.0D-16, r^2= 4.0D+00
   Bfn.  Coefficient  Atom+Function         Bfn.  Coefficient  Atom+Function  
  ----- ------------  ---------------      ----- ------------  ---------------
   172      0.381415  10 O  pz               99     -0.312744   5 O  pz        
   175      0.284862  10 O  pz              140      0.263767   8 C  pz        
   102     -0.236051   5 O  pz               76     -0.166705   4 C  pz        
 
 Vector   24  Occ=2.000000D+00  E=-4.693400D-01  Symmetry=a'
              MO Center=  5.6D-01, -4.6D-01,  4.5D-17, r^2= 4.7D+00
   Bfn.  Coefficient  Atom+Function         Bfn.  Coefficient  Atom+Function  
  ----- ------------  ---------------      ----- ------------  ---------------
    26      0.408751   2 C  s                97     -0.344889   5 O  px        
   171      0.284453  10 O  py              100     -0.282699   5 O  px        
    77      0.262860   4 C  px              170      0.255402  10 O  px        
    72     -0.244820   4 C  s                31      0.238446   2 C  px        
   174      0.217337  10 O  py               65      0.199869   3 C  d -2      
 
 Vector   25  Occ=2.000000D+00  E=-4.408045D-01  Symmetry=a'
              MO Center=  4.8D-01, -8.4D-01,  4.3D-17, r^2= 4.4D+00
   Bfn.  Coefficient  Atom+Function         Bfn.  Coefficient  Atom+Function  
  ----- ------------  ---------------      ----- ------------  ---------------
    97      0.341283   5 O  px              137     -0.339007   8 C  s         
   170      0.312678  10 O  px              171      0.283590  10 O  py        
   100      0.278259   5 O  px              136     -0.271628   8 C  s         
    77     -0.242179   4 C  px              173      0.226853  10 O  px        
   174      0.227975  10 O  py              142     -0.203503   8 C  py        
 
 Vector   26  Occ=2.000000D+00  E=-3.888280D-01  Symmetry=a"
              MO Center= -2.0D-01, -3.0D-02,  2.5D-18, r^2= 3.3D+00
   Bfn.  Coefficient  Atom+Function         Bfn.  Coefficient  Atom+Function  
  ----- ------------  ---------------      ----- ------------  ---------------
    53      0.383901   3 C  pz               56      0.317660   3 C  pz        
   172     -0.245748  10 O  pz                7     -0.236418   1 O  pz        
    30      0.221634   2 C  pz               99     -0.209934   5 O  pz        
    10     -0.187355   1 O  pz              175     -0.187976  10 O  pz        
   102     -0.168190   5 O  pz        
 
 Vector   27  Occ=0.000000D+00  E= 2.535970D-02  Symmetry=a'
              MO Center= -3.5D+00, -3.5D-01,  7.9D-15, r^2= 1.3D+01
   Bfn.  Coefficient  Atom+Function         Bfn.  Coefficient  Atom+Function  
  ----- ------------  ---------------      ----- ------------  ---------------
   137      4.153604   8 C  s                73      3.734280   4 C  s         
   127     -3.619137   7 H  s                34     -2.275395   2 C  px        
    58      1.950292   3 C  py               50     -1.704323   3 C  s         
    80     -1.233171   4 C  px              191     -1.238953  11 H  s         
    57     -0.938642   3 C  px               27     -0.836071   2 C  s         
 
 Vector   28  Occ=0.000000D+00  E= 4.667502D-02  Symmetry=a'
              MO Center= -2.4D+00, -4.3D-01, -1.3D-15, r^2= 2.5D+01
   Bfn.  Coefficient  Atom+Function         Bfn.  Coefficient  Atom+Function  
  ----- ------------  ---------------      ----- ------------  ---------------
    58     11.193784   3 C  py              137     11.226138   8 C  s         
    27     -9.533831   2 C  s               191      7.994800  11 H  s         
   127     -6.026041   7 H  s                34     -4.568828   2 C  px        
   144      4.172103   8 C  px              145      3.925781   8 C  py        
   118     -1.382983   6 H  s               159     -1.384327   9 H  s         
 
 Vector   29  Occ=0.000000D+00  E= 4.745920D-02  Symmetry=a"
              MO Center= -4.3D-01,  4.1D-01, -8.3D-18, r^2= 5.4D+00
   Bfn.  Coefficient  Atom+Function         Bfn.  Coefficient  Atom+Function  
  ----- ------------  ---------------      ----- ------------  ---------------
    36      1.112773   2 C  pz               59     -0.895813   3 C  pz        
    33      0.373151   2 C  pz               13     -0.369822   1 O  pz        
    30      0.323048   2 C  pz              146      0.313637   8 C  pz        
    79     -0.267058   4 C  pz               76     -0.261132   4 C  pz        
   105      0.223677   5 O  pz               99      0.216589   5 O  pz        
 
 Vector   30  Occ=0.000000D+00  E= 4.862966D-02  Symmetry=a'
              MO Center=  2.0D+00, -1.1D+00,  5.6D-17, r^2= 2.1D+01
   Bfn.  Coefficient  Atom+Function         Bfn.  Coefficient  Atom+Function  
  ----- ------------  ---------------      ----- ------------  ---------------
    27      7.100330   2 C  s               137      5.713245   8 C  s         
   159     -5.222037   9 H  s                57      5.181390   3 C  px        
    73     -4.825440   4 C  s               127      3.626395   7 H  s         
    80      3.465658   4 C  px               50     -3.381360   3 C  s         
    34      2.626236   2 C  px               81     -1.408527   4 C  py        
 
 Vector   31  Occ=0.000000D+00  E= 6.414849D-02  Symmetry=a'
              MO Center=  3.7D-01,  2.1D+00, -4.9D-16, r^2= 2.6D+01
   Bfn.  Coefficient  Atom+Function         Bfn.  Coefficient  Atom+Function  
  ----- ------------  ---------------      ----- ------------  ---------------
   137     11.781480   8 C  s                58     11.060067   3 C  py        
    27     -9.231372   2 C  s                73     -8.226875   4 C  s         
   127     -5.057401   7 H  s               191      5.033445  11 H  s         
    50      4.873751   3 C  s               118      4.816488   6 H  s         
    34     -4.469588   2 C  px              159     -4.240085   9 H  s         
 
 Vector   32  Occ=0.000000D+00  E= 7.275186D-02  Symmetry=a"
              MO Center= -1.1D+00, -9.2D-01, -9.1D-15, r^2= 1.2D+01
   Bfn.  Coefficient  Atom+Function         Bfn.  Coefficient  Atom+Function  
  ----- ------------  ---------------      ----- ------------  ---------------
    59      2.716963   3 C  pz              146     -1.827482   8 C  pz        
    36     -1.565551   2 C  pz               82     -1.302914   4 C  pz        
   178      0.537017  10 O  pz               13      0.291702   1 O  pz        
   105      0.272369   5 O  pz              143     -0.238597   8 C  pz        
    30      0.186334   2 C  pz               33      0.177375   2 C  pz        
 
 Vector   33  Occ=0.000000D+00  E= 8.647868D-02  Symmetry=a"
              MO Center=  3.4D-01, -6.5D-01, -1.0D-15, r^2= 8.8D+00
   Bfn.  Coefficient  Atom+Function         Bfn.  Coefficient  Atom+Function  
  ----- ------------  ---------------      ----- ------------  ---------------
    59      1.815338   3 C  pz               82     -1.742665   4 C  pz        
    36     -1.234342   2 C  pz              105      0.565393   5 O  pz        
    13      0.316247   1 O  pz              140      0.304919   8 C  pz        
   143      0.290381   8 C  pz              178     -0.260734  10 O  pz        
   172     -0.212222  10 O  pz              175     -0.203793  10 O  pz        
 
 Vector   34  Occ=0.000000D+00  E= 9.510842D-02  Symmetry=a'
              MO Center=  5.8D-01, -4.1D-01, -5.3D-16, r^2= 2.4D+01
   Bfn.  Coefficient  Atom+Function         Bfn.  Coefficient  Atom+Function  
  ----- ------------  ---------------      ----- ------------  ---------------
    73     32.780371   4 C  s                57    -21.384930   3 C  px        
    27    -16.515833   2 C  s               137    -11.411362   8 C  s         
    80     -7.668385   4 C  px               35      5.437522   2 C  py        
   145     -3.816202   8 C  py               58     -3.651883   3 C  py        
    50     -3.485075   3 C  s               159      3.248087   9 H  s         
 
 Vector   35  Occ=0.000000D+00  E= 1.005566D-01  Symmetry=a'
              MO Center= -5.5D-01, -2.9D-01, -2.2D-16, r^2= 1.9D+01
   Bfn.  Coefficient  Atom+Function         Bfn.  Coefficient  Atom+Function  
  ----- ------------  ---------------      ----- ------------  ---------------
    50     28.996464   3 C  s                27    -16.321711   2 C  s         
   137    -10.762933   8 C  s                34     -5.113865   2 C  px        
    57     -4.164591   3 C  px              145     -3.899647   8 C  py        
    35      3.424601   2 C  py                4      2.548099   1 O  s         
    73     -2.402929   4 C  s               127     -2.331509   7 H  s         
 
 Vector   36  Occ=0.000000D+00  E= 1.280228D-01  Symmetry=a'
              MO Center= -1.3D+00, -5.3D-01, -1.1D-16, r^2= 2.5D+01
   Bfn.  Coefficient  Atom+Function         Bfn.  Coefficient  Atom+Function  
  ----- ------------  ---------------      ----- ------------  ---------------
    27     34.103656   2 C  s               137    -28.217310   8 C  s         
    58    -26.594087   3 C  py               34     11.282507   2 C  px        
   127     10.987238   7 H  s               145     -7.828616   8 C  py        
   191     -7.590172  11 H  s                57      7.240027   3 C  px        
    81      5.667741   4 C  py               73     -5.266616   4 C  s         
 
 Vector   37  Occ=0.000000D+00  E= 1.304879D-01  Symmetry=a"
              MO Center= -1.1D+00, -4.7D-01,  2.1D-16, r^2= 1.5D+01
   Bfn.  Coefficient  Atom+Function         Bfn.  Coefficient  Atom+Function  
  ----- ------------  ---------------      ----- ------------  ---------------
    36      1.934085   2 C  pz              146     -1.873129   8 C  pz        
   178      0.470413  10 O  pz               13     -0.424748   1 O  pz        
    82     -0.376901   4 C  pz               33     -0.324772   2 C  pz        
   143      0.204598   8 C  pz              133     -0.191453   7 H  pz        
    30     -0.175641   2 C  pz               59      0.171095   3 C  pz        
 
 Vector   38  Occ=0.000000D+00  E= 1.346016D-01  Symmetry=a'
              MO Center= -8.7D-01,  3.9D-01,  2.8D-16, r^2= 2.2D+01
   Bfn.  Coefficient  Atom+Function         Bfn.  Coefficient  Atom+Function  
  ----- ------------  ---------------      ----- ------------  ---------------
    73     12.574377   4 C  s               137    -11.077908   8 C  s         
    58     -6.256685   3 C  py               80     -6.195825   4 C  px        
    57     -6.113543   3 C  px                4      5.308124   1 O  s         
   191     -5.132648  11 H  s               159      4.142477   9 H  s         
    50     -3.922101   3 C  s               118      3.854313   6 H  s         
 
 Vector   39  Occ=0.000000D+00  E= 1.406145D-01  Symmetry=a"
              MO Center=  7.5D-01, -2.5D-01,  3.1D-15, r^2= 1.2D+01
   Bfn.  Coefficient  Atom+Function         Bfn.  Coefficient  Atom+Function  
  ----- ------------  ---------------      ----- ------------  ---------------
    82      1.773358   4 C  pz              146     -0.816259   8 C  pz        
    36     -0.601537   2 C  pz               79     -0.329295   4 C  pz        
   143      0.300701   8 C  pz               76     -0.261949   4 C  pz        
   165     -0.249786   9 H  pz              105     -0.241058   5 O  pz        
   140      0.179129   8 C  pz               13      0.161887   1 O  pz        
 
 Vector   40  Occ=0.000000D+00  E= 1.432796D-01  Symmetry=a'
              MO Center= -1.3D+00,  1.0D-01, -3.7D-16, r^2= 2.1D+01
   Bfn.  Coefficient  Atom+Function         Bfn.  Coefficient  Atom+Function  
  ----- ------------  ---------------      ----- ------------  ---------------
    73      6.625365   4 C  s               137      6.252060   8 C  s         
    34     -5.559947   2 C  px              127     -4.597722   7 H  s         
    96     -3.848048   5 O  s                81      2.823467   4 C  py        
    58      2.793116   3 C  py              126     -2.631138   7 H  s         
   169     -2.072793  10 O  s               145     -1.603383   8 C  py        
 
 Vector   41  Occ=0.000000D+00  E= 1.543527D-01  Symmetry=a'
              MO Center= -1.9D+00, -1.6D+00,  5.6D-16, r^2= 1.9D+01
   Bfn.  Coefficient  Atom+Function         Bfn.  Coefficient  Atom+Function  
  ----- ------------  ---------------      ----- ------------  ---------------
    27     34.128608   2 C  s                58    -31.078527   3 C  py        
   137    -28.226282   8 C  s                34     11.065432   2 C  px        
   144    -11.116879   8 C  px              191    -10.502571  11 H  s         
   127      7.511236   7 H  s               145     -5.366904   8 C  py        
     4     -5.118754   1 O  s                57      4.719194   3 C  px        
 
 Vector   42  Occ=0.000000D+00  E= 1.633667D-01  Symmetry=a'
              MO Center=  9.7D-01, -7.4D-01,  2.8D-15, r^2= 1.8D+01
   Bfn.  Coefficient  Atom+Function         Bfn.  Coefficient  Atom+Function  
  ----- ------------  ---------------      ----- ------------  ---------------
    73     32.108622   4 C  s               137    -26.764098   8 C  s         
    57    -25.972282   3 C  px               27    -16.163024   2 C  s         
    58    -12.308012   3 C  py               50      6.127753   3 C  s         
    35      6.081131   2 C  py               80     -5.836797   4 C  px        
   159      5.813715   9 H  s                96     -5.018515   5 O  s         
 
 Vector   43  Occ=0.000000D+00  E= 1.724635D-01  Symmetry=a'
              MO Center=  1.5D+00, -6.1D-01, -4.5D-16, r^2= 1.8D+01
   Bfn.  Coefficient  Atom+Function         Bfn.  Coefficient  Atom+Function  
  ----- ------------  ---------------      ----- ------------  ---------------
    27     14.966542   2 C  s                57     11.866727   3 C  px        
    58    -10.485163   3 C  py               73     -9.518556   4 C  s         
   137     -8.230456   8 C  s               159      6.515366   9 H  s         
    81      5.977574   4 C  py               80     -5.928213   4 C  px        
   144     -4.342029   8 C  px               50     -3.312356   3 C  s         
 
 Vector   44  Occ=0.000000D+00  E= 1.760379D-01  Symmetry=a'
              MO Center= -7.9D-01, -7.7D-01, -4.1D-16, r^2= 1.8D+01
   Bfn.  Coefficient  Atom+Function         Bfn.  Coefficient  Atom+Function  
  ----- ------------  ---------------      ----- ------------  ---------------
    58     18.521634   3 C  py              137     15.929374   8 C  s         
    27    -13.872379   2 C  s               191     -4.717935  11 H  s         
    81     -4.427714   4 C  py               35     -4.193908   2 C  py        
   145     -3.532993   8 C  py              127      3.208449   7 H  s         
   126      2.699642   7 H  s                55     -2.485219   3 C  py        
 
 Vector   45  Occ=0.000000D+00  E= 1.878412D-01  Symmetry=a"
              MO Center= -1.5D-01, -2.3D-01,  5.7D-17, r^2= 1.4D+01
   Bfn.  Coefficient  Atom+Function         Bfn.  Coefficient  Atom+Function  
  ----- ------------  ---------------      ----- ------------  ---------------
    59      7.604596   3 C  pz               82     -2.863383   4 C  pz        
    36     -2.817467   2 C  pz              146     -2.445759   8 C  pz        
    79     -0.227971   4 C  pz              105      0.210866   5 O  pz        
   143     -0.180550   8 C  pz        
 
 Vector   46  Occ=0.000000D+00  E= 2.209669D-01  Symmetry=a'
              MO Center=  2.3D-01,  2.4D+00,  4.6D-16, r^2= 1.2D+01
   Bfn.  Coefficient  Atom+Function         Bfn.  Coefficient  Atom+Function  
  ----- ------------  ---------------      ----- ------------  ---------------
    50     21.494102   3 C  s                73    -19.434081   4 C  s         
    27    -15.985333   2 C  s                58     12.614374   3 C  py        
   137     10.343994   8 C  s                34     -5.218639   2 C  px        
    57      4.509884   3 C  px               80      4.143218   4 C  px        
   118      4.091687   6 H  s                96      3.342601   5 O  s         
 
 Vector   47  Occ=0.000000D+00  E= 2.268277D-01  Symmetry=a"
              MO Center= -1.4D-01,  6.8D-01,  2.8D-16, r^2= 1.0D+01
   Bfn.  Coefficient  Atom+Function         Bfn.  Coefficient  Atom+Function  
  ----- ------------  ---------------      ----- ------------  ---------------
    13      1.358337   1 O  pz               82     -0.975005   4 C  pz        
   105      0.910241   5 O  pz               36     -0.890571   2 C  pz        
   146      0.687546   8 C  pz               79     -0.522990   4 C  pz        
   133     -0.397113   7 H  pz               59      0.341803   3 C  pz        
   197     -0.343347  11 H  pz               43     -0.298140   2 C  d -1      
 
 Vector   48  Occ=0.000000D+00  E= 2.441858D-01  Symmetry=a'
              MO Center= -2.3D-01,  1.9D-02, -8.0D-17, r^2= 1.9D+01
   Bfn.  Coefficient  Atom+Function         Bfn.  Coefficient  Atom+Function  
  ----- ------------  ---------------      ----- ------------  ---------------
    27     34.613257   2 C  s               137    -30.599664   8 C  s         
    73    -24.331579   4 C  s                50     17.508893   3 C  s         
    58    -15.818585   3 C  py               57     13.403583   3 C  px        
   145     -7.143353   8 C  py               35     -6.699279   2 C  py        
    96      5.092870   5 O  s               144     -4.829925   8 C  px        
 
 Vector   49  Occ=0.000000D+00  E= 2.520188D-01  Symmetry=a'
              MO Center=  1.3D-01, -1.5D-01,  3.8D-17, r^2= 1.4D+01
   Bfn.  Coefficient  Atom+Function         Bfn.  Coefficient  Atom+Function  
  ----- ------------  ---------------      ----- ------------  ---------------
    73     38.830167   4 C  s               137    -30.331549   8 C  s         
    57    -21.669096   3 C  px               27    -19.124173   2 C  s         
    50     11.029969   3 C  s                58    -10.605942   3 C  py        
    80     -7.501942   4 C  px              145     -6.491656   8 C  py        
   158     -4.915739   9 H  s                35      4.382109   2 C  py        
 
 Vector   50  Occ=0.000000D+00  E= 2.628448D-01  Symmetry=a'
              MO Center=  5.3D-01,  6.4D-01, -3.6D-17, r^2= 1.8D+01
   Bfn.  Coefficient  Atom+Function         Bfn.  Coefficient  Atom+Function  
  ----- ------------  ---------------      ----- ------------  ---------------
    73     36.107434   4 C  s               137    -29.923407   8 C  s         
    57    -18.791481   3 C  px               27    -16.934474   2 C  s         
    58    -11.283750   3 C  py               50      9.621155   3 C  s         
    80     -8.267677   4 C  px              145     -6.136294   8 C  py        
    35      5.165988   2 C  py              169      4.767554  10 O  s         
 
 Vector   51  Occ=0.000000D+00  E= 2.671706D-01  Symmetry=a"
              MO Center= -3.5D-01,  2.4D-01,  2.5D-16, r^2= 1.3D+01
   Bfn.  Coefficient  Atom+Function         Bfn.  Coefficient  Atom+Function  
  ----- ------------  ---------------      ----- ------------  ---------------
    13      1.745439   1 O  pz               59      1.680443   3 C  pz        
    36     -1.605760   2 C  pz              146     -1.139135   8 C  pz        
   178      1.099662  10 O  pz              105     -0.833969   5 O  pz        
    68     -0.538959   3 C  d  1             43     -0.366623   2 C  d -1      
    56     -0.342262   3 C  pz              155      0.330228   8 C  d  1      
 
 Vector   52  Occ=0.000000D+00  E= 2.685672D-01  Symmetry=a'
              MO Center= -1.8D-01, -9.3D-01,  2.6D-16, r^2= 1.5D+01
   Bfn.  Coefficient  Atom+Function         Bfn.  Coefficient  Atom+Function  
  ----- ------------  ---------------      ----- ------------  ---------------
    50     45.324878   3 C  s                27    -35.406086   2 C  s         
    73    -25.936034   4 C  s                58     20.912526   3 C  py        
   137     19.421212   8 C  s                34    -11.615628   2 C  px        
    80      6.125703   4 C  px               57      6.026269   3 C  px        
   127     -5.372564   7 H  s                 4      4.712736   1 O  s         
 
 Vector   53  Occ=0.000000D+00  E= 2.747092D-01  Symmetry=a"
              MO Center=  4.0D-01,  1.1D-01, -6.1D-16, r^2= 1.1D+01
   Bfn.  Coefficient  Atom+Function         Bfn.  Coefficient  Atom+Function  
  ----- ------------  ---------------      ----- ------------  ---------------
    36      2.087752   2 C  pz               59     -1.920523   3 C  pz        
    82      1.612948   4 C  pz              105     -1.494926   5 O  pz        
    13     -1.199099   1 O  pz              178      1.067469  10 O  pz        
   146     -0.614991   8 C  pz              197     -0.483826  11 H  pz        
    56      0.440648   3 C  pz              124      0.367102   6 H  pz        
 
 Vector   54  Occ=0.000000D+00  E= 2.887345D-01  Symmetry=a'
              MO Center= -2.5D-01, -1.8D-01, -3.6D-17, r^2= 1.5D+01
   Bfn.  Coefficient  Atom+Function         Bfn.  Coefficient  Atom+Function  
  ----- ------------  ---------------      ----- ------------  ---------------
    27     61.122753   2 C  s               137    -40.918552   8 C  s         
    58    -33.424656   3 C  py               57     14.459673   3 C  px        
    34     13.589025   2 C  px               50    -10.784005   3 C  s         
   144     -8.362318   8 C  px              127      7.895050   7 H  s         
     4     -7.542707   1 O  s                73     -7.263119   4 C  s         
 
 Vector   55  Occ=0.000000D+00  E= 3.099374D-01  Symmetry=a'
              MO Center= -9.8D-01, -2.1D-02, -1.7D-16, r^2= 1.3D+01
   Bfn.  Coefficient  Atom+Function         Bfn.  Coefficient  Atom+Function  
  ----- ------------  ---------------      ----- ------------  ---------------
   137     19.972368   8 C  s                58     12.428830   3 C  py        
    73     -9.003089   4 C  s                27     -4.916942   2 C  s         
   144      4.155121   8 C  px              191      4.121609  11 H  s         
    80      3.262228   4 C  px               34     -3.121396   2 C  px        
    35      3.088481   2 C  py              145      2.942329   8 C  py        
 
 Vector   56  Occ=0.000000D+00  E= 3.179895D-01  Symmetry=a"
              MO Center=  6.4D-01, -5.5D-01,  7.4D-15, r^2= 1.5D+01
   Bfn.  Coefficient  Atom+Function         Bfn.  Coefficient  Atom+Function  
  ----- ------------  ---------------      ----- ------------  ---------------
   178     -2.050057  10 O  pz               82      2.024586   4 C  pz        
   146      2.014164   8 C  pz              105     -1.790071   5 O  pz        
    59     -1.590648   3 C  pz               13      1.343981   1 O  pz        
    36     -0.917392   2 C  pz               89      0.305278   4 C  d -1      
   153     -0.275604   8 C  d -1             79      0.270975   4 C  pz        
 
 Vector   57  Occ=0.000000D+00  E= 3.198042D-01  Symmetry=a'
              MO Center=  1.7D-01,  1.0D+00, -5.1D-15, r^2= 1.4D+01
   Bfn.  Coefficient  Atom+Function         Bfn.  Coefficient  Atom+Function  
  ----- ------------  ---------------      ----- ------------  ---------------
    27     21.681003   2 C  s                58    -21.137098   3 C  py        
   137    -14.538449   8 C  s                50     -6.516282   3 C  s         
    96      4.169032   5 O  s                81      3.746850   4 C  py        
   117     -3.622212   6 H  s                 4      3.546724   1 O  s         
   126     -3.368763   7 H  s                57      3.209665   3 C  px        
 
 Vector   58  Occ=0.000000D+00  E= 3.222672D-01  Symmetry=a'
              MO Center= -1.1D+00, -2.4D-02,  1.7D-16, r^2= 1.2D+01
   Bfn.  Coefficient  Atom+Function         Bfn.  Coefficient  Atom+Function  
  ----- ------------  ---------------      ----- ------------  ---------------
   137     22.249569   8 C  s                58     19.431510   3 C  py        
    50    -16.432671   3 C  s                27    -14.812071   2 C  s         
    73     14.030401   4 C  s                34     -8.091684   2 C  px        
   144      7.074244   8 C  px              127     -6.983861   7 H  s         
    57     -5.995673   3 C  px              191      5.905351  11 H  s         
 
 Vector   59  Occ=0.000000D+00  E= 3.459526D-01  Symmetry=a'
              MO Center=  1.1D+00,  4.0D-01, -4.7D-16, r^2= 1.6D+01
   Bfn.  Coefficient  Atom+Function         Bfn.  Coefficient  Atom+Function  
  ----- ------------  ---------------      ----- ------------  ---------------
    27     19.957023   2 C  s                73    -11.952922   4 C  s         
    80      8.322101   4 C  px               57      7.820206   3 C  px        
    34      7.702941   2 C  px               50     -5.985656   3 C  s         
    58     -5.529631   3 C  py                4     -5.051867   1 O  s         
   159     -4.861977   9 H  s               127      4.573159   7 H  s         
 
 Vector   60  Occ=0.000000D+00  E= 3.505291D-01  Symmetry=a'
              MO Center=  7.4D-01, -7.8D-01, -2.6D-15, r^2= 1.5D+01
   Bfn.  Coefficient  Atom+Function         Bfn.  Coefficient  Atom+Function  
  ----- ------------  ---------------      ----- ------------  ---------------
   137     16.502881   8 C  s                27    -14.416585   2 C  s         
    58     11.661013   3 C  py               73    -11.142186   4 C  s         
   145      7.761169   8 C  py               81     -6.470505   4 C  py        
    57      4.931565   3 C  px               50      4.814226   3 C  s         
   191      4.705139  11 H  s                72     -4.312751   4 C  s         
 
 Vector   61  Occ=0.000000D+00  E= 3.686936D-01  Symmetry=a'
              MO Center= -9.1D-01, -1.3D+00,  2.2D-16, r^2= 1.0D+01
   Bfn.  Coefficient  Atom+Function         Bfn.  Coefficient  Atom+Function  
  ----- ------------  ---------------      ----- ------------  ---------------
    27     22.492420   2 C  s                57     17.156962   3 C  px        
    73    -16.248103   4 C  s                50    -15.972575   3 C  s         
   137     15.246912   8 C  s               144     -6.042096   8 C  px        
    35     -4.362482   2 C  py              190     -4.012052  11 H  s         
   191     -3.912452  11 H  s                72      3.196888   4 C  s         
 
 Vector   62  Occ=0.000000D+00  E= 3.879033D-01  Symmetry=a'
              MO Center= -2.5D-01, -4.7D-01,  5.3D-16, r^2= 1.3D+01
   Bfn.  Coefficient  Atom+Function         Bfn.  Coefficient  Atom+Function  
  ----- ------------  ---------------      ----- ------------  ---------------
   137     33.944685   8 C  s                73    -30.176218   4 C  s         
    58     25.778451   3 C  py               57     12.587468   3 C  px        
    27     -7.654394   2 C  s                35     -7.429474   2 C  py        
   169     -7.022911  10 O  s               144      6.034639   8 C  px        
    34     -5.594637   2 C  px               80      5.289617   4 C  px        
 
 Vector   63  Occ=0.000000D+00  E= 3.923466D-01  Symmetry=a'
              MO Center=  5.3D-01, -5.6D-01,  3.2D-15, r^2= 1.4D+01
   Bfn.  Coefficient  Atom+Function         Bfn.  Coefficient  Atom+Function  
  ----- ------------  ---------------      ----- ------------  ---------------
    58      7.366745   3 C  py               57     -6.339119   3 C  px        
    34      6.066313   2 C  px               35     -5.156255   2 C  py        
   158     -5.006055   9 H  s               145     -4.941616   8 C  py        
    81     -4.854621   4 C  py              127      4.739288   7 H  s         
    54      4.442057   3 C  px               80      4.146988   4 C  px        
 
 Vector   64  Occ=0.000000D+00  E= 3.995344D-01  Symmetry=a"
              MO Center= -1.5D+00,  2.4D-02, -5.1D-16, r^2= 6.5D+00
   Bfn.  Coefficient  Atom+Function         Bfn.  Coefficient  Atom+Function  
  ----- ------------  ---------------      ----- ------------  ---------------
    36      1.824253   2 C  pz              133     -1.570472   7 H  pz        
    59     -1.425353   3 C  pz               33      1.124568   2 C  pz        
    13     -0.852755   1 O  pz               82      0.631564   4 C  pz        
   178      0.483453  10 O  pz              105     -0.371115   5 O  pz        
   165     -0.314940   9 H  pz              146     -0.304911   8 C  pz        
 
 Vector   65  Occ=0.000000D+00  E= 4.036053D-01  Symmetry=a'
              MO Center= -9.7D-01,  3.7D-01,  3.5D-16, r^2= 1.2D+01
   Bfn.  Coefficient  Atom+Function         Bfn.  Coefficient  Atom+Function  
  ----- ------------  ---------------      ----- ------------  ---------------
    27     26.999171   2 C  s                58    -16.829573   3 C  py        
   137    -11.663979   8 C  s                 4    -10.852327   1 O  s         
    34      7.885380   2 C  px               69     -5.937718   3 C  d  2      
    72      5.534077   4 C  s               136     -4.050276   8 C  s         
   144     -4.026835   8 C  px               57      3.827243   3 C  px        
 
 Vector   66  Occ=0.000000D+00  E= 4.106676D-01  Symmetry=a"
              MO Center= -8.5D-01, -1.0D+00, -1.1D-15, r^2= 8.5D+00
   Bfn.  Coefficient  Atom+Function         Bfn.  Coefficient  Atom+Function  
  ----- ------------  ---------------      ----- ------------  ---------------
   197      1.723758  11 H  pz              146     -1.271611   8 C  pz        
   143     -1.234806   8 C  pz               82      1.125465   4 C  pz        
   133      0.896852   7 H  pz              105     -0.861708   5 O  pz        
    79      0.823431   4 C  pz               33     -0.690735   2 C  pz        
   165     -0.581743   9 H  pz               68      0.557826   3 C  d  1      
 
 Vector   67  Occ=0.000000D+00  E= 4.399392D-01  Symmetry=a"
              MO Center=  6.6D-01, -7.0D-01,  1.3D-17, r^2= 8.5D+00
   Bfn.  Coefficient  Atom+Function         Bfn.  Coefficient  Atom+Function  
  ----- ------------  ---------------      ----- ------------  ---------------
   165      1.767429   9 H  pz              197      1.102921  11 H  pz        
    79     -0.961832   4 C  pz              133     -0.776643   7 H  pz        
   143     -0.727046   8 C  pz               82     -0.722508   4 C  pz        
    33      0.567263   2 C  pz               89      0.564953   4 C  d -1      
    43     -0.493473   2 C  d -1             59      0.482964   3 C  pz        
 
 Vector   68  Occ=0.000000D+00  E= 4.478240D-01  Symmetry=a'
              MO Center=  1.4D-01, -5.7D-01,  7.6D-16, r^2= 1.1D+01
   Bfn.  Coefficient  Atom+Function         Bfn.  Coefficient  Atom+Function  
  ----- ------------  ---------------      ----- ------------  ---------------
    27     25.122905   2 C  s               137    -20.121531   8 C  s         
    73    -17.415573   4 C  s                58    -14.983678   3 C  py        
    96      8.483241   5 O  s                26     -8.043608   2 C  s         
    57      7.969044   3 C  px              169      6.345734  10 O  s         
     4     -4.965679   1 O  s                34      4.657578   2 C  px        
 
 Vector   69  Occ=0.000000D+00  E= 4.556741D-01  Symmetry=a'
              MO Center=  1.6D-01,  4.1D-01, -1.8D-15, r^2= 1.1D+01
   Bfn.  Coefficient  Atom+Function         Bfn.  Coefficient  Atom+Function  
  ----- ------------  ---------------      ----- ------------  ---------------
    73     21.235621   4 C  s               137    -12.896900   8 C  s         
    27    -12.590594   2 C  s                57    -10.180332   3 C  px        
    96     -7.254255   5 O  s                26      6.453466   2 C  s         
    80     -5.753516   4 C  px               72     -5.433959   4 C  s         
    31      5.150753   2 C  px               54      4.743509   3 C  px        
 
 Vector   70  Occ=0.000000D+00  E= 4.635134D-01  Symmetry=a'
              MO Center= -8.2D-01,  8.6D-01, -5.4D-16, r^2= 1.0D+01
   Bfn.  Coefficient  Atom+Function         Bfn.  Coefficient  Atom+Function  
  ----- ------------  ---------------      ----- ------------  ---------------
    27     35.572417   2 C  s                 4    -15.777625   1 O  s         
   137    -15.149105   8 C  s                58    -12.112908   3 C  py        
    73    -11.221337   4 C  s                26     -8.805820   2 C  s         
    57      8.538485   3 C  px               32      6.584745   2 C  py        
    50     -6.451988   3 C  s                34      6.228015   2 C  px        
 
 Vector   71  Occ=0.000000D+00  E= 4.796639D-01  Symmetry=a"
              MO Center= -2.3D-01,  9.1D-01,  1.9D-16, r^2= 7.4D+00
   Bfn.  Coefficient  Atom+Function         Bfn.  Coefficient  Atom+Function  
  ----- ------------  ---------------      ----- ------------  ---------------
    59      1.562380   3 C  pz              124     -1.377329   6 H  pz        
   197      1.084080  11 H  pz               56      0.956722   3 C  pz        
    13      0.865852   1 O  pz              133     -0.852006   7 H  pz        
   146     -0.831816   8 C  pz               36     -0.715201   2 C  pz        
    45      0.710842   2 C  d  1             82     -0.697650   4 C  pz        
 
 Vector   72  Occ=0.000000D+00  E= 5.014163D-01  Symmetry=a'
              MO Center= -2.4D-02, -3.9D-01, -7.3D-17, r^2= 8.0D+00
   Bfn.  Coefficient  Atom+Function         Bfn.  Coefficient  Atom+Function  
  ----- ------------  ---------------      ----- ------------  ---------------
    50     13.666459   3 C  s                73     -8.515462   4 C  s         
    27     -6.728377   2 C  s               136      6.470464   8 C  s         
    58      5.551203   3 C  py               55      4.666769   3 C  py        
    26     -4.407508   2 C  s               137      4.426695   8 C  s         
    80      4.227730   4 C  px              142      4.172555   8 C  py        
 

 center of mass
 --------------
 x =   0.03486468 y =  -0.00095663 z =   0.00000000

 moments of inertia (a.u.)
 ------------------
         886.016899167967           0.000000000000           0.000000000000
           0.000000000000         368.805522924749           0.000000000000
           0.000000000000           0.000000000000        1254.822422092716
 
  Mulliken analysis of the total density
  --------------------------------------

    Atom       Charge   Shell Charges
 -----------   ------   -------------------------------------------------------
    1 O    8     8.74   2.00  0.82  1.02  0.19  2.83  1.78  0.06  0.02  0.02
    2 C    6     5.07   2.01  0.68  0.85 -0.30  1.87 -0.03  0.09  0.15 -0.25
    3 C    6     5.86   2.01  0.64  0.31 -0.08  2.12 -0.13  0.60  0.08  0.32
    4 C    6     5.30   2.01  0.69  0.91 -0.33  1.87  0.06  0.05  0.17 -0.13
    5 O    8     8.88   2.00  0.83  1.06  0.20  2.77  1.87  0.10  0.02  0.03
    6 H    1     0.75   0.64  0.03 -0.01  0.09 -0.00
    7 H    1     1.33   0.77  0.54  0.01  0.03 -0.02
    8 C    6     4.52   2.01  0.69  0.40 -0.50  1.89 -0.09  0.05  0.17 -0.10
    9 H    1     1.27   0.76  0.49 -0.00  0.03 -0.01
   10 O    8     8.83   2.00  0.84  1.06  0.19  2.75  1.82  0.12  0.02  0.03
   11 H    1     1.46   0.84  0.63 -0.01  0.03 -0.02
 
       Multipole analysis of the density wrt the origin
       ------------------------------------------------
 
     L   x y z        total         open         nuclear
     -   - - -        -----         ----         -------
     0   0 0 0     -0.000000      0.000000     52.000000
 
     1   1 0 0     -1.302232      0.000000     -0.000000
     1   0 1 0      0.189695      0.000000      0.000000
     1   0 0 1     -0.000000      0.000000      0.000000
 
     2   2 0 0    -27.495064      0.000000    204.393046
     2   1 1 0      0.965167      0.000000      1.261509
     2   1 0 1      0.000000      0.000000      0.000000
     2   0 2 0    -40.085335      0.000000    458.745046
     2   0 1 1      0.000000      0.000000      0.000000
     2   0 0 2    -29.901552      0.000000      0.000000
 
                   NWChem MP2 Semi-direct Energy/Gradient Module
                   ---------------------------------------------
 
 
                                  H,CHO,H Chelate
 
 

int_init: setting std/high accuracies to  1.0D-16  1.0D-32
  Basis functions       =    197
  Molecular orbitals    =    197
  Frozen core           =      7
  Frozen virtuals       =      0
  Active alpha occupied =     19
  Active beta occupied  =     19
  Active alpha virtual  =    171
  Active beta virtual   =    171
  Use MO symmetry       = T
  Use skeleton AO sym   = T

  AO/Fock/Back tols     =   1.0D-15  1.0D-15  1.0D-15

 GA uses MA = F    GA memory limited = T

 Available: 
  local mem=  3.77D+08
 global mem=  1.23D+08
 local disk=  0.00D+00

int_init: setting std/high accuracies to  1.0D-16  1.0D-32
  mp2_memr nvloc                     16
  nvloc new                     16
   1 passes of  19:        5242880                     332454                  25522067.
   1 passes of  19: M    376556197           G      122954509           F     371313317.
 
 Semi-direct pass number   1 of   1  for RHF alpha+beta  at       80.8s

int_init: setting std/high accuracies to  1.0D-16  1.0D-32
  vrange nnbf                  19378
  mp2_eaftype                     76  avail_ma_in_mb                   3282
 EAF : mp2_eaftype filesize          76   10047709.
  mp2_eaf for mointskh                      76
Node 0 wrote     47.1 Mb in      0.2 s     Agg I/O rate:  3354.3 Mb/s
 Done moints_semi at       89.7s
  mp2_eaftype                     76  avail_ma_in_mb                   3207
 EAF : mp2_eaftype filesize          76   10047709.
  mp2_eaf for kh                     76
  mp2_eaftype                     15  avail_ma_in_mb                   3206
 EAF : mp2_eaftype filesize          15    1975392.
  mp2_eaf for ta tb                     15
  mp2_eaf for ta                      15
  mp2_eaf for tb                      15
 Done maket at       90.2s
 Done pijab at       90.2s
 Done wijab at       90.3s
 Done lai at       92.1s

int_init: setting std/high accuracies to  1.0D-16  1.0D-32
  mp2_eaftype                     86  avail_ma_in_mb                   3176
 EAF : mp2_eaftype filesize          86   11281776.
  mp2_eaf for 2pdm                      86
 Done nonsep at      117.6s
 Done multipass loop at      117.6s


          -------------------------------------------
          SCF energy                -378.407923045569
          Correlation energy          -1.120256936256
          Singlet pairs               -0.668260120840
          Triplet pairs               -0.451996815416
          Total MP2 energy          -379.528179981824
          -------------------------------------------



          ---------------------------------------------------
                    Spin Component Scaled (SCS) MP2
          Same spin pairs                     -0.301331210277
          Same spin scaling factor             0.333333333333
          Opposite spin pairs                 -0.818925725978
          Opposite spin scaling fact.          1.200000000000
          SCS-MP2 correlation energy          -1.083154607933
          Total SCS-MP2 energy              -379.491077653502
          ---------------------------------------------------


int_init: setting std/high accuracies to  1.0D-16  1.0D-32
                                NWChem CPHF Module
                                ------------------
 
 

int_init: setting std/high accuracies to  1.0D-16  1.0D-32
    scftype = RHF 
    nclosed =   26
      nopen =    0
  variables =     4446
  tolerance =   1.0D-06
  max. iter =  999

 Warning: symmetry breaking in RHF:   3.000250185068545E-014
 SCF residual:   7.454642003919763E-011

            ----- linear solve (tol: 1.0E-06 prod-acc: 3.4E-14) -----

               iter nbas    rnorm     rnorm-scal   ratio     time
               ---- ---- ----------- ----------- --------- -------
                  1    1  9.8082E-02  4.3788E-01    0.0000   125.4
                  2    2  2.7366E-02  1.2217E-01    0.2790   128.3
                  3    3  9.6223E-03  4.2958E-02    0.3516   131.3
                  4    4  3.7459E-03  1.6723E-02    0.3893   134.0
                  5    5  1.4527E-03  6.4853E-03    0.3878   136.8
                  6    6  5.1514E-04  2.2998E-03    0.3546   139.4
                  7    7  2.2493E-04  1.0042E-03    0.4366   142.1
                  8    8  9.0756E-05  4.0517E-04    0.4035   144.6
                  9    9  3.2003E-05  1.4287E-04    0.3526   147.2
                 10   10  1.5225E-05  6.7971E-05    0.4757   149.6
                 11   11  4.4048E-06  1.9665E-05    0.2893   151.9
                 12   12  1.4203E-06  6.3406E-06    0.3224   154.2
                 13   13  4.6426E-07  2.0726E-06    0.3269   156.5
                 14   14  1.3855E-07  6.1855E-07    0.2984   158.8

 CPHF converged to   6.2D-07 in   14 iters


int_init: setting std/high accuracies to  1.0D-16  1.0D-32
                Dipole Moments (a.u.)
                --------------
         Nuclear       SCF       SCF+MP2
       ----------- ----------- -----------
 X      -0.000000   -1.302232   -0.980108
 Y       0.000000    0.189695    0.232858
 Z       0.000000   -0.000000   -0.000000
 

 MP2 RHF      natural orbital occupation numbers


              1      
    1    2.0000
    2    2.0000
    3    2.0000
    4    2.0000
    5    2.0000
    6    2.0000
    7    2.0000
    8    1.9868
    9    1.9858
   10    1.9853
   11    1.9810
   12    1.9763
   13    1.9744
   14    1.9729
   15    1.9681
   16    1.9664
   17    1.9642
   18    1.9640
   19    1.9602
   20    1.9586
   21    1.9564
   22    1.9551
   23    1.9528
   24    1.9468
   25    1.9399
   26    1.9245
   27    0.0625
   28    0.0574
   29    0.0366
   30    0.0350
   31    0.0330
   32    0.0316
   33    0.0291
   34    0.0263
   35    0.0223
   36    0.0207
   37    0.0176
   38    0.0155
   39    0.0150
   40    0.0149
   41    0.0123
   42    0.0121
   43    0.0118
   44    0.0108
   45    0.0102
   46    0.0096
   47    0.0093
   48    0.0086
   49    0.0083
   50    0.0080
   51    0.0076
   52    0.0074
   53    0.0070
   54    0.0069
   55    0.0068
   56    0.0067
   57    0.0063
   58    0.0061
   59    0.0061
   60    0.0058
   61    0.0056
   62    0.0055
   63    0.0054
   64    0.0049
   65    0.0042
   66    0.0041
   67    0.0035
   68    0.0034
   69    0.0032
   70    0.0032
   71    0.0028
   72    0.0024
   73    0.0024
   74    0.0024
   75    0.0023
   76    0.0022
   77    0.0021
   78    0.0020
   79    0.0018
   80    0.0016
   81    0.0014
   82    0.0014
   83    0.0013
   84    0.0012
   85    0.0012
   86    0.0011
   87    0.0011
   88    0.0010
   89    0.0010
   90    0.0009
   91    0.0009
   92    0.0008
   93    0.0007
   94    0.0007
   95    0.0007
   96    0.0006
   97    0.0006
   98    0.0006
   99    0.0006
  100    0.0006
  101    0.0005
  102    0.0005
  103    0.0005
  104    0.0005
  105    0.0005
  106    0.0005
  107    0.0004
  108    0.0004
  109    0.0004
  110    0.0004
  111    0.0004
  112    0.0004
  113    0.0004
  114    0.0003
  115    0.0003
  116    0.0003
  117    0.0003
  118    0.0003
  119    0.0003
  120    0.0003
  121    0.0003
  122    0.0003
  123    0.0002
  124    0.0002
  125    0.0002
  126    0.0002
  127    0.0002
  128    0.0002
  129    0.0002
  130    0.0002
  131    0.0002
  132    0.0002
  133    0.0002
  134    0.0001
  135    0.0001
  136    0.0001
  137    0.0001
  138    0.0001
  139    0.0001
  140    0.0001
  141    0.0001
  142    0.0001
  143    0.0001
  144    0.0001
  145    0.0001
  146    0.0001
  147    0.0001
  148    0.0001
  149    0.0001
  150    0.0001
  151    0.0001
  152    0.0001
  153    0.0000
  154    0.0000
  155    0.0000
  156    0.0000
  157    0.0000
  158    0.0000
  159    0.0000
  160    0.0000
  161    0.0000
  162    0.0000
  163    0.0000
  164    0.0000
  165    0.0000
  166    0.0000
  167    0.0000
  168    0.0000
  169    0.0000
  170    0.0000
  171    0.0000
  172    0.0000
  173    0.0000
  174    0.0000
  175    0.0000
  176    0.0000
  177    0.0000
  178    0.0000
  179    0.0000
  180    0.0000
  181    0.0000
  182    0.0000
  183    0.0000
  184    0.0000
  185   -0.0000
  186   -0.0000
  187   -0.0000
  188   -0.0000
  189   -0.0000
  190   -0.0000
  191   -0.0000
  192   -0.0000
  193   -0.0000
  194   -0.0001
  195   -0.0002
  196   -0.0003
  197   -0.0003
 
  MP2 natural orbitals output to ./8tC_.mp2nos
 

int_init: setting std/high accuracies to  1.0D-16  1.0D-32
  Using symmetry

int_init: setting std/high accuracies to  1.0D-16  1.0D-32


                         mp2 ENERGY GRADIENTS

    atom               coordinates                        gradient
                 x          y          z           x          y          z
   1 O      -1.689508   3.872020   0.000000    0.005564   0.002480   0.000000
   2 C      -2.210959   1.415305   0.000000    0.006459  -0.017948   0.000000
   3 C      -0.437427  -0.452528   0.000000    0.009863   0.016082   0.000000
   4 C       2.202757   0.206553   0.000000   -0.017535  -0.001774   0.000000
   5 O       2.989988   2.431666   0.000000    0.003419  -0.004769   0.000000
   6 H       0.185541   3.983961   0.000000   -0.006421  -0.000753   0.000000
   7 H      -4.223528   1.023498   0.000000    0.007807   0.002365   0.000000
[...]
          15     0.00000     0.00000     0.00000     0.02650     0.00000     0.00148
          16    -0.05753     0.05944    -0.03558     0.00000     0.04230     0.00000
          17     0.17710    -0.12862     0.11942     0.00000    -0.19787     0.00000
          18     0.00000     0.00000     0.00000    -0.53491     0.00000    -0.37976
          19     0.00102    -0.13360     0.06101     0.00000    -0.17907     0.00000
          20     0.11847     0.05965     0.00908     0.00000     0.10427     0.00000
          21     0.00000     0.00000     0.00000     0.51526     0.00000    -0.06422
          22     0.04999     0.00882    -0.17216     0.00000    -0.02349     0.00000
          23    -0.10117    -0.02487    -0.11555     0.00000    -0.01949     0.00000
          24     0.00000     0.00000     0.00000     0.03774     0.00000    -0.15986
          25    -0.03386    -0.13966     0.09792     0.00000     0.30693     0.00000
          26    -0.00392     0.02526     0.09145     0.00000     0.04978     0.00000
          27     0.00000     0.00000     0.00000     0.10337     0.00000    -0.12858
          28     0.01664    -0.00749     0.03184     0.00000     0.00658     0.00000
          29    -0.14694    -0.04006     0.06098     0.00000    -0.01061     0.00000
          30     0.00000     0.00000     0.00000    -0.01083     0.00000     0.03974
          31     0.05275     0.00885    -0.14919     0.00000    -0.01476     0.00000
          32    -0.11406    -0.03478    -0.24335     0.00000    -0.08328     0.00000
          33     0.00000     0.00000     0.00000    -0.18062     0.00000     0.67486

                   19          20          21          22          23          24
 
 P.Frequency     1035.34     1050.07     1251.43     1281.20     1362.50     1395.34
 
           1     0.00000     0.00000    -0.00001    -0.03497     0.00675     0.03959
           2     0.00000     0.00000     0.01657    -0.13934     0.04042     0.02494
           3    -0.01330    -0.02209     0.00000     0.00000     0.00000     0.00000
           4     0.00000     0.00000    -0.01150     0.06118    -0.04227    -0.00401
           5     0.00000     0.00000    -0.04291     0.10307    -0.06266    -0.09291
           6     0.00065    -0.08206     0.00000     0.00000     0.00000     0.00000
           7     0.00000     0.00000    -0.05759    -0.00728     0.09992    -0.04778
           8     0.00000     0.00000    -0.16447     0.07699    -0.01851     0.00312
           9     0.07253     0.01717     0.00000     0.00000     0.00000     0.00000
          10     0.00000     0.00000     0.00587     0.03159     0.02693     0.05073
          11     0.00000     0.00000     0.01374    -0.01681    -0.00660     0.02035
          12    -0.15671     0.05551     0.00000     0.00000     0.00000     0.00000
          13     0.00000     0.00000     0.00935    -0.01148    -0.01764    -0.02144
          14     0.00000     0.00000    -0.00918     0.00757     0.04555     0.00389
          15     0.02859    -0.02309     0.00000     0.00000     0.00000     0.00000
          16     0.00000     0.00000    -0.05793    -0.08327    -0.00134    -0.05961
          17     0.00000     0.00000     0.25863     0.20769     0.00288     0.36311
          18     0.28802     0.61534     0.00000     0.00000     0.00000     0.00000
          19     0.00000     0.00000    -0.13569    -0.02929    -0.12406    -0.01267
          20     0.00000     0.00000     0.51122     0.55271     0.28286    -0.03402
          21    -0.01297     0.61227     0.00000     0.00000     0.00000     0.00000
          22     0.00000     0.00000     0.06341    -0.01894    -0.03497     0.05591
          23     0.00000     0.00000     0.05430    -0.00581    -0.03318     0.04890
          24    -0.04717    -0.04753     0.00000     0.00000     0.00000     0.00000
          25     0.00000     0.00000     0.18687    -0.04741    -0.50916    -0.16139
          26     0.00000     0.00000     0.18175    -0.09625    -0.52314    -0.19010
          27     0.69688    -0.19030     0.00000     0.00000     0.00000     0.00000
          28     0.00000     0.00000    -0.01073     0.00607     0.01884    -0.05611
          29     0.00000     0.00000     0.01843    -0.01810     0.00445     0.01914
          30     0.01178     0.01036     0.00000     0.00000     0.00000     0.00000
          31     0.00000     0.00000     0.02650     0.00823    -0.08229     0.18321
          32     0.00000     0.00000     0.29759    -0.16039     0.24260    -0.65587
          33     0.15473     0.19316     0.00000     0.00000     0.00000     0.00000

                   25          26          27          28          29          30
 
 P.Frequency     1436.56     1450.32     1638.17     1690.86     1717.61     2951.33
 
           1     0.03003     0.04664     0.02835    -0.00863     0.00607    -0.00080
           2     0.01600    -0.02408    -0.02090     0.04415    -0.00614     0.00079
           3     0.00000     0.00000     0.00000     0.00000     0.00000     0.00000
           4    -0.05049     0.00725    -0.07633     0.06594    -0.03930    -0.00018
           5    -0.08420    -0.03090     0.04117    -0.14355     0.03869    -0.00095
           6     0.00000     0.00000     0.00000     0.00000     0.00000     0.00000
           7     0.12410    -0.11719     0.07395    -0.05841     0.05608     0.00057
           8     0.09735     0.06604    -0.01282     0.10114    -0.07093    -0.00194
           9     0.00000     0.00000     0.00000     0.00000     0.00000     0.00000
          10    -0.04929     0.06927    -0.07990    -0.04389    -0.01466    -0.00104
          11     0.07831     0.02370    -0.15227    -0.11669     0.01588    -0.00030
          12     0.00000     0.00000     0.00000     0.00000     0.00000     0.00000
          13    -0.02168    -0.02604     0.03088     0.02305     0.00305     0.00027
          14    -0.09729    -0.01285     0.09207     0.07078    -0.00674     0.00038
          15     0.00000     0.00000     0.00000     0.00000     0.00000     0.00000
          16    -0.03888    -0.08287    -0.01545     0.02373     0.00152     0.00787
          17     0.25654     0.49851     0.48187    -0.16004     0.09807    -0.00048
          18     0.00000     0.00000     0.00000     0.00000     0.00000     0.00000
          19    -0.11556     0.06665    -0.04379    -0.00017    -0.02094     0.00947
          20     0.20701    -0.28940    -0.17016     0.25168    -0.08781     0.00798
          21     0.00000     0.00000     0.00000     0.00000     0.00000     0.00000
          22    -0.04419    -0.03468     0.01783    -0.04090    -0.11342     0.07822
          23    -0.04743    -0.00585    -0.03371     0.05388     0.17998     0.01707
          24     0.00000     0.00000     0.00000     0.00000     0.00000     0.00000
          25     0.17626    -0.03882     0.13266     0.15602    -0.03181     0.00270
          26     0.30608    -0.09238     0.05029     0.08156     0.00975    -0.00278
          27     0.00000     0.00000     0.00000     0.00000     0.00000     0.00000
          28     0.00822     0.04715    -0.01611     0.03365     0.07999     0.00038
          29     0.00216    -0.03847     0.02409    -0.04630    -0.09983    -0.00108
          30     0.00000     0.00000     0.00000     0.00000     0.00000     0.00000
          31    -0.04823    -0.12309     0.00946    -0.02242    -0.03777    -0.94139
          32    -0.03801     0.44896     0.00306    -0.00966    -0.17943    -0.17131
          33     0.00000     0.00000     0.00000     0.00000     0.00000     0.00000

                   31          32          33
 
 P.Frequency     3086.77     3101.13     3209.42
 
           1    -0.05244    -0.02537     0.01050
           2    -0.00390    -0.00165     0.00057
           3     0.00000     0.00000     0.00000
           4     0.01342     0.00816     0.08144
           5    -0.00744    -0.00387     0.01615
           6     0.00000     0.00000     0.00000
           7    -0.00793    -0.00146    -0.00203
           8     0.00352     0.00252     0.00297
           9     0.00000     0.00000     0.00000
          10     0.03454    -0.04852    -0.00114
          11    -0.01828     0.05580    -0.00281
          12     0.00000     0.00000     0.00000
          13    -0.00054     0.00028     0.00013
          14    -0.00631    -0.00415     0.00145
          15     0.00000     0.00000     0.00000
          16     0.83412     0.40721    -0.18454
          17     0.16700     0.07465    -0.04170
          18     0.00000     0.00000     0.00000
          19    -0.16072    -0.09443    -0.91301
          20    -0.02551    -0.01495    -0.19577
          21     0.00000     0.00000     0.00000
          22    -0.00040    -0.00186     0.00127
          23    -0.00143     0.00072     0.00075
          24     0.00000     0.00000     0.00000
          25    -0.29925     0.59153    -0.00737
          26     0.29347    -0.62049     0.01323
          27     0.00000     0.00000     0.00000
          28    -0.00051     0.00056    -0.00001
          29     0.00050    -0.00013    -0.00040
          30     0.00000     0.00000     0.00000
          31     0.00267     0.00517    -0.01072
          32     0.00044    -0.00200    -0.00462
          33     0.00000     0.00000     0.00000



 ----------------------------------------------------------------------------
 Normal Eigenvalue ||    Projected Derivative Dipole Moments (debye/angs)
  Mode   [cm**-1]  ||      [d/dqX]             [d/dqY]           [d/dqZ]
 ------ ---------- || ------------------ ------------------ -----------------
    1       -0.000 ||      -0.028              -0.068             0.000
    2       -0.000 ||      -0.010              -0.025             0.000
    3       -0.000 ||       0.000               0.000             0.155
    4       -0.000 ||       0.000               0.000            -0.143
    5        0.000 ||       0.000               0.000            -0.010
    6        0.000 ||       0.033               0.083             0.000
    7      130.772 ||       0.000               0.000             0.549
    8      209.496 ||       0.482               0.316             0.000
    9      238.302 ||       0.000               0.000             0.141
   10      283.195 ||      -0.245               0.201             0.000
   11      330.352 ||       0.000               0.000             0.405
   12      402.907 ||       0.000               0.000             0.193
   13      498.069 ||      -0.139              -0.003             0.000
   14      517.142 ||      -0.644              -0.049             0.000
   15      733.818 ||      -0.124              -0.951             0.000
   16      931.811 ||       0.000               0.000            -0.603
   17      942.695 ||       0.891              -0.245             0.000
   18      992.024 ||       0.000               0.000            -0.537
   19     1035.337 ||       0.000               0.000             0.441
   20     1050.067 ||       0.000               0.000             1.141
   21     1251.427 ||       0.390               1.557             0.000
   22     1281.200 ||      -0.649               1.912             0.000
   23     1362.500 ||      -0.612              -1.009             0.000
   24     1395.337 ||       0.763              -0.225             0.000
   25     1436.557 ||      -0.495              -0.592             0.000
   26     1450.325 ||       0.953               0.620             0.000
   27     1638.168 ||      -1.808              -0.044             0.000
   28     1690.856 ||       0.205              -2.113             0.000
   29     1717.612 ||      -1.204               2.994             0.000
   30     2951.328 ||       1.383               0.422             0.000
   31     3086.771 ||       2.476               0.378             0.000
   32     3101.128 ||       0.579               0.603             0.000
   33     3209.419 ||      -0.161               0.036             0.000
 ----------------------------------------------------------------------------



  
  
 ----------------------------------------------------------------------------
 Normal Eigenvalue ||           Projected Infra Red Intensities
  Mode   [cm**-1]  || [atomic units] [(debye/angs)**2] [(KM/mol)] [arbitrary]
 ------ ---------- || -------------- ----------------- ---------- -----------
    1       -0.000 ||    0.000235           0.005         0.229       0.041
    2       -0.000 ||    0.000030           0.001         0.030       0.005
    3       -0.000 ||    0.001041           0.024         1.015       0.183
    4       -0.000 ||    0.000890           0.021         0.868       0.157
    5        0.000 ||    0.000005           0.000         0.005       0.001
    6        0.000 ||    0.000344           0.008         0.336       0.061
    7      130.772 ||    0.013051           0.301        12.723       2.299
    8      209.496 ||    0.014384           0.332        14.022       2.534
    9      238.302 ||    0.000859           0.020         0.838       0.151
   10      283.195 ||    0.004347           0.100         4.238       0.766
   11      330.352 ||    0.007120           0.164         6.941       1.254
   12      402.907 ||    0.001621           0.037         1.580       0.285
   13      498.069 ||    0.000842           0.019         0.821       0.148
   14      517.142 ||    0.018051           0.416        17.597       3.180
   15      733.818 ||    0.039850           0.919        38.848       7.020
   16      931.811 ||    0.015785           0.364        15.388       2.781
   17      942.695 ||    0.037024           0.854        36.093       6.522
   18      992.024 ||    0.012503           0.288        12.189       2.202
   19     1035.337 ||    0.008442           0.195         8.230       1.487
   20     1050.067 ||    0.056415           1.302        54.997       9.938
   21     1251.427 ||    0.111739           2.578       108.929      19.683
   22     1281.200 ||    0.176662           4.076       172.219      31.120
   23     1362.500 ||    0.060336           1.392        58.818      10.628
   24     1395.337 ||    0.027460           0.634        26.769       4.837
   25     1436.557 ||    0.025839           0.596        25.189       4.552
   26     1450.325 ||    0.056006           1.292        54.598       9.866
   27     1638.168 ||    0.141837           3.272       138.270      24.985
   28     1690.856 ||    0.195337           4.507       190.424      34.409
   29     1717.612 ||    0.451246          10.411       439.897      79.489
   30     2951.328 ||    0.090624           2.091        88.345      15.964
   31     3086.771 ||    0.271974           6.275       265.134      47.909
   32     3101.128 ||    0.030282           0.699        29.520       5.334
   33     3209.419 ||    0.001172           0.027         1.143       0.207
 ----------------------------------------------------------------------------



 vib:animation  F

 Task  times  cpu:     9539.7s     wall:     9672.3s
 
 
                                NWChem Input Module
                                -------------------
 
 
 Summary of allocated global arrays
-----------------------------------
  No active global arrays



                         GA Statistics for process    0
                         ------------------------------

       create   destroy   get      put      acc     scatter   gather  read&inc
calls: 8.10e+04 8.10e+04 1.24e+07 1.83e+06 5.37e+06    0        0     1.09e+05 
number of processes/call 2.40e+01 7.37e+01 3.06e+01 0.00e+00 0.00e+00
bytes total:             1.34e+10 2.20e+10 3.85e+09 0.00e+00 0.00e+00 8.70e+05
bytes remote:            7.05e+09 1.50e+10 2.79e+09 0.00e+00 0.00e+00 0.00e+00
Max memory consumed for GA by this process: 186246328 bytes
 
MA_summarize_allocated_blocks: starting scan ...
MA_summarize_allocated_blocks: scan completed: 0 heap blocks, 0 stack blocks
MA usage statistics:

	allocation statistics:
					      heap	     stack
					      ----	     -----
	current number of blocks	         0	         0
	maximum number of blocks	        25	        39
	current total bytes		         0	         0
	maximum total bytes		 122108992	  27155144
	maximum total K-bytes		    122109	     27156
	maximum total M-bytes		       123	        28
 
 
                                     CITATION
                                     --------
                Please cite the following reference when publishing
                           results obtained with NWChem:
 
          E. Apr, E. J. Bylaska, W. A. de Jong, N. Govind, K. Kowalski,
       T. P. Straatsma, M. Valiev, H. J. J. van Dam, Y. Alexeev, J. Anchell,
       V. Anisimov, F. W. Aquino, R. Atta-Fynn, J. Autschbach, N. P. Bauman,
     J. C. Becca, D. E. Bernholdt, K. Bhaskaran-Nair, S. Bogatko, P. Borowski,
        J. Boschen, J. Brabec, A. Bruner, E. Caut, Y. Chen, G. N. Chuev,
      C. J. Cramer, J. Daily, M. J. O. Deegan, T. H. Dunning Jr., M. Dupuis,
   K. G. Dyall, G. I. Fann, S. A. Fischer, A. Fonari, H. Frchtl, L. Gagliardi,
      J. Garza, N. Gawande, S. Ghosh, K. Glaesemann, A. W. Gtz, J. Hammond,
       V. Helms, E. D. Hermes, K. Hirao, S. Hirata, M. Jacquelin, L. Jensen,
   B. G. Johnson, H. Jnsson, R. A. Kendall, M. Klemm, R. Kobayashi, V. Konkov,
      S. Krishnamoorthy, M. Krishnan, Z. Lin, R. D. Lins, R. J. Littlefield,
      A. J. Logsdail, K. Lopata, W. Ma, A. V. Marenich, J. Martin del Campo,
   D. Mejia-Rodriguez, J. E. Moore, J. M. Mullin, T. Nakajima, D. R. Nascimento,
    J. A. Nichols, P. J. Nichols, J. Nieplocha, A. Otero-de-la-Roza, B. Palmer,
    A. Panyala, T. Pirojsirikul, B. Peng, R. Peverati, J. Pittner, L. Pollack,
   R. M. Richard, P. Sadayappan, G. C. Schatz, W. A. Shelton, D. W. Silverstein,
   D. M. A. Smith, T. A. Soares, D. Song, M. Swart, H. L. Taylor, G. S. Thomas,
            V. Tipparaju, D. G. Truhlar, K. Tsemekhman, T. Van Voorhis,
     . Vzquez-Mayagoitia, P. Verma, O. Villa, A. Vishnu, K. D. Vogiatzis,
        D. Wang, J. H. Weare, M. J. Williamson, T. L. Windus, K. Woliski,
        A. T. Wong, Q. Wu, C. Yang, Q. Yu, M. Zacharias, Z. Zhang, Y. Zhao,
                                and R. J. Harrison
                        "NWChem: Past, present, and future
                         J. Chem. Phys. 152, 184102 (2020)
                               doi:10.1063/5.0004997
 
                                      AUTHORS
                                      -------
     E. Apra, E. J. Bylaska, N. Govind, K. Kowalski, M. Valiev, W. A. de Jong,
      T. P. Straatsma, H. J. J. van Dam, D. Wang, T. L. Windus, N. P. Bauman,
       A. Panyala, J. Hammond, J. Autschbach, K. Bhaskaran-Nair, J. Brabec,
    K. Lopata, S. A. Fischer, S. Krishnamoorthy, M. Jacquelin, W. Ma, M. Klemm,
       O. Villa, Y. Chen, V. Anisimov, F. Aquino, S. Hirata, M. T. Hackler,
           Eric Hermes, L. Jensen, J. E. Moore, J. C. Becca, V. Konjkov,
            D. Mejia-Rodriguez, T. Risthaus, M. Malagoli, A. Marenich,
   A. Otero-de-la-Roza, J. Mullin, P. Nichols, R. Peverati, J. Pittner, Y. Zhao,
        P.-D. Fan, A. Fonari, M. J. Williamson, R. J. Harrison, J. R. Rehr,
      M. Dupuis, D. Silverstein, D. M. A. Smith, J. Nieplocha, V. Tipparaju,
      M. Krishnan, B. E. Van Kuiken, A. Vazquez-Mayagoitia, M. Swart, Q. Wu,
   T. Van Voorhis, A. A. Auer, M. Nooijen, L. D. Crosby, E. Brown, G. Cisneros,
     G. I. Fann, H. Fruchtl, J. Garza, K. Hirao, R. A. Kendall, J. A. Nichols,
       K. Tsemekhman, K. Wolinski, J. Anchell, D. E. Bernholdt, P. Borowski,
       T. Clark, D. Clerc, H. Dachsel, M. J. O. Deegan, K. Dyall, D. Elwood,
      E. Glendening, M. Gutowski, A. C. Hess, J. Jaffe, B. G. Johnson, J. Ju,
        R. Kobayashi, R. Kutteh, Z. Lin, R. Littlefield, X. Long, B. Meng,
      T. Nakajima, S. Niu, L. Pollack, M. Rosing, K. Glaesemann, G. Sandrone,
      M. Stave, H. Taylor, G. Thomas, J. H. van Lenthe, A. T. Wong, Z. Zhang.

 Total times  cpu:    11637.5s     wall:    11807.6s
