 argument  1 = 8tO.nw
 


============================== echo of input deck ==============================
echo
start 8tO_
title "H,CHO,H Chelate"
charge 0

geometry
 zmatrix
  O
  C  1  R1
  C  2  R2  1  A1
  C  3  R3  2  A2  1  D0
  O  4  R4  3  A3  2  D0
  H  1  R5  2  A4  3  D180
  H  2  R6  3  A5  4  D180
  C  3  R7  2  A6  1  D180
  H  4  R8  3  A7  2  D180
  O  8  R9  3  A8  2  D180
  H  8  R10 3  A9  2  D0
  variables
    R1  1.329
    R2  1.363
    A1  124.5
    R3  1.440
    A2  119.5
    R4  1.249
    A3  123.5
    R5  0.994
    A4  105.4
    R6  1.085
    A5  122.5
    R7  1.478
    A6  120.0
    R8  1.099
    A7  117.6
    R9  1.250
    A8  120.0
    R10 1.000
    A9  120.0
  constants
    D0  0.000
    D180 180.0
 end
end

basis spherical
 * library aug-cc-pVDZ
end

set lindep:n_dep 0

set cphf:maxsub 95
set cphf:maxiter 999
set int:acc_std 1d-16
set fock:densityscreen f

scf
 maxiter 99
 vectors input atomic
 thresh 1d-9
 tol2e 1d-15
end

mp2
 freeze atomic
 tight
end

driver
 clear
 maxiter 99
 tight
end

set "mp2:aotol2e fock" 1d-15
set mp2:aotol2e 1d-15
set mp2:backtol 1d-15


task mp2 optimize
task mp2 frequencies


================================================================================


                                         
                                         
 
 
             Northwest Computational Chemistry Package (NWChem) 7.0.0
             --------------------------------------------------------
 
 
                    Environmental Molecular Sciences Laboratory
                       Pacific Northwest National Laboratory
                                Richland, WA 99352
 
                              Copyright (c) 1994-2020
                       Pacific Northwest National Laboratory
                            Battelle Memorial Institute
 
             NWChem is an open-source computational chemistry package
                        distributed under the terms of the
                      Educational Community License (ECL) 2.0
             A copy of the license is included with this distribution
                              in the LICENSE.TXT file
 
                                  ACKNOWLEDGMENT
                                  --------------

            This software and its documentation were developed at the
            EMSL at Pacific Northwest National Laboratory, a multiprogram
            national laboratory, operated for the U.S. Department of Energy
            by Battelle under Contract Number DE-AC05-76RL01830. Support
            for this work was provided by the Department of Energy Office
            of Biological and Environmental Research, Office of Basic
            Energy Sciences, and the Office of Advanced Scientific Computing.


           Job information
           ---------------

    hostname        = compute-0-25.local
    program         = /scratch/nwchem.277679
    date            = Wed Mar 31 20:07:01 2021

    compiled        = Wed_Mar_31_10:43:23_2021
    source          = /home/edo/nwchem-7.0.1
    nwchem branch   = 7.0.1
    nwchem revision = de46fdf
    ga revision     = 5.7.1
    use scalapack   = T
    input           = 8tO.nw
    prefix          = 8tO_.
    data base       = ./8tO_.db
    status          = startup
    nproc           =       11
    time left       =     -1s



           Memory information
           ------------------

    heap     =  215205461 doubles =   1641.9 Mbytes
    stack    =  215205455 doubles =   1641.9 Mbytes
    global   =  122974549 doubles =    938.2 Mbytes (distinct from heap & stack)
    total    =  553385465 doubles =   4222.0 Mbytes
    verify   = yes
    hardfail = no 


           Directory information
           ---------------------
 
  0 permanent = .
  0 scratch   = /scratch
 
 
 
 
                                NWChem Input Module
                                -------------------
 
 
                                  H,CHO,H Chelate
                                  ---------------

 Scaling coordinates for geometry "geometry" by  1.889725989
 (inverse scale =  0.529177249)

 CS  symmetry detected
 
 
                             Geometry "geometry" -> ""
                             -------------------------
 
 Output coordinates in angstroms (scale by  1.889725989 to convert to a.u.)
 
  No.       Tag          Charge          X              Y              Z
 ---- ---------------- ---------- -------------- -------------- --------------
    1 O                    8.0000    -0.79081856     2.06828352     0.00000000
    2 C                    6.0000    -1.10910040     0.77795888     0.00000000
    3 C                    6.0000    -0.20339408    -0.24060140     0.00000000
    4 C                    6.0000     1.20438381     0.06232005     0.00000000
    5 O                    8.0000     1.65923039     1.22555502     0.00000000
    6 H                    1.0000    -1.65802511     2.55407029     0.00000000
    7 H                    1.0000    -2.18031357     0.60554266     0.00000000
    8 C                    6.0000    -0.66885665    -1.64339455     0.00000000
    9 H                    1.0000     1.90703251    -0.78271593     0.00000000
   10 O                    8.0000     0.16176177    -2.57751073     0.00000000
   11 H                    1.0000    -1.64827869    -1.84521739     0.00000000
 
      Atomic Mass 
      ----------- 
 
      O                 15.994910
      C                 12.000000
      H                  1.007825
 

 Effective nuclear repulsion energy (a.u.)     275.8524604653

            Nuclear Dipole moment (a.u.) 
            ----------------------------
        X                 Y               Z
 ---------------- ---------------- ----------------
    -0.0000000000    -0.0000000000     0.0000000000
 
      Symmetry information
      --------------------
 
 Group name             Cs        
 Group number              2
 Group order               2
 No. of unique centers    11
 
      Symmetry unique atoms
 
     1    2    3    4    5    6    7    8    9   10   11
 


                                Z-matrix (user)
                                -------- 

 Units are Angstrom for bonds and degrees for angles

  Constants are marked with an asterisk (*).

  Constrained variables are marked with a plus sign (+).

 
      Type          Name      I     J     K     L     M      Value
      ----------- --------  ----- ----- ----- ----- ----- ----------
    1 Stretch      R1          2     1                       1.32900
    2 Stretch      R2          3     2                       1.36300
    3 Bend         A1          3     2     1               124.50000
    4 Stretch      R3          4     3                       1.44000
    5 Bend         A2          4     3     2               119.50000
    6*Torsion      D0          4     3     2     1           0.00000
    7 Stretch      R4          5     4                       1.24900
    8 Bend         A3          5     4     3               123.50000
    9*Torsion      D0          5     4     3     2           0.00000
   10 Stretch      R5          6     1                       0.99400
   11 Bend         A4          6     1     2               105.40000
   12*Torsion      D180        6     1     2     3         180.00000
   13 Stretch      R6          7     2                       1.08500
   14 Bend         A5          7     2     3               122.50000
   15*Torsion      D180        7     2     3     4         180.00000
   16 Stretch      R7          8     3                       1.47800
   17 Bend         A6          8     3     2               120.00000
   18*Torsion      D180        8     3     2     1         180.00000
   19 Stretch      R8          9     4                       1.09900
   20 Bend         A7          9     4     3               117.60000
   21*Torsion      D180        9     4     3     2         180.00000
   22 Stretch      R9         10     8                       1.25000
   23 Bend         A8         10     8     3               120.00000
   24*Torsion      D180       10     8     3     2         180.00000
   25 Stretch      R10        11     8                       1.00000
   26 Bend         A9         11     8     3               120.00000
   27*Torsion      D0         11     8     3     2           0.00000
 
 
            XYZ format geometry
            -------------------
    11
 geometry
 O                    -0.79081856     2.06828352     0.00000000
 C                    -1.10910040     0.77795888     0.00000000
 C                    -0.20339408    -0.24060140     0.00000000
 C                     1.20438381     0.06232005     0.00000000
 O                     1.65923039     1.22555502     0.00000000
 H                    -1.65802511     2.55407029     0.00000000
 H                    -2.18031357     0.60554266     0.00000000
 C                    -0.66885665    -1.64339455     0.00000000
 H                     1.90703251    -0.78271593     0.00000000
 O                     0.16176177    -2.57751073     0.00000000
 H                    -1.64827869    -1.84521739     0.00000000
 
 ==============================================================================
                                internuclear distances
 ------------------------------------------------------------------------------
       center one      |      center two      | atomic units |  angstroms
 ------------------------------------------------------------------------------
    2 C                |   1 O                |     2.51145  |     1.32900
    3 C                |   2 C                |     2.57570  |     1.36300
    4 C                |   3 C                |     2.72121  |     1.44000
    5 O                |   4 C                |     2.36027  |     1.24900
    6 H                |   1 O                |     1.87839  |     0.99400
    7 H                |   2 C                |     2.05035  |     1.08500
    8 C                |   3 C                |     2.79302  |     1.47800
    9 H                |   4 C                |     2.07681  |     1.09900
   10 O                |   8 C                |     2.36216  |     1.25000
   11 H                |   8 C                |     1.88973  |     1.00000
 ------------------------------------------------------------------------------
                         number of included internuclear distances:         10
 ==============================================================================



 ==============================================================================
                                 internuclear angles
 ------------------------------------------------------------------------------
        center 1       |       center 2       |       center 3       |  degrees
 ------------------------------------------------------------------------------
    2 C                |   1 O                |   6 H                |   105.40
    1 O                |   2 C                |   3 C                |   124.50
    1 O                |   2 C                |   7 H                |   113.00
    3 C                |   2 C                |   7 H                |   122.50
    2 C                |   3 C                |   4 C                |   119.50
    2 C                |   3 C                |   8 C                |   120.00
    4 C                |   3 C                |   8 C                |   120.50
    3 C                |   4 C                |   5 O                |   123.50
    3 C                |   4 C                |   9 H                |   117.60
    5 O                |   4 C                |   9 H                |   118.90
    3 C                |   8 C                |  10 O                |   120.00
    3 C                |   8 C                |  11 H                |   120.00
   10 O                |   8 C                |  11 H                |   120.00
 ------------------------------------------------------------------------------
                            number of included internuclear angles:         13
 ==============================================================================





 Summary of "ao basis" -> "" (spherical)
 ------------------------------------------------------------------------------
       Tag                 Description            Shells   Functions and Types
 ---------------- ------------------------------  ------  ---------------------
 *                        aug-cc-pVDZ                 on all atoms 


 
  Deleted DRIVER restart files 
 
 
 
                           NWChem Geometry Optimization
                           ----------------------------
 
 
 
 
                                  H,CHO,H Chelate
 
 
 maximum gradient threshold         (gmax) =   0.000015
 rms gradient threshold             (grms) =   0.000010
 maximum cartesian step threshold   (xmax) =   0.000060
 rms cartesian step threshold       (xrms) =   0.000040
 fixed trust radius                (trust) =   0.300000
 maximum step size to saddle      (sadstp) =   0.100000
 energy precision                  (eprec) =   1.0D-07
 maximum number of steps          (nptopt) =   99
 initial hessian option           (inhess) =    0
 line search option               (linopt) =    1
 hessian update option            (modupd) =    1
 saddle point option              (modsad) =    0
 initial eigen-mode to follow     (moddir) =    0
 initial variable to follow       (vardir) =    0
 follow first negative mode     (firstneg) =    T
 apply conjugacy                    (opcg) =    F
 source of zmatrix                         =   user    


          -------------------
          Energy Minimization
          -------------------

 
 Names of Z-matrix variables 
    1 R1           2 R2           3 A1           4 R3           5 A2      
    6 D0           7 R4           8 A3           9 D0          10 R5      
   11 A4          12 D180        13 R6          14 A5          15 D180    
   16 R7          17 A6          18 D180        19 R8          20 A7      
   21 D180        22 R9          23 A8          24 D180        25 R10     
   26 A9          27 D0      
 
 Variables with the same non-blank name are constrained to be equal
 
     variables named       D0 =     6    9   27 
     variables named     D180 =    12   15   18   21   24 

 Number of frozen variables =    8
           Frozen variables =    6    9   12   15   18   21   24   27
 
 Using diagonal initial Hessian 
 Scaling for Hessian diagonals: bonds = 1.00  angles = 0.25  torsions = 0.10

          --------
          Step   0
          --------
 
 
                         Geometry "geometry" -> "geometry"
                         ---------------------------------
 
 Output coordinates in angstroms (scale by  1.889725989 to convert to a.u.)
 
  No.       Tag          Charge          X              Y              Z
 ---- ---------------- ---------- -------------- -------------- --------------
    1 O                    8.0000    -0.79081856     2.06828352     0.00000000
    2 C                    6.0000    -1.10910040     0.77795888     0.00000000
    3 C                    6.0000    -0.20339408    -0.24060140     0.00000000
    4 C                    6.0000     1.20438381     0.06232005     0.00000000
    5 O                    8.0000     1.65923039     1.22555502     0.00000000
    6 H                    1.0000    -1.65802511     2.55407029     0.00000000
    7 H                    1.0000    -2.18031357     0.60554266     0.00000000
    8 C                    6.0000    -0.66885665    -1.64339455     0.00000000
    9 H                    1.0000     1.90703251    -0.78271593     0.00000000
   10 O                    8.0000     0.16176177    -2.57751073     0.00000000
   11 H                    1.0000    -1.64827869    -1.84521739     0.00000000
 
      Atomic Mass 
      ----------- 
 
      O                 15.994910
      C                 12.000000
      H                  1.007825
 

 Effective nuclear repulsion energy (a.u.)     275.8524604653

            Nuclear Dipole moment (a.u.) 
            ----------------------------
        X                 Y               Z
 ---------------- ---------------- ----------------
    -0.0000000000    -0.0000000000     0.0000000000
 
      Symmetry information
      --------------------
 
 Group name             Cs        
 Group number              2
 Group order               2
 No. of unique centers    11
 
      Symmetry unique atoms
 
     1    2    3    4    5    6    7    8    9   10   11
 
                      Basis "ao basis" -> "ao basis" (spherical)
                      -----
  O (Oxygen)
  ----------
            Exponent  Coefficients 
       -------------- ---------------------------------------------------------
  1 S  1.17200000E+04  0.000710
  1 S  1.75900000E+03  0.005470
  1 S  4.00800000E+02  0.027837
  1 S  1.13700000E+02  0.104800
  1 S  3.70300000E+01  0.283062
  1 S  1.32700000E+01  0.448719
  1 S  5.02500000E+00  0.270952
  1 S  1.01300000E+00  0.015458
 
  2 S  1.17200000E+04 -0.000160
  2 S  1.75900000E+03 -0.001263
  2 S  4.00800000E+02 -0.006267
  2 S  1.13700000E+02 -0.025716
  2 S  3.70300000E+01 -0.070924
  2 S  1.32700000E+01 -0.165411
  2 S  5.02500000E+00 -0.116955
  2 S  1.01300000E+00  0.557368
 
  3 S  3.02300000E-01  1.000000
 
  4 S  7.89600000E-02  1.000000
 
  5 P  1.77000000E+01  0.043018
  5 P  3.85400000E+00  0.228913
  5 P  1.04600000E+00  0.508728
 
  6 P  2.75300000E-01  1.000000
 
  7 P  6.85600000E-02  1.000000
 
  8 D  1.18500000E+00  1.000000
 
  9 D  3.32000000E-01  1.000000
 
  C (Carbon)
  ----------
            Exponent  Coefficients 
       -------------- ---------------------------------------------------------
  1 S  6.66500000E+03  0.000692
  1 S  1.00000000E+03  0.005329
  1 S  2.28000000E+02  0.027077
  1 S  6.47100000E+01  0.101718
  1 S  2.10600000E+01  0.274740
  1 S  7.49500000E+00  0.448564
  1 S  2.79700000E+00  0.285074
  1 S  5.21500000E-01  0.015204
 
  2 S  6.66500000E+03 -0.000146
  2 S  1.00000000E+03 -0.001154
  2 S  2.28000000E+02 -0.005725
  2 S  6.47100000E+01 -0.023312
  2 S  2.10600000E+01 -0.063955
  2 S  7.49500000E+00 -0.149981
  2 S  2.79700000E+00 -0.127262
  2 S  5.21500000E-01  0.544529
 
  3 S  1.59600000E-01  1.000000
 
  4 S  4.69000000E-02  1.000000
 
  5 P  9.43900000E+00  0.038109
  5 P  2.00200000E+00  0.209480
  5 P  5.45600000E-01  0.508557
 
  6 P  1.51700000E-01  1.000000
 
  7 P  4.04100000E-02  1.000000
 
  8 D  5.50000000E-01  1.000000
 
  9 D  1.51000000E-01  1.000000
 
  H (Hydrogen)
  ------------
            Exponent  Coefficients 
       -------------- ---------------------------------------------------------
  1 S  1.30100000E+01  0.019685
  1 S  1.96200000E+00  0.137977
  1 S  4.44600000E-01  0.478148
 
  2 S  1.22000000E-01  1.000000
 
  3 S  2.97400000E-02  1.000000
 
  4 P  7.27000000E-01  1.000000
 
  5 P  1.41000000E-01  1.000000
 


 Summary of "ao basis" -> "ao basis" (spherical)
 ------------------------------------------------------------------------------
       Tag                 Description            Shells   Functions and Types
 ---------------- ------------------------------  ------  ---------------------
 O                        aug-cc-pVDZ                9       23   4s3p2d
 C                        aug-cc-pVDZ                9       23   4s3p2d
 H                        aug-cc-pVDZ                5        9   3s2p


                                 NWChem SCF Module
                                 -----------------
 
 
                                  H,CHO,H Chelate
 
 

  ao basis        = "ao basis"
  functions       =   197
  atoms           =    11
  closed shells   =    26
  open shells     =     0
  charge          =   0.00
  wavefunction    = RHF 
  input vectors   = atomic
  output vectors  = ./8tO_.movecs
  use symmetry    = T
  symmetry adapt  = T


 Summary of "ao basis" -> "ao basis" (spherical)
 ------------------------------------------------------------------------------
       Tag                 Description            Shells   Functions and Types
 ---------------- ------------------------------  ------  ---------------------
 O                        aug-cc-pVDZ                9       23   4s3p2d
 C                        aug-cc-pVDZ                9       23   4s3p2d
 H                        aug-cc-pVDZ                5        9   3s2p


      Symmetry analysis of basis
      --------------------------
 
        a'        140
        a"         57
 

int_init: setting std/high accuracies to  1.0D-16  1.0D-32

 Forming initial guess at       0.3s


 Forcing the number of linearly dependent vectors to be  0
 
      Superposition of Atomic Density Guess
      -------------------------------------
 
 Sum of atomic energies:        -376.96587037
 
      Non-variational initial energy
      ------------------------------

 Total energy =    -380.380878
 1-e energy   =   -1060.693086
 2-e energy   =     404.459747
 HOMO         =      -0.320004
 LUMO         =      -0.068611
 
 
      Symmetry analysis of molecular orbitals - initial
      -------------------------------------------------
 
  Numbering of irreducible representations: 
 
     1 a'          2 a"      
 
  Orbital symmetries:
 
     1 a'          2 a'          3 a'          4 a'          5 a'      
     6 a'          7 a'          8 a'          9 a'         10 a'      
    11 a'         12 a'         13 a'         14 a'         15 a'      
    16 a'         17 a'         18 a"         19 a'         20 a'      
    21 a"         22 a"         23 a'         24 a'         25 a"      
    26 a'         27 a"         28 a"         29 a'         30 a'      
    31 a'         32 a'         33 a"         34 a'         35 a'      
    36 a'      
 

 Starting SCF solution at       2.6s



 ----------------------------------------------
         Quadratically convergent ROHF

 Convergence threshold     :          1.000E-09
 Maximum no. of iterations :           99
 Final Fock-matrix accuracy:          1.000E-15
 ----------------------------------------------

 Warning: symmetry breaking in RHF:   5.804845540748176E-014

              iter       energy          gnorm     gmax       time
             ----- ------------------- --------- --------- --------
                 1     -378.1430815548  1.91D+00  3.71D-01      5.6
 Warning: symmetry breaking in RHF:   8.057558000709714E-014
 Warning: symmetry breaking in RHF:   5.680363433626698E-014
                 2     -378.3476908799  5.74D-01  9.61D-02     12.2
 Warning: symmetry breaking in RHF:   7.621019691409077E-014
                 3     -378.3810536738  2.53D-02  6.29D-03     21.9
 Warning: symmetry breaking in RHF:   7.501882934234859E-014
                 4     -378.3812084401  3.24D-04  5.08D-05     35.9
 Warning: symmetry breaking in RHF:   7.503499950581721E-014
                 5     -378.3812084543  4.57D-08  5.75D-09     59.7
 Warning: symmetry breaking in RHF:   7.596460191515530E-014
                 6     -378.3812084543  6.68D-11  1.06D-11     77.8


       Final RHF  results 
       ------------------ 

         Total SCF energy =   -378.381208454338
      One-electron energy =  -1064.450883552388
      Two-electron energy =    410.217214632768
 Nuclear repulsion energy =    275.852460465282

        Time for solution =     75.4s


 
       Symmetry analysis of molecular orbitals - final
       -----------------------------------------------
 
  Numbering of irreducible representations: 
 
     1 a'          2 a"      
 
  Orbital symmetries:
 
     1 a'          2 a'          3 a'          4 a'          5 a'      
     6 a'          7 a'          8 a'          9 a'         10 a'      
    11 a'         12 a'         13 a'         14 a'         15 a'      
    16 a'         17 a'         18 a"         19 a'         20 a'      
    21 a'         22 a"         23 a"         24 a'         25 a'      
    26 a"         27 a'         28 a'         29 a"         30 a'      
    31 a'         32 a"         33 a"         34 a'         35 a'      
    36 a'      
 
             Final eigenvalues
             -----------------

              1      
    1  -20.6625
    2  -20.5707
    3  -20.5554
    4  -11.3844
    5  -11.3547
    6  -11.3379
    7  -11.2648
    8   -1.4739
    9   -1.3820
   10   -1.3636
   11   -1.1141
   12   -0.9244
   13   -0.8987
   14   -0.7998
   15   -0.7741
   16   -0.7119
   17   -0.6688
   18   -0.6365
   19   -0.6270
   20   -0.6040
   21   -0.5916
   22   -0.5480
   23   -0.5060
   24   -0.4591
   25   -0.4159
   26   -0.3785
   27    0.0112
   28    0.0354
   29    0.0528
   30    0.0546
   31    0.0609
   32    0.0732
   33    0.0973
   34    0.0977
   35    0.1037
   36    0.1129
 
                       ROHF Final Molecular Orbital Analysis
                       -------------------------------------
 
 Vector    8  Occ=2.000000D+00  E=-1.473857D+00  Symmetry=a'
              MO Center= -9.3D-01,  1.9D+00,  8.2D-17, r^2= 6.2D-01
   Bfn.  Coefficient  Atom+Function         Bfn.  Coefficient  Atom+Function  
  ----- ------------  ---------------      ----- ------------  ---------------
     3      0.469910   1 O  s                 2      0.412829   1 O  s         
    27     -0.329817   2 C  s                32     -0.205172   2 C  py        
    26      0.177493   2 C  s               116      0.173169   6 H  s         
     4      0.163371   1 O  s                25      0.153579   2 C  s         
 
 Vector    9  Occ=2.000000D+00  E=-1.381988D+00  Symmetry=a'
              MO Center= -1.7D-02, -2.2D+00,  8.5D-20, r^2= 1.0D+00
   Bfn.  Coefficient  Atom+Function         Bfn.  Coefficient  Atom+Function  
  ----- ------------  ---------------      ----- ------------  ---------------
   168      0.447867  10 O  s               167      0.387298  10 O  s         
   137     -0.262821   8 C  s                27      0.232842   2 C  s         
   135      0.213338   8 C  s                26     -0.206319   2 C  s         
    55      0.203016   3 C  py              136      0.200915   8 C  s         
    58     -0.168865   3 C  py        
 
 Vector   10  Occ=2.000000D+00  E=-1.363634D+00  Symmetry=a'
              MO Center=  1.4D+00,  7.9D-01,  4.6D-17, r^2= 1.1D+00
   Bfn.  Coefficient  Atom+Function         Bfn.  Coefficient  Atom+Function  
  ----- ------------  ---------------      ----- ------------  ---------------
    95      0.451684   5 O  s                94      0.390000   5 O  s         
    72      0.284781   4 C  s                73     -0.233118   4 C  s         
    71      0.208240   4 C  s               137      0.175361   8 C  s         
    54     -0.171138   3 C  px               77     -0.169984   4 C  px        
    75      0.157485   4 C  py              136     -0.154124   8 C  s         
 
 Vector   11  Occ=2.000000D+00  E=-1.114073D+00  Symmetry=a'
              MO Center= -4.2D-01,  2.3D-03, -4.5D-17, r^2= 1.9D+00
   Bfn.  Coefficient  Atom+Function         Bfn.  Coefficient  Atom+Function  
  ----- ------------  ---------------      ----- ------------  ---------------
    48      0.303397   3 C  s                26      0.239412   2 C  s         
    25      0.220272   2 C  s                49      0.205772   3 C  s         
 
 Vector   12  Occ=2.000000D+00  E=-9.244181D-01  Symmetry=a'
              MO Center= -3.9D-01,  4.1D-01,  2.2D-32, r^2= 3.2D+00
   Bfn.  Coefficient  Atom+Function         Bfn.  Coefficient  Atom+Function  
  ----- ------------  ---------------      ----- ------------  ---------------
    27      0.506142   2 C  s                26     -0.432318   2 C  s         
    72      0.323705   4 C  s                25     -0.273484   2 C  s         
    73     -0.267847   4 C  s               126     -0.251888   7 H  s         
    31     -0.221136   2 C  px               49      0.215040   3 C  s         
     6      0.211800   1 O  py               77     -0.191091   4 C  px        
 
 Vector   13  Occ=2.000000D+00  E=-8.987420D-01  Symmetry=a'
              MO Center= -3.9D-01, -9.3D-01, -4.4D-17, r^2= 3.0D+00
   Bfn.  Coefficient  Atom+Function         Bfn.  Coefficient  Atom+Function  
  ----- ------------  ---------------      ----- ------------  ---------------
    72      0.510327   4 C  s               137      0.508996   8 C  s         
   190     -0.312340  11 H  s                77     -0.300929   4 C  px        
    58      0.269272   3 C  py              135     -0.270339   8 C  s         
   189     -0.269605  11 H  s                69     -0.267699   3 C  d  2      
    73     -0.266619   4 C  s                26     -0.254929   2 C  s         
 
 Vector   14  Occ=2.000000D+00  E=-7.998273D-01  Symmetry=a'
              MO Center= -8.2D-01,  1.1D+00,  1.8D-17, r^2= 2.9D+00
   Bfn.  Coefficient  Atom+Function         Bfn.  Coefficient  Atom+Function  
  ----- ------------  ---------------      ----- ------------  ---------------
    27      0.347153   2 C  s               126     -0.314342   7 H  s         
    28      0.297969   2 C  px                5      0.295018   1 O  px        
   137     -0.268157   8 C  s               125     -0.264988   7 H  s         
    58     -0.228018   3 C  py              116     -0.208652   6 H  s         
    26      0.175577   2 C  s               136     -0.175787   8 C  s         
 
 Vector   15  Occ=2.000000D+00  E=-7.740513D-01  Symmetry=a'
              MO Center= -3.2D-01,  3.9D-01, -7.3D-17, r^2= 4.5D+00
   Bfn.  Coefficient  Atom+Function         Bfn.  Coefficient  Atom+Function  
  ----- ------------  ---------------      ----- ------------  ---------------
     6      0.323552   1 O  py               29     -0.274353   2 C  py        
   190     -0.193817  11 H  s               189     -0.184800  11 H  s         
   116      0.182886   6 H  s                72     -0.174022   4 C  s         
     9      0.173080   1 O  py              157     -0.164719   9 H  s         
    71     -0.154829   4 C  s         
 
 Vector   16  Occ=2.000000D+00  E=-7.118527D-01  Symmetry=a'
              MO Center= -2.3D-01, -6.5D-01,  1.4D-17, r^2= 4.0D+00
   Bfn.  Coefficient  Atom+Function         Bfn.  Coefficient  Atom+Function  
  ----- ------------  ---------------      ----- ------------  ---------------
    26      0.347694   2 C  s               136     -0.284472   8 C  s         
   138     -0.281813   8 C  px              137     -0.278449   8 C  s         
    52      0.256495   3 C  py               65      0.248794   3 C  d -2      
   190      0.224852  11 H  s               171     -0.218189  10 O  py        
   189      0.210324  11 H  s                27      0.203582   2 C  s         
 
 Vector   17  Occ=2.000000D+00  E=-6.687527D-01  Symmetry=a'
              MO Center=  6.0D-01,  1.1D-01, -4.0D-17, r^2= 3.6D+00
   Bfn.  Coefficient  Atom+Function         Bfn.  Coefficient  Atom+Function  
  ----- ------------  ---------------      ----- ------------  ---------------
    74      0.315461   4 C  px                5      0.232436   1 O  px        
    51     -0.231267   3 C  px              157      0.231487   9 H  s         
    73     -0.209979   4 C  s               158      0.209156   9 H  s         
    54     -0.201753   3 C  px               97      0.199384   5 O  px        
   137      0.193097   8 C  s               170      0.157418  10 O  px        
 
 Vector   18  Occ=2.000000D+00  E=-6.364650D-01  Symmetry=a"
              MO Center= -7.6D-01,  1.6D+00,  5.5D-17, r^2= 1.6D+00
   Bfn.  Coefficient  Atom+Function         Bfn.  Coefficient  Atom+Function  
  ----- ------------  ---------------      ----- ------------  ---------------
     7      0.517944   1 O  pz               10      0.380212   1 O  pz        
    30      0.240347   2 C  pz        
 
 Vector   19  Occ=2.000000D+00  E=-6.270392D-01  Symmetry=a'
              MO Center=  1.3D-01, -1.4D+00, -9.9D-17, r^2= 4.2D+00
   Bfn.  Coefficient  Atom+Function         Bfn.  Coefficient  Atom+Function  
  ----- ------------  ---------------      ----- ------------  ---------------
   171      0.332373  10 O  py              170     -0.259802  10 O  px        
   138      0.252435   8 C  px              168     -0.223862  10 O  s         
   139     -0.207582   8 C  py              136      0.197860   8 C  s         
   137      0.197341   8 C  s                98     -0.195116   5 O  py        
   190     -0.181038  11 H  s               174      0.171656  10 O  py        
 
 Vector   20  Occ=2.000000D+00  E=-6.040338D-01  Symmetry=a'
              MO Center=  8.8D-01,  4.5D-01, -2.6D-17, r^2= 3.6D+00
   Bfn.  Coefficient  Atom+Function         Bfn.  Coefficient  Atom+Function  
  ----- ------------  ---------------      ----- ------------  ---------------
    98      0.378693   5 O  py               75     -0.327892   4 C  py        
    55      0.221832   3 C  py               95      0.205733   5 O  s         
   139     -0.194864   8 C  py              101      0.192932   5 O  py        
   170     -0.172723  10 O  px               26     -0.159288   2 C  s         
    73     -0.158264   4 C  s         
 
 Vector   21  Occ=2.000000D+00  E=-5.916452D-01  Symmetry=a'
              MO Center= -5.1D-01,  1.1D+00,  3.1D-16, r^2= 3.3D+00
   Bfn.  Coefficient  Atom+Function         Bfn.  Coefficient  Atom+Function  
  ----- ------------  ---------------      ----- ------------  ---------------
    27     -0.358820   2 C  s                 5      0.354053   1 O  px        
    28     -0.297629   2 C  px              126      0.298224   7 H  s         
   125      0.265699   7 H  s                50      0.259661   3 C  s         
    97     -0.227740   5 O  px                8      0.221703   1 O  px        
   116     -0.182041   6 H  s                26     -0.169141   2 C  s         
 
 Vector   22  Occ=2.000000D+00  E=-5.479557D-01  Symmetry=a"
              MO Center=  4.4D-02, -9.8D-01, -5.4D-16, r^2= 3.9D+00
   Bfn.  Coefficient  Atom+Function         Bfn.  Coefficient  Atom+Function  
  ----- ------------  ---------------      ----- ------------  ---------------
   172      0.348533  10 O  pz              140      0.270905   8 C  pz        
   175      0.262630  10 O  pz                7     -0.215788   1 O  pz        
    53      0.180698   3 C  pz               99      0.178985   5 O  pz        
    76      0.163989   4 C  pz               10     -0.163142   1 O  pz        
 
 Vector   23  Occ=2.000000D+00  E=-5.059929D-01  Symmetry=a"
              MO Center=  9.8D-01, -9.6D-02, -2.5D-16, r^2= 3.7D+00
   Bfn.  Coefficient  Atom+Function         Bfn.  Coefficient  Atom+Function  
  ----- ------------  ---------------      ----- ------------  ---------------
    99      0.397257   5 O  pz              102      0.296281   5 O  pz        
   172     -0.277369  10 O  pz               76      0.273070   4 C  pz        
   175     -0.206605  10 O  pz              140     -0.169089   8 C  pz        
    79      0.154773   4 C  pz        
 
 Vector   24  Occ=2.000000D+00  E=-4.590602D-01  Symmetry=a'
              MO Center=  2.2D-01, -1.6D+00,  3.7D-17, r^2= 3.4D+00
   Bfn.  Coefficient  Atom+Function         Bfn.  Coefficient  Atom+Function  
  ----- ------------  ---------------      ----- ------------  ---------------
    26      0.396512   2 C  s               170      0.373206  10 O  px        
   171      0.355543  10 O  py              173      0.281710  10 O  px        
   174      0.276749  10 O  py              137     -0.258222   8 C  s         
   142     -0.228767   8 C  py               97     -0.213321   5 O  px        
   136     -0.200963   8 C  s                31      0.188739   2 C  px        
 
 Vector   25  Occ=2.000000D+00  E=-4.159270D-01  Symmetry=a'
              MO Center=  1.1D+00,  1.7D-01, -2.1D-17, r^2= 3.5D+00
   Bfn.  Coefficient  Atom+Function         Bfn.  Coefficient  Atom+Function  
  ----- ------------  ---------------      ----- ------------  ---------------
    97      0.461423   5 O  px              100      0.357467   5 O  px        
   137     -0.317177   8 C  s                77     -0.260322   4 C  px        
   136     -0.216586   8 C  s                72      0.213358   4 C  s         
   157     -0.202413   9 H  s               170      0.198959  10 O  px        
    73      0.196218   4 C  s                51      0.194297   3 C  px        
 
 Vector   26  Occ=2.000000D+00  E=-3.784636D-01  Symmetry=a"
              MO Center= -1.5D-01,  5.9D-02,  1.2D-15, r^2= 3.4D+00
   Bfn.  Coefficient  Atom+Function         Bfn.  Coefficient  Atom+Function  
  ----- ------------  ---------------      ----- ------------  ---------------
    53      0.367532   3 C  pz               56      0.305343   3 C  pz        
    30      0.253382   2 C  pz               99     -0.235002   5 O  pz        
   172     -0.231253  10 O  pz                7     -0.225359   1 O  pz        
   102     -0.183015   5 O  pz               10     -0.177840   1 O  pz        
   175     -0.176805  10 O  pz               33      0.168432   2 C  pz        
 
 Vector   27  Occ=0.000000D+00  E= 1.124482D-02  Symmetry=a'
              MO Center= -3.3D+00,  1.9D+00,  4.6D-17, r^2= 1.1D+01
   Bfn.  Coefficient  Atom+Function         Bfn.  Coefficient  Atom+Function  
  ----- ------------  ---------------      ----- ------------  ---------------
    73      3.973025   4 C  s               127     -2.912460   7 H  s         
   137      2.320419   8 C  s                57     -1.925663   3 C  px        
    34     -1.539267   2 C  px               35      1.489366   2 C  py        
    50     -1.401364   3 C  s                58      1.345284   3 C  py        
   118     -1.335998   6 H  s                80     -1.100618   4 C  px        
 
 Vector   28  Occ=0.000000D+00  E= 3.541908D-02  Symmetry=a'
              MO Center= -3.0D+00, -2.6D-01, -2.0D-15, r^2= 2.0D+01
   Bfn.  Coefficient  Atom+Function         Bfn.  Coefficient  Atom+Function  
  ----- ------------  ---------------      ----- ------------  ---------------
    27      5.518906   2 C  s               191     -4.689414  11 H  s         
    58     -3.504857   3 C  py               50     -3.052428   3 C  s         
   118      2.198675   6 H  s               144     -2.133419   8 C  px        
    35     -1.948460   2 C  py              145     -1.696670   8 C  py        
    73      1.622786   4 C  s               137     -1.331362   8 C  s         
 
 Vector   29  Occ=0.000000D+00  E= 5.284472D-02  Symmetry=a"
              MO Center= -8.8D-01,  4.5D-01, -8.5D-16, r^2= 6.3D+00
   Bfn.  Coefficient  Atom+Function         Bfn.  Coefficient  Atom+Function  
  ----- ------------  ---------------      ----- ------------  ---------------
    36      1.564405   2 C  pz               59     -1.508398   3 C  pz        
    13     -0.438802   1 O  pz              146      0.439015   8 C  pz        
    33      0.349830   2 C  pz               30      0.308264   2 C  pz        
    56     -0.204956   3 C  pz               82      0.189969   4 C  pz        
    76     -0.185350   4 C  pz                7     -0.183558   1 O  pz        
 
 Vector   30  Occ=0.000000D+00  E= 5.460778D-02  Symmetry=a'
              MO Center=  4.9D-02, -8.3D-01, -3.8D-17, r^2= 2.8D+01
   Bfn.  Coefficient  Atom+Function         Bfn.  Coefficient  Atom+Function  
  ----- ------------  ---------------      ----- ------------  ---------------
    27      8.245418   2 C  s               127      6.496860   7 H  s         
    73     -5.562841   4 C  s                57      5.245806   3 C  px        
   159     -4.081123   9 H  s               191     -4.084798  11 H  s         
    34      3.436182   2 C  px               58     -3.041083   3 C  py        
    80      2.987830   4 C  px              144     -2.097166   8 C  px        
 
 Vector   31  Occ=0.000000D+00  E= 6.087511D-02  Symmetry=a'
              MO Center= -6.9D-02, -7.0D-01, -8.4D-15, r^2= 3.2D+01
   Bfn.  Coefficient  Atom+Function         Bfn.  Coefficient  Atom+Function  
  ----- ------------  ---------------      ----- ------------  ---------------
   137     18.599177   8 C  s                58     15.168851   3 C  py        
   191      7.915967  11 H  s               127     -7.471833   7 H  s         
    27     -6.049765   2 C  s                73     -5.760010   4 C  s         
   159     -5.235628   9 H  s               144      4.576884   8 C  px        
   145      4.474552   8 C  py               34     -4.396726   2 C  px        
 
 Vector   32  Occ=0.000000D+00  E= 7.321210D-02  Symmetry=a"
              MO Center= -1.2D+00, -7.9D-01, -1.9D-16, r^2= 1.1D+01
   Bfn.  Coefficient  Atom+Function         Bfn.  Coefficient  Atom+Function  
  ----- ------------  ---------------      ----- ------------  ---------------
    59      2.551237   3 C  pz              146     -1.751497   8 C  pz        
    36     -1.520730   2 C  pz               82     -1.069338   4 C  pz        
   178      0.519653  10 O  pz              143     -0.245054   8 C  pz        
    30      0.230002   2 C  pz               33      0.213691   2 C  pz        
   105      0.207790   5 O  pz               13      0.201507   1 O  pz        
 
 Vector   33  Occ=0.000000D+00  E= 9.728393D-02  Symmetry=a"
              MO Center=  6.7D-01, -5.6D-01,  9.1D-16, r^2= 9.0D+00
   Bfn.  Coefficient  Atom+Function         Bfn.  Coefficient  Atom+Function  
  ----- ------------  ---------------      ----- ------------  ---------------
    82     -1.833566   4 C  pz               59      1.688759   3 C  pz        
    36     -1.054655   2 C  pz              105      0.629920   5 O  pz        
   140      0.270703   8 C  pz              178     -0.268252  10 O  pz        
   143      0.253498   8 C  pz               79     -0.206835   4 C  pz        
    99      0.198669   5 O  pz              172     -0.174991  10 O  pz        
 
 Vector   34  Occ=0.000000D+00  E= 9.770145D-02  Symmetry=a'
              MO Center= -8.4D-01,  2.7D-01,  1.4D-14, r^2= 2.1D+01
   Bfn.  Coefficient  Atom+Function         Bfn.  Coefficient  Atom+Function  
  ----- ------------  ---------------      ----- ------------  ---------------
    27     24.592762   2 C  s                50    -21.974179   3 C  s         
    57      9.281958   3 C  px               34      8.165170   2 C  px        
    73     -8.163161   4 C  s                58     -6.901238   3 C  py        
    35     -6.056326   2 C  py              127      5.279559   7 H  s         
   159     -2.353052   9 H  s               145      2.073132   8 C  py        
 
 Vector   35  Occ=0.000000D+00  E= 1.037290D-01  Symmetry=a'
              MO Center=  3.5D-01,  5.8D-02, -1.4D-15, r^2= 2.2D+01
   Bfn.  Coefficient  Atom+Function         Bfn.  Coefficient  Atom+Function  
  ----- ------------  ---------------      ----- ------------  ---------------
    73     32.626248   4 C  s                57    -20.261577   3 C  px        
    27    -14.221471   2 C  s                50    -11.280352   3 C  s         
    80     -7.399016   4 C  px               35      5.711161   2 C  py        
   137     -3.742062   8 C  s               144      3.337046   8 C  px        
    96     -2.666759   5 O  s               158     -2.471488   9 H  s         
 
 Vector   36  Occ=0.000000D+00  E= 1.129053D-01  Symmetry=a'
              MO Center= -1.8D+00,  6.2D-01, -3.5D-15, r^2= 2.3D+01
   Bfn.  Coefficient  Atom+Function         Bfn.  Coefficient  Atom+Function  
  ----- ------------  ---------------      ----- ------------  ---------------
   137     24.139085   8 C  s                58     15.361683   3 C  py        
    73     -8.788983   4 C  s                27     -8.005547   2 C  s         
   145      7.663103   8 C  py              127     -7.363408   7 H  s         
    34     -7.279468   2 C  px              191      6.695338  11 H  s         
    57      5.677513   3 C  px               35      3.898301   2 C  py        
 
 Vector   37  Occ=0.000000D+00  E= 1.274092D-01  Symmetry=a"
              MO Center= -9.9D-01, -6.0D-01, -1.3D-16, r^2= 1.5D+01
   Bfn.  Coefficient  Atom+Function         Bfn.  Coefficient  Atom+Function  
  ----- ------------  ---------------      ----- ------------  ---------------
   146     -1.917111   8 C  pz               36      1.799943   2 C  pz        
    82     -0.523017   4 C  pz              178      0.524732  10 O  pz        
    13     -0.416770   1 O  pz               33     -0.265004   2 C  pz        
    59      0.252235   3 C  pz              143      0.188309   8 C  pz        
    30     -0.176235   2 C  pz        
 
 Vector   38  Occ=0.000000D+00  E= 1.338410D-01  Symmetry=a'
              MO Center=  1.5D-01, -4.6D-01,  1.2D-14, r^2= 2.4D+01
   Bfn.  Coefficient  Atom+Function         Bfn.  Coefficient  Atom+Function  
  ----- ------------  ---------------      ----- ------------  ---------------
   137    -13.210229   8 C  s                27     12.168814   2 C  s         
    58    -11.433019   3 C  py               50     10.896189   3 C  s         
   127      5.632527   7 H  s               145     -4.864492   8 C  py        
    81      4.101560   4 C  py               73     -3.977949   4 C  s         
    34      3.796978   2 C  px               80      3.470259   4 C  px        
 
 Vector   39  Occ=0.000000D+00  E= 1.447545D-01  Symmetry=a'
              MO Center= -1.9D+00, -1.1D+00, -5.2D-16, r^2= 1.8D+01
   Bfn.  Coefficient  Atom+Function         Bfn.  Coefficient  Atom+Function  
  ----- ------------  ---------------      ----- ------------  ---------------
    27     27.445572   2 C  s                58    -20.414159   3 C  py        
   137    -16.494703   8 C  s                50     -8.690710   3 C  s         
   191     -8.515600  11 H  s               144     -6.721469   8 C  px        
    73      6.392648   4 C  s                81      5.158410   4 C  py        
   145     -5.127711   8 C  py               57      4.358545   3 C  px        
 
 Vector   40  Occ=0.000000D+00  E= 1.521940D-01  Symmetry=a"
              MO Center=  8.4D-01, -3.4D-01,  2.5D-15, r^2= 1.2D+01
   Bfn.  Coefficient  Atom+Function         Bfn.  Coefficient  Atom+Function  
  ----- ------------  ---------------      ----- ------------  ---------------
    82      1.785641   4 C  pz              146     -0.813259   8 C  pz        
    36     -0.437435   2 C  pz              143      0.344197   8 C  pz        
    79     -0.305637   4 C  pz              105     -0.278492   5 O  pz        
    76     -0.258813   4 C  pz              165     -0.252489   9 H  pz        
   140      0.205603   8 C  pz               59     -0.203813   3 C  pz        
 
 Vector   41  Occ=0.000000D+00  E= 1.557083D-01  Symmetry=a'
              MO Center=  5.4D-01, -5.0D-01,  2.6D-16, r^2= 1.9D+01
   Bfn.  Coefficient  Atom+Function         Bfn.  Coefficient  Atom+Function  
  ----- ------------  ---------------      ----- ------------  ---------------
    73     33.653011   4 C  s               137    -29.059395   8 C  s         
    57    -27.544917   3 C  px               27    -20.581091   2 C  s         
    50     13.967094   3 C  s                58    -11.723647   3 C  py        
    35      9.061155   2 C  py              145     -7.502027   8 C  py        
    80     -6.483483   4 C  px              191     -6.010906  11 H  s         
 
 Vector   42  Occ=0.000000D+00  E= 1.701629D-01  Symmetry=a'
              MO Center= -8.2D-01, -1.2D+00,  1.8D-16, r^2= 2.1D+01
   Bfn.  Coefficient  Atom+Function         Bfn.  Coefficient  Atom+Function  
  ----- ------------  ---------------      ----- ------------  ---------------
    27     14.714703   2 C  s                73    -10.277828   4 C  s         
   127      8.202391   7 H  s                57      8.074001   3 C  px        
   191     -7.750369  11 H  s               144     -7.330101   8 C  px        
    34      6.975182   2 C  px               58     -6.184876   3 C  py        
    50      5.050564   3 C  s                 4     -3.569316   1 O  s         
 
 Vector   43  Occ=0.000000D+00  E= 1.762531D-01  Symmetry=a'
              MO Center=  2.8D-01, -2.3D-01, -3.3D-15, r^2= 2.2D+01
   Bfn.  Coefficient  Atom+Function         Bfn.  Coefficient  Atom+Function  
  ----- ------------  ---------------      ----- ------------  ---------------
    58     33.195970   3 C  py              137     32.673268   8 C  s         
    27    -29.697278   2 C  s               144      8.718105   8 C  px        
    34     -7.541755   2 C  px              127     -6.858115   7 H  s         
    81     -6.331684   4 C  py               57     -5.810550   3 C  px        
   191      5.458814  11 H  s               159     -5.425500   9 H  s         
 
 Vector   44  Occ=0.000000D+00  E= 1.808039D-01  Symmetry=a'
              MO Center=  3.1D-01, -1.7D-01, -8.3D-15, r^2= 1.8D+01
   Bfn.  Coefficient  Atom+Function         Bfn.  Coefficient  Atom+Function  
  ----- ------------  ---------------      ----- ------------  ---------------
   137     24.988177   8 C  s                58     21.289538   3 C  py        
    57     11.503772   3 C  px               73    -10.751493   4 C  s         
    27     -8.515466   2 C  s                50     -7.141920   3 C  s         
    34     -6.857208   2 C  px               35     -4.644009   2 C  py        
    80     -3.650379   4 C  px              127     -3.544551   7 H  s         
 
 Vector   45  Occ=0.000000D+00  E= 1.916250D-01  Symmetry=a"
              MO Center= -1.1D-01, -2.8D-01,  3.1D-13, r^2= 1.4D+01
   Bfn.  Coefficient  Atom+Function         Bfn.  Coefficient  Atom+Function  
  ----- ------------  ---------------      ----- ------------  ---------------
    59      7.420582   3 C  pz               82     -2.834304   4 C  pz        
   146     -2.513651   8 C  pz               36     -2.469710   2 C  pz        
   105      0.229138   5 O  pz               79     -0.205624   4 C  pz        
   143     -0.168946   8 C  pz        
 
 Vector   46  Occ=0.000000D+00  E= 2.103878D-01  Symmetry=a'
              MO Center=  2.2D-04,  1.1D+00, -2.5D-13, r^2= 1.6D+01
   Bfn.  Coefficient  Atom+Function         Bfn.  Coefficient  Atom+Function  
  ----- ------------  ---------------      ----- ------------  ---------------
    50     22.634352   3 C  s                27    -18.380845   2 C  s         
    73     -5.297870   4 C  s                34     -5.153119   2 C  px        
    35      4.742218   2 C  py              127     -3.413165   7 H  s         
     4      3.234713   1 O  s                12     -2.956221   1 O  py        
   159      2.651606   9 H  s               190     -2.291597  11 H  s         
 
 Vector   47  Occ=0.000000D+00  E= 2.302872D-01  Symmetry=a'
              MO Center= -7.1D-01,  1.1D+00, -1.8D-13, r^2= 1.8D+01
   Bfn.  Coefficient  Atom+Function         Bfn.  Coefficient  Atom+Function  
  ----- ------------  ---------------      ----- ------------  ---------------
    73     12.764579   4 C  s                35     11.420381   2 C  py        
    50    -10.130422   3 C  s                58     -9.762976   3 C  py        
     4     -6.415269   1 O  s                11      4.593123   1 O  px        
    27      4.566349   2 C  s               117      4.380153   6 H  s         
   145      4.319093   8 C  py               96     -3.555212   5 O  s         
 
 Vector   48  Occ=0.000000D+00  E= 2.346142D-01  Symmetry=a"
              MO Center= -2.0D-01,  8.5D-01, -2.8D-15, r^2= 9.9D+00
   Bfn.  Coefficient  Atom+Function         Bfn.  Coefficient  Atom+Function  
  ----- ------------  ---------------      ----- ------------  ---------------
    13      1.631372   1 O  pz               36     -1.067948   2 C  pz        
    82     -0.795450   4 C  pz               59      0.617309   3 C  pz        
   133     -0.567543   7 H  pz               79     -0.535350   4 C  pz        
   146      0.486831   8 C  pz              105      0.476484   5 O  pz        
    66      0.350782   3 C  d -1             56      0.344558   3 C  pz        
 
 Vector   49  Occ=0.000000D+00  E= 2.492090D-01  Symmetry=a'
              MO Center= -3.7D-01, -5.4D-01, -6.5D-15, r^2= 1.9D+01
   Bfn.  Coefficient  Atom+Function         Bfn.  Coefficient  Atom+Function  
  ----- ------------  ---------------      ----- ------------  ---------------
    27     47.390379   2 C  s               137    -42.101138   8 C  s         
    58    -26.844849   3 C  py               73    -10.392935   4 C  s         
    57      9.493984   3 C  px                4     -9.188301   1 O  s         
   145     -7.836954   8 C  py               50      6.920502   3 C  s         
   144     -6.693265   8 C  px               34      6.252191   2 C  px        
 
 Vector   50  Occ=0.000000D+00  E= 2.696908D-01  Symmetry=a'
              MO Center=  9.4D-01, -5.3D-01,  4.2D-15, r^2= 1.7D+01
   Bfn.  Coefficient  Atom+Function         Bfn.  Coefficient  Atom+Function  
  ----- ------------  ---------------      ----- ------------  ---------------
    73     66.948872   4 C  s               137    -42.299269   8 C  s         
    57    -34.686723   3 C  px               58    -19.755654   3 C  py        
    27    -19.519234   2 C  s                80    -13.930449   4 C  px        
   145     -8.753093   8 C  py               96     -7.261250   5 O  s         
    35      7.181590   2 C  py               50     -6.838265   3 C  s         
 
 Vector   51  Occ=0.000000D+00  E= 2.707935D-01  Symmetry=a"
              MO Center= -1.5D-01,  2.0D-01, -2.9D-15, r^2= 1.2D+01
   Bfn.  Coefficient  Atom+Function         Bfn.  Coefficient  Atom+Function  
  ----- ------------  ---------------      ----- ------------  ---------------
    59      1.915048   3 C  pz               36     -1.575956   2 C  pz        
    13      1.286318   1 O  pz              146     -1.275356   8 C  pz        
   178      1.047030  10 O  pz              105     -1.038692   5 O  pz        
    68     -0.494627   3 C  d  1             91     -0.306772   4 C  d  1      
    43     -0.301013   2 C  d -1            155      0.288079   8 C  d  1      
 
 Vector   52  Occ=0.000000D+00  E= 2.751140D-01  Symmetry=a'
              MO Center= -8.2D-01,  4.1D-01,  1.2D-14, r^2= 1.5D+01
   Bfn.  Coefficient  Atom+Function         Bfn.  Coefficient  Atom+Function  
  ----- ------------  ---------------      ----- ------------  ---------------
    50     38.724043   3 C  s                27    -30.087228   2 C  s         
    34     -9.086490   2 C  px               35      9.004843   2 C  py        
    57     -7.148065   3 C  px              137     -6.839174   8 C  s         
    73      5.949386   4 C  s               127     -4.008004   7 H  s         
    58      3.982271   3 C  py               26     -3.278320   2 C  s         
 
 Vector   53  Occ=0.000000D+00  E= 2.890726D-01  Symmetry=a'
              MO Center= -1.1D-01,  7.4D-01,  4.1D-14, r^2= 1.6D+01
   Bfn.  Coefficient  Atom+Function         Bfn.  Coefficient  Atom+Function  
  ----- ------------  ---------------      ----- ------------  ---------------
    27     35.410415   2 C  s               137    -33.788611   8 C  s         
    58    -23.025237   3 C  py               34      8.361485   2 C  px        
    57      7.724956   3 C  px              144     -7.601777   8 C  px        
    35     -7.252995   2 C  py              145     -6.528655   8 C  py        
   191     -6.044074  11 H  s               127      4.834633   7 H  s         
 
 Vector   54  Occ=0.000000D+00  E= 2.918455D-01  Symmetry=a"
              MO Center=  1.3D-01, -2.2D-01, -3.4D-16, r^2= 1.2D+01
   Bfn.  Coefficient  Atom+Function         Bfn.  Coefficient  Atom+Function  
  ----- ------------  ---------------      ----- ------------  ---------------
    36      1.969218   2 C  pz              178      1.451275  10 O  pz        
    13     -1.412763   1 O  pz               59     -1.127851   3 C  pz        
   146     -1.042077   8 C  pz               82      0.850316   4 C  pz        
   105     -0.802147   5 O  pz              197     -0.580806  11 H  pz        
    66     -0.469498   3 C  d -1            155      0.461657   8 C  d  1      
 
 Vector   55  Occ=0.000000D+00  E= 2.961574D-01  Symmetry=a'
              MO Center= -4.1D-01, -6.4D-02,  6.0D-14, r^2= 1.3D+01
   Bfn.  Coefficient  Atom+Function         Bfn.  Coefficient  Atom+Function  
  ----- ------------  ---------------      ----- ------------  ---------------
    27     47.213942   2 C  s                58    -28.072100   3 C  py        
   137    -23.260031   8 C  s                50    -21.710223   3 C  s         
    34      8.911956   2 C  px               57      7.739194   3 C  px        
   190      4.579284  11 H  s               127      4.464597   7 H  s         
    81      4.174808   4 C  py                4     -4.151956   1 O  s         
 
 Vector   56  Occ=0.000000D+00  E= 3.236972D-01  Symmetry=a'
              MO Center= -1.7D+00, -4.7D-02, -4.0D-15, r^2= 1.1D+01
   Bfn.  Coefficient  Atom+Function         Bfn.  Coefficient  Atom+Function  
  ----- ------------  ---------------      ----- ------------  ---------------
    50     27.858350   3 C  s               137    -17.963950   8 C  s         
    73    -13.924917   4 C  s                58    -12.556508   3 C  py        
   127      7.186393   7 H  s                34      6.479308   2 C  px        
    35      6.065037   2 C  py              144     -5.302912   8 C  px        
   145     -4.185068   8 C  py              191     -4.143066  11 H  s         
 
 Vector   57  Occ=0.000000D+00  E= 3.257973D-01  Symmetry=a"
              MO Center=  9.2D-01, -3.4D-01, -1.5D-15, r^2= 1.4D+01
   Bfn.  Coefficient  Atom+Function         Bfn.  Coefficient  Atom+Function  
  ----- ------------  ---------------      ----- ------------  ---------------
    82      2.154402   4 C  pz              105     -1.966897   5 O  pz        
   178     -1.840343  10 O  pz              146      1.792062   8 C  pz        
    59     -1.683967   3 C  pz               13      0.807680   1 O  pz        
    36     -0.492304   2 C  pz               89      0.390070   4 C  d -1      
   153     -0.266425   8 C  d -1             66     -0.216827   3 C  d -1      
 
 Vector   58  Occ=0.000000D+00  E= 3.342641D-01  Symmetry=a'
              MO Center=  1.5D-01, -3.4D-02,  8.4D-17, r^2= 1.4D+01
   Bfn.  Coefficient  Atom+Function         Bfn.  Coefficient  Atom+Function  
  ----- ------------  ---------------      ----- ------------  ---------------
    58     27.458478   3 C  py              137     24.828816   8 C  s         
    27    -18.034475   2 C  s               144      7.020922   8 C  px        
    50     -6.338310   3 C  s                81     -5.557512   4 C  py        
    35     -5.421721   2 C  py              136      4.653132   8 C  s         
   191      4.530426  11 H  s                34     -4.474757   2 C  px        
 
 Vector   59  Occ=0.000000D+00  E= 3.568528D-01  Symmetry=a'
              MO Center=  3.6D-01, -1.7D+00, -5.8D-15, r^2= 1.4D+01
   Bfn.  Coefficient  Atom+Function         Bfn.  Coefficient  Atom+Function  
  ----- ------------  ---------------      ----- ------------  ---------------
   145     -7.029478   8 C  py               27      6.430078   2 C  s         
    72      5.440380   4 C  s                50     -5.245003   3 C  s         
    35     -5.214849   2 C  py               81      4.687760   4 C  py        
   191     -4.251435  11 H  s               177      3.797762  10 O  py        
    31     -3.673480   2 C  px               69     -3.533317   3 C  d  2      
 
 Vector   60  Occ=0.000000D+00  E= 3.633732D-01  Symmetry=a'
              MO Center=  1.0D+00,  6.5D-02,  2.2D-15, r^2= 1.4D+01
   Bfn.  Coefficient  Atom+Function         Bfn.  Coefficient  Atom+Function  
  ----- ------------  ---------------      ----- ------------  ---------------
    27     20.689826   2 C  s                50     -9.224882   3 C  s         
    58     -9.172447   3 C  py               57      7.474353   3 C  px        
    73     -5.461509   4 C  s                80      5.338577   4 C  px        
    34      4.680491   2 C  px               26      4.543776   2 C  s         
    65      3.901413   3 C  d -2            136     -3.860735   8 C  s         
 
 Vector   61  Occ=0.000000D+00  E= 3.755836D-01  Symmetry=a'
              MO Center= -1.3D-02, -6.3D-01,  1.9D-15, r^2= 1.4D+01
   Bfn.  Coefficient  Atom+Function         Bfn.  Coefficient  Atom+Function  
  ----- ------------  ---------------      ----- ------------  ---------------
   137     19.791481   8 C  s                50    -15.710757   3 C  s         
    57     14.758522   3 C  px               73    -13.653156   4 C  s         
    27     10.251589   2 C  s                58      8.593034   3 C  py        
   144     -4.345276   8 C  px               35     -4.207184   2 C  py        
   190     -4.120489  11 H  s                81     -3.814994   4 C  py        
 
 Vector   62  Occ=0.000000D+00  E= 3.758831D-01  Symmetry=a"
              MO Center= -1.4D+00,  1.0D+00, -1.1D-16, r^2= 7.7D+00
   Bfn.  Coefficient  Atom+Function         Bfn.  Coefficient  Atom+Function  
  ----- ------------  ---------------      ----- ------------  ---------------
    59      2.083724   3 C  pz               36     -1.622988   2 C  pz        
   133      1.295955   7 H  pz               82     -1.044315   4 C  pz        
   124      0.940133   6 H  pz               33     -0.925414   2 C  pz        
   105      0.892817   5 O  pz               13     -0.298162   1 O  pz        
    89     -0.298117   4 C  d -1            178     -0.280346  10 O  pz        
 
 Vector   63  Occ=0.000000D+00  E= 3.828077D-01  Symmetry=a'
              MO Center=  5.2D-01,  5.1D-02,  5.9D-15, r^2= 1.4D+01
   Bfn.  Coefficient  Atom+Function         Bfn.  Coefficient  Atom+Function  
  ----- ------------  ---------------      ----- ------------  ---------------
   137     34.011168   8 C  s                58     25.679092   3 C  py        
    50    -14.963504   3 C  s                73    -13.511230   4 C  s         
   144      7.633685   8 C  px               27     -7.563825   2 C  s         
    35     -7.276250   2 C  py               57      5.704255   3 C  px        
    81     -5.539864   4 C  py              191      5.149403  11 H  s         
 
 Vector   64  Occ=0.000000D+00  E= 3.947733D-01  Symmetry=a'
              MO Center= -7.8D-01,  3.5D-01, -1.2D-14, r^2= 1.1D+01
   Bfn.  Coefficient  Atom+Function         Bfn.  Coefficient  Atom+Function  
  ----- ------------  ---------------      ----- ------------  ---------------
    27     22.787555   2 C  s                73    -17.384689   4 C  s         
    57     11.190372   3 C  px                4     -9.287870   1 O  s         
   137      6.726100   8 C  s                49      5.859149   3 C  s         
    72      4.870132   4 C  s                26     -4.750530   2 C  s         
   169     -4.733255  10 O  s                31     -4.469055   2 C  px        
 
 Vector   65  Occ=0.000000D+00  E= 4.007062D-01  Symmetry=a'
              MO Center=  3.2D-01, -5.1D-01,  1.0D-14, r^2= 1.1D+01
   Bfn.  Coefficient  Atom+Function         Bfn.  Coefficient  Atom+Function  
  ----- ------------  ---------------      ----- ------------  ---------------
   137    -27.112659   8 C  s                73     24.945105   4 C  s         
    57    -16.118008   3 C  px               58    -14.243166   3 C  py        
    34      8.805922   2 C  px              145     -6.454746   8 C  py        
    54      6.395711   3 C  px              158     -5.858108   9 H  s         
   127      5.728043   7 H  s               169      5.427578  10 O  s         
 
 Vector   66  Occ=0.000000D+00  E= 4.164846D-01  Symmetry=a"
              MO Center= -1.2D+00, -8.3D-01,  3.4D-15, r^2= 8.1D+00
   Bfn.  Coefficient  Atom+Function         Bfn.  Coefficient  Atom+Function  
  ----- ------------  ---------------      ----- ------------  ---------------
   197      1.817739  11 H  pz              143     -1.385435   8 C  pz        
   133      1.089932   7 H  pz              146     -1.064676   8 C  pz        
    82      1.043406   4 C  pz              105     -0.897260   5 O  pz        
    33     -0.872781   2 C  pz               79      0.668070   4 C  pz        
    13      0.604974   1 O  pz               68      0.601624   3 C  d  1      
 
 Vector   67  Occ=0.000000D+00  E= 4.432684D-01  Symmetry=a'
              MO Center= -3.2D-01,  7.1D-01,  3.6D-16, r^2= 1.4D+01
   Bfn.  Coefficient  Atom+Function         Bfn.  Coefficient  Atom+Function  
  ----- ------------  ---------------      ----- ------------  ---------------
   137     29.266750   8 C  s                27    -22.701144   2 C  s         
    58     22.507086   3 C  py               73    -12.780469   4 C  s         
     4     10.033567   1 O  s                11     -7.697993   1 O  px        
   169     -7.448009  10 O  s               117     -7.009020   6 H  s         
    35     -6.677222   2 C  py              144      6.513864   8 C  px        
 
 Vector   68  Occ=0.000000D+00  E= 4.456288D-01  Symmetry=a"
              MO Center=  1.1D+00, -5.2D-01,  7.8D-16, r^2= 7.6D+00
   Bfn.  Coefficient  Atom+Function         Bfn.  Coefficient  Atom+Function  
  ----- ------------  ---------------      ----- ------------  ---------------
   165      1.758787   9 H  pz               79     -1.011575   4 C  pz        
    13      0.921759   1 O  pz               82     -0.743489   4 C  pz        
   124     -0.600722   6 H  pz               43     -0.486071   2 C  d -1      
    89      0.448086   4 C  d -1            178     -0.414736  10 O  pz        
   146      0.378733   8 C  pz              197      0.355901  11 H  pz        
 
 Vector   69  Occ=0.000000D+00  E= 4.557757D-01  Symmetry=a'
              MO Center=  1.3D-01, -3.6D-01, -1.4D-15, r^2= 1.2D+01
   Bfn.  Coefficient  Atom+Function         Bfn.  Coefficient  Atom+Function  
  ----- ------------  ---------------      ----- ------------  ---------------
   137     13.854552   8 C  s                73     10.939403   4 C  s         
    27     -8.009246   2 C  s                58      8.039767   3 C  py        
    96     -6.934854   5 O  s                26      6.740305   2 C  s         
   169     -5.518823  10 O  s                77      4.623568   4 C  px        
    54      4.019222   3 C  px               72     -3.411759   4 C  s         
 
 Vector   70  Occ=0.000000D+00  E= 4.636429D-01  Symmetry=a"
              MO Center= -1.5D+00,  3.7D-01, -2.9D-16, r^2= 9.4D+00
   Bfn.  Coefficient  Atom+Function         Bfn.  Coefficient  Atom+Function  
  ----- ------------  ---------------      ----- ------------  ---------------
    59      1.618866   3 C  pz              133     -1.406168   7 H  pz        
   146     -1.363866   8 C  pz               13     -1.322973   1 O  pz        
   197      1.319947  11 H  pz              124      1.262564   6 H  pz        
    82     -0.950907   4 C  pz              143     -0.692961   8 C  pz        
    36      0.526812   2 C  pz               33      0.509748   2 C  pz        
 
 Vector   71  Occ=0.000000D+00  E= 4.775399D-01  Symmetry=a'
              MO Center= -7.0D-01,  7.7D-01, -5.2D-16, r^2= 1.1D+01
   Bfn.  Coefficient  Atom+Function         Bfn.  Coefficient  Atom+Function  
  ----- ------------  ---------------      ----- ------------  ---------------
    27     39.195276   2 C  s                58    -20.414666   3 C  py        
   137    -16.599882   8 C  s                73    -15.664026   4 C  s         
     4    -14.125067   1 O  s                26    -10.598557   2 C  s         
    57      9.432241   3 C  px               34      6.405138   2 C  px        
    32      5.962163   2 C  py               96      5.741906   5 O  s         
 
 Vector   72  Occ=0.000000D+00  E= 4.863969D-01  Symmetry=a'
              MO Center= -1.0D+00,  2.4D-01, -1.1D-16, r^2= 9.7D+00
   Bfn.  Coefficient  Atom+Function         Bfn.  Coefficient  Atom+Function  
  ----- ------------  ---------------      ----- ------------  ---------------
   137     11.221405   8 C  s                27     -8.608901   2 C  s         
     4      6.532300   1 O  s                26      6.051790   2 C  s         
   136     -5.778528   8 C  s               169     -5.564275  10 O  s         
   142     -5.165688   8 C  py               55     -5.063262   3 C  py        
    69     -4.752343   3 C  d  2             72      4.602486   4 C  s         
 
 Vector   73  Occ=0.000000D+00  E= 5.101898D-01  Symmetry=a'
              MO Center=  2.5D-01, -2.7D-01,  5.2D-15, r^2= 9.2D+00
   Bfn.  Coefficient  Atom+Function         Bfn.  Coefficient  Atom+Function  
  ----- ------------  ---------------      ----- ------------  ---------------
    73     19.359129   4 C  s                50    -16.950131   3 C  s         
   126      7.962355   7 H  s               136     -6.772575   8 C  s         
    27     -6.699115   2 C  s                80     -6.523848   4 C  px        
    57     -5.579673   3 C  px               96     -5.549650   5 O  s         
    31      5.356799   2 C  px               55     -5.055330   3 C  py        
 

 center of mass
 --------------
 x =   0.06700520 y =  -0.01003596 z =   0.00000000

 moments of inertia (a.u.)
 ------------------
         893.169891929254           0.000000000000           0.000000000000
           0.000000000000         379.704315751745           0.000000000000
           0.000000000000           0.000000000000        1272.874207680998
 
  Mulliken analysis of the total density
  --------------------------------------

    Atom       Charge   Shell Charges
 -----------   ------   -------------------------------------------------------
    1 O    8     8.78   2.00  0.83  1.00  0.24  2.81  1.73  0.13  0.02  0.02
    2 C    6     4.73   2.01  0.68  0.70 -0.46  1.89 -0.06  0.02  0.15 -0.19
    3 C    6     6.18   2.01  0.64  0.38 -0.03  2.10 -0.12  0.71  0.08  0.42
    4 C    6     5.21   2.01  0.69  0.87 -0.38  1.88  0.03  0.07  0.17 -0.12
    5 O    8     8.80   2.00  0.84  1.06  0.20  2.75  1.80  0.10  0.02  0.03
    6 H    1     0.70   0.69 -0.05 -0.00  0.07 -0.01
    7 H    1     1.46   0.78  0.66  0.01  0.03 -0.02
    8 C    6     4.53   2.01  0.69  0.41 -0.50  1.89 -0.12  0.09  0.17 -0.10
    9 H    1     1.27   0.77  0.50 -0.01  0.03 -0.01
   10 O    8     8.82   2.00  0.84  1.06  0.19  2.75  1.82  0.11  0.02  0.03
   11 H    1     1.50   0.84  0.66 -0.01  0.03 -0.02
 
       Multipole analysis of the density wrt the origin
       ------------------------------------------------
 
     L   x y z        total         open         nuclear
     -   - - -        -----         ----         -------
     0   0 0 0     -0.000000      0.000000     52.000000
 
     1   1 0 0     -2.553510      0.000000     -0.000000
     1   0 1 0      0.705855      0.000000     -0.000000
     1   0 0 1     -0.000000      0.000000      0.000000
 
     2   2 0 0    -24.935065      0.000000    214.655088
     2   1 1 0     -5.992796      0.000000     -7.131059
     2   1 0 1      0.000000      0.000000      0.000000
     2   0 2 0    -36.537982      0.000000    466.026058
     2   0 1 1     -0.000000      0.000000      0.000000
     2   0 0 2    -30.023538      0.000000      0.000000
 
                   NWChem MP2 Semi-direct Energy/Gradient Module
                   ---------------------------------------------
 
 
                                  H,CHO,H Chelate
 
 

int_init: setting std/high accuracies to  1.0D-16  1.0D-32
  Basis functions       =    197
  Molecular orbitals    =    197
  Frozen core           =      7
  Frozen virtuals       =      0
  Active alpha occupied =     19
  Active beta occupied  =     19
  Active alpha virtual  =    171
  Active beta virtual   =    171
  Use MO symmetry       = T
  Use skeleton AO sym   = T

  AO/Fock/Back tols     =   1.0D-15  1.0D-15  1.0D-15

 GA uses MA = F    GA memory limited = T

 Available: 
  local mem=  3.77D+08
 global mem=  1.23D+08
 local disk=  0.00D+00

int_init: setting std/high accuracies to  1.0D-16  1.0D-32
  mp2_memr nvloc                     16
  nvloc new                     16
   1 passes of  19:        5242880                     331868                  25432951.
   1 passes of  19: M    376556197           G      122954509           F     371313317.
 
 Semi-direct pass number   1 of   1  for RHF alpha+beta  at       78.9s

int_init: setting std/high accuracies to  1.0D-16  1.0D-32
  vrange nnbf                  19341
  mp2_eaftype                     76  avail_ma_in_mb                   3282
 EAF : mp2_eaftype filesize          76   10028587.
  mp2_eaf for mointskh                      76
Node 0 wrote     47.0 Mb in      0.1 s     Agg I/O rate:  4164.1 Mb/s
 Done moints_semi at       87.7s
  mp2_eaftype                     76  avail_ma_in_mb                   3207
 EAF : mp2_eaftype filesize          76   10028587.
  mp2_eaf for kh                     76
  mp2_eaftype                     15  avail_ma_in_mb                   3206
 EAF : mp2_eaftype filesize          15    1975392.
  mp2_eaf for ta tb                     15
  mp2_eaf for ta                      15
  mp2_eaf for tb                      15
 Done maket at       88.1s
 Done pijab at       88.2s
 Done wijab at       88.2s
 Done lai at       90.1s

int_init: setting std/high accuracies to  1.0D-16  1.0D-32
  mp2_eaftype                     85  avail_ma_in_mb                   3176
 EAF : mp2_eaftype filesize          85   11148151.
  mp2_eaf for 2pdm                      85
 Done nonsep at      116.1s
 Done multipass loop at      116.1s


          -------------------------------------------
          SCF energy                -378.381208454338
          Correlation energy          -1.121782304042
          Singlet pairs               -0.671406490503
          Triplet pairs               -0.450375813539
          Total MP2 energy          -379.502990758380
          -------------------------------------------



          ---------------------------------------------------
                    Spin Component Scaled (SCS) MP2
          Same spin pairs                     -0.300250542359
          Same spin scaling factor             0.333333333333
          Opposite spin pairs                 -0.821531761683
          Opposite spin scaling fact.          1.200000000000
          SCS-MP2 correlation energy          -1.085921628139
          Total SCS-MP2 energy              -379.467130082477
          ---------------------------------------------------


int_init: setting std/high accuracies to  1.0D-16  1.0D-32
                                NWChem CPHF Module
                                ------------------
 
 

int_init: setting std/high accuracies to  1.0D-16  1.0D-32
    scftype = RHF 
    nclosed =   26
      nopen =    0
  variables =     4446
  tolerance =   1.0D-06
  max. iter =  999

 Warning: symmetry breaking in RHF:   7.600916415608444E-014
 SCF residual:   6.710399280385138E-011

            ----- linear solve (tol: 1.0E-06 prod-acc: 3.3E-14) -----

               iter nbas    rnorm     rnorm-scal   ratio     time
               ---- ---- ----------- ----------- --------- -------
                  1    1  9.4541E-02  4.2461E-01    0.0000   124.1
                  2    2  2.5794E-02  1.1585E-01    0.2728   127.0
                  3    3  8.6907E-03  3.9032E-02    0.3369   129.9
                  4    4  3.4600E-03  1.5540E-02    0.3981   132.6
                  5    5  1.3890E-03  6.2384E-03    0.4014   135.3
                  6    6  4.9600E-04  2.2276E-03    0.3571   137.8
                  7    7  2.2174E-04  9.9590E-04    0.4471   140.5
                  8    8  8.8065E-05  3.9552E-04    0.3971   142.8
                  9    9  2.8802E-05  1.2936E-04    0.3271   145.4
                 10   10  1.2950E-05  5.8162E-05    0.4496   147.7
                 11   11  3.8722E-06  1.7391E-05    0.2990   149.9
                 12   12  1.0120E-06  4.5450E-06    0.2613   152.2
                 13   13  3.2376E-07  1.4541E-06    0.3199   154.5
                 14   14  1.1023E-07  4.9506E-07    0.3405   156.6

 CPHF converged to   5.0D-07 in   14 iters


int_init: setting std/high accuracies to  1.0D-16  1.0D-32
                Dipole Moments (a.u.)
                --------------
         Nuclear       SCF       SCF+MP2
       ----------- ----------- -----------
 X      -0.000000   -2.553510   -2.167292
 Y      -0.000000    0.705855    0.732664
 Z       0.000000   -0.000000   -0.000000
 

 MP2 RHF      natural orbital occupation numbers


              1      
    1    2.0000
    2    2.0000
    3    2.0000
    4    2.0000
    5    2.0000
    6    2.0000
    7    2.0000
    8    1.9868
    9    1.9857
   10    1.9851
   11    1.9807
   12    1.9762
   13    1.9744
   14    1.9723
   15    1.9673
   16    1.9652
   17    1.9644
   18    1.9636
   19    1.9600
   20    1.9585
   21    1.9583
   22    1.9551
   23    1.9532
   24    1.9435
   25    1.9354
   26    1.9220
   27    0.0655
   28    0.0621
   29    0.0380
   30    0.0343
   31    0.0322
   32    0.0305
   33    0.0284
   34    0.0255
   35    0.0251
   36    0.0204
   37    0.0181
   38    0.0171
   39    0.0157
   40    0.0157
   41    0.0129
   42    0.0122
   43    0.0118
   44    0.0110
   45    0.0105
   46    0.0094
   47    0.0092
   48    0.0085
   49    0.0085
   50    0.0079
   51    0.0079
   52    0.0074
   53    0.0072
   54    0.0069
   55    0.0069
   56    0.0067
   57    0.0063
   58    0.0061
   59    0.0059
   60    0.0056
   61    0.0056
   62    0.0051
   63    0.0051
   64    0.0047
   65    0.0042
   66    0.0041
   67    0.0036
   68    0.0034
   69    0.0032
   70    0.0031
   71    0.0028
   72    0.0025
   73    0.0024
   74    0.0024
   75    0.0023
   76    0.0022
   77    0.0021
   78    0.0020
   79    0.0018
   80    0.0016
   81    0.0015
   82    0.0014
   83    0.0013
   84    0.0012
   85    0.0012
   86    0.0011
   87    0.0011
   88    0.0010
   89    0.0010
   90    0.0010
   91    0.0008
   92    0.0008
   93    0.0008
   94    0.0007
   95    0.0007
   96    0.0007
   97    0.0006
   98    0.0006
   99    0.0006
  100    0.0006
  101    0.0005
  102    0.0005
  103    0.0005
  104    0.0005
  105    0.0005
  106    0.0005
  107    0.0005
  108    0.0004
  109    0.0004
  110    0.0004
  111    0.0004
  112    0.0004
  113    0.0004
  114    0.0003
  115    0.0003
  116    0.0003
  117    0.0003
  118    0.0003
  119    0.0003
  120    0.0003
  121    0.0003
  122    0.0003
  123    0.0003
  124    0.0002
  125    0.0002
  126    0.0002
  127    0.0002
  128    0.0002
  129    0.0002
  130    0.0002
  131    0.0002
  132    0.0002
  133    0.0001
  134    0.0001
  135    0.0001
  136    0.0001
  137    0.0001
  138    0.0001
  139    0.0001
  140    0.0001
  141    0.0001
  142    0.0001
  143    0.0001
  144    0.0001
  145    0.0001
  146    0.0001
  147    0.0001
  148    0.0001
  149    0.0001
  150    0.0001
  151    0.0001
  152    0.0001
  153    0.0001
  154    0.0000
  155    0.0000
  156    0.0000
  157    0.0000
  158    0.0000
  159    0.0000
  160    0.0000
  161    0.0000
  162    0.0000
  163    0.0000
  164    0.0000
  165    0.0000
  166    0.0000
  167    0.0000
  168    0.0000
  169    0.0000
  170    0.0000
  171    0.0000
  172    0.0000
  173    0.0000
  174    0.0000
  175    0.0000
  176    0.0000
  177    0.0000
  178    0.0000
  179    0.0000
  180    0.0000
  181    0.0000
  182    0.0000
  183    0.0000
  184    0.0000
  185   -0.0000
  186   -0.0000
  187   -0.0000
  188   -0.0000
  189   -0.0000
  190   -0.0000
  191   -0.0000
  192   -0.0000
  193   -0.0001
  194   -0.0001
  195   -0.0002
  196   -0.0002
  197   -0.0003
 
  MP2 natural orbitals output to ./8tO_.mp2nos
 

int_init: setting std/high accuracies to  1.0D-16  1.0D-32
  Using symmetry

int_init: setting std/high accuracies to  1.0D-16  1.0D-32


[...]
          15     0.00000     0.00000    -0.00321     0.00000     0.00000     0.01065
          16     0.16304    -0.03304     0.00000    -0.06754     0.13699     0.00000
          17     0.06416     0.09082     0.00000    -0.06616     0.24635     0.00000
          18     0.00000     0.00000     0.83149     0.00000     0.00000    -0.02085
          19    -0.13664    -0.03625     0.00000     0.04160    -0.17214     0.00000
          20     0.00892     0.12056     0.00000     0.02663     0.06468     0.00000
          21     0.00000     0.00000    -0.23549     0.00000     0.00000     0.74532
          22    -0.00831     0.04854     0.00000    -0.17617    -0.00663     0.00000
          23     0.00430    -0.10724     0.00000    -0.10534    -0.00587     0.00000
          24     0.00000     0.00000     0.01861     0.00000     0.00000     0.04804
          25    -0.11068    -0.06711     0.00000     0.11922     0.27804     0.00000
          26     0.05104     0.02230     0.00000     0.07436    -0.01233     0.00000
          27     0.00000     0.00000    -0.15521     0.00000     0.00000     0.13773
          28    -0.01602     0.00927     0.00000     0.03510     0.00303     0.00000
          29     0.00178    -0.15460     0.00000     0.06008    -0.01408     0.00000
          30     0.00000     0.00000    -0.00710     0.00000     0.00000    -0.01402
          31    -0.00929     0.04959     0.00000    -0.15922    -0.00271     0.00000
          32    -0.00052    -0.11643     0.00000    -0.23207    -0.05297     0.00000
          33     0.00000     0.00000    -0.00180     0.00000     0.00000    -0.25232

                   19          20          21          22          23          24
 
 P.Frequency      999.54     1015.16     1216.79     1245.95     1310.63     1382.29
 
           1     0.00000     0.00000    -0.02818     0.00202    -0.07401    -0.01358
           2     0.00000     0.00000    -0.09483     0.09391    -0.06650     0.00475
           3     0.00529    -0.00097     0.00000     0.00000     0.00000     0.00000
           4     0.00000     0.00000     0.04388    -0.03460     0.05497    -0.01946
           5     0.00000     0.00000     0.08556    -0.10906     0.08068    -0.03431
           6    -0.04391     0.00800     0.00000     0.00000     0.00000     0.00000
           7     0.00000     0.00000     0.06016     0.08667    -0.02068     0.10017
           8     0.00000     0.00000     0.16816    -0.02511    -0.10970    -0.00864
           9     0.04600     0.08318     0.00000     0.00000     0.00000     0.00000
          10     0.00000     0.00000    -0.00060    -0.05052    -0.02706     0.01679
          11     0.00000     0.00000    -0.00916     0.02093     0.00373    -0.00535
          12     0.06042    -0.16341     0.00000     0.00000     0.00000     0.00000
          13     0.00000     0.00000    -0.01737     0.00012     0.01490    -0.00967
          14     0.00000     0.00000    -0.00020    -0.01115    -0.00548     0.03288
          15    -0.01493     0.03879     0.00000     0.00000     0.00000     0.00000
          16     0.00000     0.00000     0.16444     0.21920     0.28733     0.00924
          17     0.00000     0.00000     0.22298     0.48283     0.53967     0.04051
          18    -0.02787     0.00564     0.00000     0.00000     0.00000     0.00000
          19     0.00000     0.00000     0.12325     0.07251     0.01507    -0.16592
          20     0.00000     0.00000    -0.16826    -0.49897     0.22968     0.47029
          21     0.29180    -0.13078     0.00000     0.00000     0.00000     0.00000
          22     0.00000     0.00000    -0.07497    -0.01941     0.02233    -0.04948
          23     0.00000     0.00000    -0.05961    -0.02483     0.01739    -0.03800
          24    -0.15833    -0.06457     0.00000     0.00000     0.00000     0.00000
          25     0.00000     0.00000    -0.12195    -0.07636     0.19054    -0.47038
          26     0.00000     0.00000    -0.09592     0.00387     0.16187    -0.36331
          27    -0.23785     0.66619     0.00000     0.00000     0.00000     0.00000
          28     0.00000     0.00000     0.01714    -0.00049     0.00609     0.03317
          29     0.00000     0.00000    -0.02439     0.01847     0.00370    -0.00651
          30     0.03846     0.01629     0.00000     0.00000     0.00000     0.00000
          31     0.00000     0.00000    -0.05388    -0.02904    -0.00353    -0.10225
          32     0.00000     0.00000    -0.26582     0.04979     0.24644     0.38616
          33     0.65741     0.22904     0.00000     0.00000     0.00000     0.00000

                   25          26          27          28          29          30
 
 P.Frequency     1417.90     1436.82     1669.48     1712.18     1732.41     2931.99
 
           1    -0.01932    -0.01194     0.01384     0.00007    -0.01395    -0.00028
           2     0.00010     0.01116    -0.01259     0.01127     0.02069     0.00068
           3     0.00000     0.00000     0.00000     0.00000     0.00000     0.00000
           4     0.03628    -0.02032    -0.07217     0.00131     0.08687    -0.00056
           5    -0.00317    -0.05234     0.09198    -0.03169    -0.13715    -0.00130
           6     0.00000     0.00000     0.00000     0.00000     0.00000     0.00000
           7    -0.05127     0.12660     0.08492     0.01570    -0.09864     0.00099
           8    -0.07430     0.01026    -0.04352    -0.00836     0.11462    -0.00221
           9     0.00000     0.00000     0.00000     0.00000     0.00000     0.00000
          10     0.04692    -0.05384    -0.09502    -0.05440    -0.03306    -0.00164
          11    -0.02243     0.03174    -0.14687    -0.07441    -0.10646    -0.00004
          12     0.00000     0.00000     0.00000     0.00000     0.00000     0.00000
          13     0.00535    -0.00547     0.04806     0.02769     0.02615     0.00041
          14     0.05825    -0.04559     0.10332     0.05181     0.06593     0.00053
          15     0.00000     0.00000     0.00000     0.00000     0.00000     0.00000
          16     0.08172     0.01126    -0.05861     0.00269     0.06401    -0.00084
          17     0.17127     0.04790    -0.12505     0.02163     0.14447     0.00274
          18     0.00000     0.00000     0.00000     0.00000     0.00000     0.00000
          19     0.04154    -0.17300    -0.02212    -0.01331     0.00794     0.01125
          20    -0.01344     0.49505    -0.13063     0.03734     0.22167     0.01057
          21     0.00000     0.00000     0.00000     0.00000     0.00000     0.00000
          22     0.06440     0.01331     0.03506    -0.10456     0.03433     0.07846
          23     0.05490    -0.00463    -0.05874     0.17792    -0.05530     0.01431
          24     0.00000     0.00000     0.00000     0.00000     0.00000     0.00000
          25    -0.42122     0.19064     0.09290     0.08295     0.14710     0.00541
          26    -0.36995     0.21785    -0.00999     0.03858     0.02473    -0.00746
          27     0.00000     0.00000     0.00000     0.00000     0.00000     0.00000
          28    -0.04880    -0.03930    -0.02882     0.07700    -0.01895     0.00065
          29     0.02225     0.03035     0.04360    -0.10791     0.02115    -0.00146
          30     0.00000     0.00000     0.00000     0.00000     0.00000     0.00000
          31     0.14722     0.08814     0.02486    -0.04478     0.01301    -0.94821
          32    -0.53122    -0.51759     0.00479    -0.14169     0.09300    -0.12996
          33     0.00000     0.00000     0.00000     0.00000     0.00000     0.00000

                   31          32          33
 
 P.Frequency     3037.21     3170.29     3799.56
 
           1     0.00004    -0.00157     0.05140
           2     0.00014    -0.00046    -0.03240
           3     0.00000     0.00000     0.00000
           4     0.00032     0.08123     0.00310
           5    -0.00048     0.01855     0.00079
           6     0.00000     0.00000     0.00000
           7     0.00103    -0.00278    -0.00108
           8     0.00066     0.00377     0.00121
           9     0.00000     0.00000     0.00000
          10    -0.04929    -0.00039     0.00066
          11     0.06437    -0.00081     0.00042
          12     0.00000     0.00000     0.00000
          13     0.00052     0.00006    -0.00008
          14    -0.00081     0.00027    -0.00033
          15     0.00000     0.00000     0.00000
          16    -0.00082     0.01300    -0.83339
          17    -0.00002    -0.00103     0.48868
          18     0.00000     0.00000     0.00000
          19    -0.00293    -0.91868    -0.01109
          20     0.00055    -0.25474     0.00409
          21     0.00000     0.00000     0.00000
          22    -0.00214     0.00107    -0.00014
          23     0.00161     0.00092    -0.00045
          24     0.00000     0.00000     0.00000
          25     0.56692     0.00063    -0.00046
          26    -0.76964     0.00337     0.00046
          27     0.00000     0.00000     0.00000
          28     0.00097    -0.00002    -0.00007
          29    -0.00040    -0.00043     0.00017
          30     0.00000     0.00000     0.00000
          31     0.00870    -0.01290     0.00113
          32    -0.00182    -0.00468    -0.00000
          33     0.00000     0.00000     0.00000



 ----------------------------------------------------------------------------
 Normal Eigenvalue ||    Projected Derivative Dipole Moments (debye/angs)
  Mode   [cm**-1]  ||      [d/dqX]             [d/dqY]           [d/dqZ]
 ------ ---------- || ------------------ ------------------ -----------------
    1       -0.000 ||      -0.064              -0.168             0.000
    2       -0.000 ||       0.062               0.164             0.000
    3       -0.000 ||       0.000               0.000             0.298
    4       -0.000 ||       0.000               0.000            -0.184
    5       -0.000 ||       0.000               0.000            -0.331
    6        0.000 ||      -0.047              -0.124             0.000
    7      103.654 ||       0.000               0.000             0.358
    8      123.191 ||       0.000               0.000             0.518
    9      191.769 ||      -0.326              -0.166             0.000
   10      226.785 ||       0.364               0.066             0.000
   11      321.188 ||       0.000               0.000             0.213
   12      351.944 ||       0.000               0.000             1.288
   13      449.816 ||      -0.419               0.481             0.000
   14      497.461 ||      -0.233              -0.138             0.000
   15      548.604 ||       0.000               0.000             1.145
   16      724.166 ||      -0.056              -1.172             0.000
   17      892.375 ||       1.143               0.372             0.000
   18      914.149 ||       0.000               0.000             0.332
   19      999.536 ||       0.000               0.000             0.163
   20     1015.155 ||       0.000               0.000            -0.057
   21     1216.794 ||      -0.640               0.533             0.000
   22     1245.955 ||       0.171              -0.997             0.000
   23     1310.631 ||      -0.301               2.782             0.000
   24     1382.294 ||      -0.500              -0.372             0.000
   25     1417.902 ||       0.385               0.538             0.000
   26     1436.822 ||      -0.534              -0.450             0.000
   27     1669.480 ||      -1.757              -0.553             0.000
   28     1712.184 ||      -1.135               1.310             0.000
   29     1732.414 ||       0.829              -2.787             0.000
   30     2931.989 ||       1.444               0.389             0.000
   31     3037.207 ||      -0.671               0.656             0.000
   32     3170.288 ||       0.363               0.251             0.000
   33     3799.564 ||      -1.286               1.584             0.000
 ----------------------------------------------------------------------------



  
  
 ----------------------------------------------------------------------------
 Normal Eigenvalue ||           Projected Infra Red Intensities
  Mode   [cm**-1]  || [atomic units] [(debye/angs)**2] [(KM/mol)] [arbitrary]
 ------ ---------- || -------------- ----------------- ---------- -----------
    1       -0.000 ||    0.001408           0.032         1.372       0.264
    2       -0.000 ||    0.001331           0.031         1.298       0.249
    3       -0.000 ||    0.003843           0.089         3.746       0.720
    4       -0.000 ||    0.001472           0.034         1.435       0.276
    5       -0.000 ||    0.004759           0.110         4.639       0.892
    6        0.000 ||    0.000768           0.018         0.749       0.144
    7      103.654 ||    0.005562           0.128         5.423       1.042
    8      123.191 ||    0.011630           0.268        11.338       2.179
    9      191.769 ||    0.005799           0.134         5.653       1.087
   10      226.785 ||    0.005941           0.137         5.792       1.113
   11      321.188 ||    0.001974           0.046         1.925       0.370
   12      351.944 ||    0.071928           1.659        70.119      13.479
   13      449.816 ||    0.017636           0.407        17.192       3.305
   14      497.461 ||    0.003183           0.073         3.103       0.596
   15      548.604 ||    0.056858           1.312        55.428      10.655
   16      724.166 ||    0.059676           1.377        58.176      11.183
   17      892.375 ||    0.062598           1.444        61.023      11.730
   18      914.149 ||    0.004782           0.110         4.662       0.896
   19      999.536 ||    0.001149           0.027         1.120       0.215
   20     1015.155 ||    0.000143           0.003         0.140       0.027
   21     1216.794 ||    0.030057           0.693        29.301       5.633
   22     1245.955 ||    0.044338           1.023        43.223       8.309
   23     1310.631 ||    0.339503           7.833       330.965      63.621
   24     1382.294 ||    0.016832           0.388        16.409       3.154
   25     1417.902 ||    0.018989           0.438        18.511       3.558
   26     1436.822 ||    0.021129           0.487        20.597       3.959
   27     1669.480 ||    0.147137           3.395       143.437      27.573
   28     1712.184 ||    0.130217           3.004       126.942      24.402
   29     1732.414 ||    0.366375           8.453       357.160      68.656
   30     2931.989 ||    0.096895           2.235        94.458      18.158
   31     3037.207 ||    0.038201           0.881        37.240       7.159
   32     3170.288 ||    0.008436           0.195         8.224       1.581
   33     3799.564 ||    0.180444           4.163       175.905      33.814
 ----------------------------------------------------------------------------



 vib:animation  F

 Task  times  cpu:     9285.6s     wall:     9394.0s
 
 
                                NWChem Input Module
                                -------------------
 
 
 Summary of allocated global arrays
-----------------------------------
  No active global arrays



                         GA Statistics for process    0
                         ------------------------------

       create   destroy   get      put      acc     scatter   gather  read&inc
calls: 7.94e+04 7.94e+04 1.21e+07 1.79e+06 5.26e+06    0        0     1.07e+05 
number of processes/call 2.41e+01 7.41e+01 3.08e+01 0.00e+00 0.00e+00
bytes total:             1.31e+10 2.15e+10 3.77e+09 0.00e+00 0.00e+00 8.52e+05
bytes remote:            6.91e+09 1.47e+10 2.74e+09 0.00e+00 0.00e+00 0.00e+00
Max memory consumed for GA by this process: 186246328 bytes
 
MA_summarize_allocated_blocks: starting scan ...
MA_summarize_allocated_blocks: scan completed: 0 heap blocks, 0 stack blocks
MA usage statistics:

	allocation statistics:
					      heap	     stack
					      ----	     -----
	current number of blocks	         0	         0
	maximum number of blocks	        25	        39
	current total bytes		         0	         0
	maximum total bytes		 121060400	  27154968
	maximum total K-bytes		    121061	     27155
	maximum total M-bytes		       122	        28
 
 
                                     CITATION
                                     --------
                Please cite the following reference when publishing
                           results obtained with NWChem:
 
          E. Apr, E. J. Bylaska, W. A. de Jong, N. Govind, K. Kowalski,
       T. P. Straatsma, M. Valiev, H. J. J. van Dam, Y. Alexeev, J. Anchell,
       V. Anisimov, F. W. Aquino, R. Atta-Fynn, J. Autschbach, N. P. Bauman,
     J. C. Becca, D. E. Bernholdt, K. Bhaskaran-Nair, S. Bogatko, P. Borowski,
        J. Boschen, J. Brabec, A. Bruner, E. Caut, Y. Chen, G. N. Chuev,
      C. J. Cramer, J. Daily, M. J. O. Deegan, T. H. Dunning Jr., M. Dupuis,
   K. G. Dyall, G. I. Fann, S. A. Fischer, A. Fonari, H. Frchtl, L. Gagliardi,
      J. Garza, N. Gawande, S. Ghosh, K. Glaesemann, A. W. Gtz, J. Hammond,
       V. Helms, E. D. Hermes, K. Hirao, S. Hirata, M. Jacquelin, L. Jensen,
   B. G. Johnson, H. Jnsson, R. A. Kendall, M. Klemm, R. Kobayashi, V. Konkov,
      S. Krishnamoorthy, M. Krishnan, Z. Lin, R. D. Lins, R. J. Littlefield,
      A. J. Logsdail, K. Lopata, W. Ma, A. V. Marenich, J. Martin del Campo,
   D. Mejia-Rodriguez, J. E. Moore, J. M. Mullin, T. Nakajima, D. R. Nascimento,
    J. A. Nichols, P. J. Nichols, J. Nieplocha, A. Otero-de-la-Roza, B. Palmer,
    A. Panyala, T. Pirojsirikul, B. Peng, R. Peverati, J. Pittner, L. Pollack,
   R. M. Richard, P. Sadayappan, G. C. Schatz, W. A. Shelton, D. W. Silverstein,
   D. M. A. Smith, T. A. Soares, D. Song, M. Swart, H. L. Taylor, G. S. Thomas,
            V. Tipparaju, D. G. Truhlar, K. Tsemekhman, T. Van Voorhis,
     . Vzquez-Mayagoitia, P. Verma, O. Villa, A. Vishnu, K. D. Vogiatzis,
        D. Wang, J. H. Weare, M. J. Williamson, T. L. Windus, K. Woliski,
        A. T. Wong, Q. Wu, C. Yang, Q. Yu, M. Zacharias, Z. Zhang, Y. Zhao,
                                and R. J. Harrison
                        "NWChem: Past, present, and future
                         J. Chem. Phys. 152, 184102 (2020)
                               doi:10.1063/5.0004997
 
                                      AUTHORS
                                      -------
     E. Apra, E. J. Bylaska, N. Govind, K. Kowalski, M. Valiev, W. A. de Jong,
      T. P. Straatsma, H. J. J. van Dam, D. Wang, T. L. Windus, N. P. Bauman,
       A. Panyala, J. Hammond, J. Autschbach, K. Bhaskaran-Nair, J. Brabec,
    K. Lopata, S. A. Fischer, S. Krishnamoorthy, M. Jacquelin, W. Ma, M. Klemm,
       O. Villa, Y. Chen, V. Anisimov, F. Aquino, S. Hirata, M. T. Hackler,
           Eric Hermes, L. Jensen, J. E. Moore, J. C. Becca, V. Konjkov,
            D. Mejia-Rodriguez, T. Risthaus, M. Malagoli, A. Marenich,
   A. Otero-de-la-Roza, J. Mullin, P. Nichols, R. Peverati, J. Pittner, Y. Zhao,
        P.-D. Fan, A. Fonari, M. J. Williamson, R. J. Harrison, J. R. Rehr,
      M. Dupuis, D. Silverstein, D. M. A. Smith, J. Nieplocha, V. Tipparaju,
      M. Krishnan, B. E. Van Kuiken, A. Vazquez-Mayagoitia, M. Swart, Q. Wu,
   T. Van Voorhis, A. A. Auer, M. Nooijen, L. D. Crosby, E. Brown, G. Cisneros,
     G. I. Fann, H. Fruchtl, J. Garza, K. Hirao, R. A. Kendall, J. A. Nichols,
       K. Tsemekhman, K. Wolinski, J. Anchell, D. E. Bernholdt, P. Borowski,
       T. Clark, D. Clerc, H. Dachsel, M. J. O. Deegan, K. Dyall, D. Elwood,
      E. Glendening, M. Gutowski, A. C. Hess, J. Jaffe, B. G. Johnson, J. Ju,
        R. Kobayashi, R. Kutteh, Z. Lin, R. Littlefield, X. Long, B. Meng,
      T. Nakajima, S. Niu, L. Pollack, M. Rosing, K. Glaesemann, G. Sandrone,
      M. Stave, H. Taylor, G. Thomas, J. H. van Lenthe, A. T. Wong, Z. Zhang.

 Total times  cpu:    11154.9s     wall:    11289.1s
