 argument  1 = 8tR1.nw
 


============================== echo of input deck ==============================
echo
start 8tR1
title "H,CHO,H Reference 1"
charge 0

geometry
 zmatrix
  O
  C  1  R1
  C  2  R2  1  A1
  H  1  R5  2  A4  3  D0
  H  2  R6  3  A5  4  D180
  C  3  R7  2  A6  1  D180
  H  3  R8  2  A7  1  D0
  O  6  R9  3  A8  2  D180
  H  6  R10 3  A9  2  D0
  variables
    R1  1.329
    R2  1.363
    A1  124.5
    R5  0.994
    A4  105.4
    R6  1.085
    A5  122.5
    R7  1.478
    A6  120.0
    R8  1.099
    A7  117.6
    R9  1.250
    A8  120.0
    R10 1.000
    A9  120.0
  constants
    D0  0.000
    D180 180.0
 end
end

basis spherical
 * library aug-cc-pVDZ
end

set lindep:n_dep 0

set cphf:maxsub 95
set cphf:maxiter 999
set int:acc_std 1d-16
set fock:densityscreen f

scf
 maxiter 99
 vectors input atomic
 thresh 1d-9
 tol2e 1d-15
end

mp2
 freeze atomic
 tight
end

driver
 clear
 maxiter 99
 tight
end

set "mp2:aotol2e fock" 1d-15
set mp2:aotol2e 1d-15
set mp2:backtol 1d-15


task mp2 optimize
task mp2 frequencies

================================================================================


                                         
                                         
 
 
             Northwest Computational Chemistry Package (NWChem) 7.0.0
             --------------------------------------------------------
 
 
                    Environmental Molecular Sciences Laboratory
                       Pacific Northwest National Laboratory
                                Richland, WA 99352
 
                              Copyright (c) 1994-2020
                       Pacific Northwest National Laboratory
                            Battelle Memorial Institute
 
             NWChem is an open-source computational chemistry package
                        distributed under the terms of the
                      Educational Community License (ECL) 2.0
             A copy of the license is included with this distribution
                              in the LICENSE.TXT file
 
                                  ACKNOWLEDGMENT
                                  --------------

            This software and its documentation were developed at the
            EMSL at Pacific Northwest National Laboratory, a multiprogram
            national laboratory, operated for the U.S. Department of Energy
            by Battelle under Contract Number DE-AC05-76RL01830. Support
            for this work was provided by the Department of Energy Office
            of Biological and Environmental Research, Office of Basic
            Energy Sciences, and the Office of Advanced Scientific Computing.


           Job information
           ---------------

    hostname        = compute-0-22.local
    program         = /scratch/nwchem.277679
    date            = Wed Mar 31 12:17:43 2021

    compiled        = Wed_Mar_31_10:43:23_2021
    source          = /home/edo/nwchem-7.0.1
    nwchem branch   = 7.0.1
    nwchem revision = de46fdf
    ga revision     = 5.7.1
    use scalapack   = T
    input           = 8tR1.nw
    prefix          = 8tR1.
    data base       = ./8tR1.db
    status          = startup
    nproc           =       11
    time left       =     -1s



           Memory information
           ------------------

    heap     =  215205457 doubles =   1641.9 Mbytes
    stack    =  215205459 doubles =   1641.9 Mbytes
    global   =  122974549 doubles =    938.2 Mbytes (distinct from heap & stack)
    total    =  553385465 doubles =   4222.0 Mbytes
    verify   = yes
    hardfail = no 


           Directory information
           ---------------------
 
  0 permanent = .
  0 scratch   = /scratch
 
 
 
 
                                NWChem Input Module
                                -------------------
 
 
                                H,CHO,H Reference 1
                                -------------------

 Scaling coordinates for geometry "geometry" by  1.889725989
 (inverse scale =  0.529177249)

 CS  symmetry detected
 
 
                             Geometry "geometry" -> ""
                             -------------------------
 
 Output coordinates in angstroms (scale by  1.889725989 to convert to a.u.)
 
  No.       Tag          Charge          X              Y              Z
 ---- ---------------- ---------- -------------- -------------- --------------
    1 O                    8.0000     0.15487113     2.33774575     0.00000000
    2 C                    6.0000    -0.39274908     1.12681507     0.00000000
    3 C                    6.0000     0.31263079    -0.03946459     0.00000000
    4 H                    1.0000     1.13681194     2.18338176     0.00000000
    5 H                    1.0000    -1.47745503     1.15207357     0.00000000
    6 C                    6.0000    -0.40016846    -1.33422372     0.00000000
    7 H                    1.0000     1.40950286     0.02889226     0.00000000
    8 O                    8.0000     0.24673163    -2.40381255     0.00000000
    9 H                    1.0000    -1.39996138    -1.35457373     0.00000000
 
      Atomic Mass 
      ----------- 
 
      O                 15.994910
      C                 12.000000
      H                  1.007825
 

 Effective nuclear repulsion energy (a.u.)     153.4203072970

            Nuclear Dipole moment (a.u.) 
            ----------------------------
        X                 Y               Z
 ---------------- ---------------- ----------------
     0.0000000000    -0.0000000000     0.0000000000
 
      Symmetry information
      --------------------
 
 Group name             Cs        
 Group number              2
 Group order               2
 No. of unique centers     9
 
      Symmetry unique atoms
 
     1    2    3    4    5    6    7    8    9
 


                                Z-matrix (user)
                                -------- 

 Units are Angstrom for bonds and degrees for angles

  Constants are marked with an asterisk (*).

  Constrained variables are marked with a plus sign (+).

 
      Type          Name      I     J     K     L     M      Value
      ----------- --------  ----- ----- ----- ----- ----- ----------
    1 Stretch      R1          2     1                       1.32900
    2 Stretch      R2          3     2                       1.36300
    3 Bend         A1          3     2     1               124.50000
    4 Stretch      R5          4     1                       0.99400
    5 Bend         A4          4     1     2               105.40000
    6*Torsion      D0          4     1     2     3           0.00000
    7 Stretch      R6          5     2                       1.08500
    8 Bend         A5          5     2     3               122.50000
    9*Torsion      D180        5     2     3     4         180.00000
   10 Stretch      R7          6     3                       1.47800
   11 Bend         A6          6     3     2               120.00000
   12*Torsion      D180        6     3     2     1         180.00000
   13 Stretch      R8          7     3                       1.09900
   14 Bend         A7          7     3     2               117.60000
   15*Torsion      D0          7     3     2     1           0.00000
   16 Stretch      R9          8     6                       1.25000
   17 Bend         A8          8     6     3               120.00000
   18*Torsion      D180        8     6     3     2         180.00000
   19 Stretch      R10         9     6                       1.00000
   20 Bend         A9          9     6     3               120.00000
   21*Torsion      D0          9     6     3     2           0.00000
 
 
            XYZ format geometry
            -------------------
     9
 geometry
 O                     0.15487113     2.33774575     0.00000000
 C                    -0.39274908     1.12681507     0.00000000
 C                     0.31263079    -0.03946459     0.00000000
 H                     1.13681194     2.18338176     0.00000000
 H                    -1.47745503     1.15207357     0.00000000
 C                    -0.40016846    -1.33422372     0.00000000
 H                     1.40950286     0.02889226     0.00000000
 O                     0.24673163    -2.40381255     0.00000000
 H                    -1.39996138    -1.35457373     0.00000000
 
 ==============================================================================
                                internuclear distances
 ------------------------------------------------------------------------------
       center one      |      center two      | atomic units |  angstroms
 ------------------------------------------------------------------------------
    2 C                |   1 O                |     2.51145  |     1.32900
    3 C                |   2 C                |     2.57570  |     1.36300
    4 H                |   1 O                |     1.87839  |     0.99400
    5 H                |   2 C                |     2.05035  |     1.08500
    6 C                |   3 C                |     2.79302  |     1.47800
    7 H                |   3 C                |     2.07681  |     1.09900
    8 O                |   6 C                |     2.36216  |     1.25000
    9 H                |   6 C                |     1.88973  |     1.00000
 ------------------------------------------------------------------------------
                         number of included internuclear distances:          8
 ==============================================================================



 ==============================================================================
                                 internuclear angles
 ------------------------------------------------------------------------------
        center 1       |       center 2       |       center 3       |  degrees
 ------------------------------------------------------------------------------
    2 C                |   1 O                |   4 H                |   105.40
    1 O                |   2 C                |   3 C                |   124.50
    1 O                |   2 C                |   5 H                |   113.00
    3 C                |   2 C                |   5 H                |   122.50
    2 C                |   3 C                |   6 C                |   120.00
    2 C                |   3 C                |   7 H                |   117.60
    6 C                |   3 C                |   7 H                |   122.40
    3 C                |   6 C                |   8 O                |   120.00
    3 C                |   6 C                |   9 H                |   120.00
    8 O                |   6 C                |   9 H                |   120.00
 ------------------------------------------------------------------------------
                            number of included internuclear angles:         10
 ==============================================================================





 Summary of "ao basis" -> "" (spherical)
 ------------------------------------------------------------------------------
       Tag                 Description            Shells   Functions and Types
 ---------------- ------------------------------  ------  ---------------------
 *                        aug-cc-pVDZ                 on all atoms 


 
  Deleted DRIVER restart files 
 
 
 
                           NWChem Geometry Optimization
                           ----------------------------
 
 
 
 
                                H,CHO,H Reference 1
 
 
 maximum gradient threshold         (gmax) =   0.000015
 rms gradient threshold             (grms) =   0.000010
 maximum cartesian step threshold   (xmax) =   0.000060
 rms cartesian step threshold       (xrms) =   0.000040
 fixed trust radius                (trust) =   0.300000
 maximum step size to saddle      (sadstp) =   0.100000
 energy precision                  (eprec) =   1.0D-07
 maximum number of steps          (nptopt) =   99
 initial hessian option           (inhess) =    0
 line search option               (linopt) =    1
 hessian update option            (modupd) =    1
 saddle point option              (modsad) =    0
 initial eigen-mode to follow     (moddir) =    0
 initial variable to follow       (vardir) =    0
 follow first negative mode     (firstneg) =    T
 apply conjugacy                    (opcg) =    F
 source of zmatrix                         =   user    


          -------------------
          Energy Minimization
          -------------------

 
 Names of Z-matrix variables 
    1 R1           2 R2           3 A1           4 R5           5 A4      
    6 D0           7 R6           8 A5           9 D180        10 R7      
   11 A6          12 D180        13 R8          14 A7          15 D0      
   16 R9          17 A8          18 D180        19 R10         20 A9      
   21 D0      
 
 Variables with the same non-blank name are constrained to be equal
 
     variables named       D0 =     6   15   21 
     variables named     D180 =     9   12   18 

 Number of frozen variables =    6
           Frozen variables =    6    9   12   15   18   21
 
 Using diagonal initial Hessian 
 Scaling for Hessian diagonals: bonds = 1.00  angles = 0.25  torsions = 0.10

          --------
          Step   0
          --------
 
 
                         Geometry "geometry" -> "geometry"
                         ---------------------------------
 
 Output coordinates in angstroms (scale by  1.889725989 to convert to a.u.)
 
  No.       Tag          Charge          X              Y              Z
 ---- ---------------- ---------- -------------- -------------- --------------
    1 O                    8.0000     0.15487113     2.33774575     0.00000000
    2 C                    6.0000    -0.39274908     1.12681507     0.00000000
    3 C                    6.0000     0.31263079    -0.03946459     0.00000000
    4 H                    1.0000     1.13681194     2.18338176     0.00000000
    5 H                    1.0000    -1.47745503     1.15207357     0.00000000
    6 C                    6.0000    -0.40016846    -1.33422372     0.00000000
    7 H                    1.0000     1.40950286     0.02889226     0.00000000
    8 O                    8.0000     0.24673163    -2.40381255     0.00000000
    9 H                    1.0000    -1.39996138    -1.35457373     0.00000000
 
      Atomic Mass 
      ----------- 
 
      O                 15.994910
      C                 12.000000
      H                  1.007825
 

 Effective nuclear repulsion energy (a.u.)     153.4203072970

            Nuclear Dipole moment (a.u.) 
            ----------------------------
        X                 Y               Z
 ---------------- ---------------- ----------------
     0.0000000000    -0.0000000000     0.0000000000
 
      Symmetry information
      --------------------
 
 Group name             Cs        
 Group number              2
 Group order               2
 No. of unique centers     9
 
      Symmetry unique atoms
 
     1    2    3    4    5    6    7    8    9
 
                      Basis "ao basis" -> "ao basis" (spherical)
                      -----
  O (Oxygen)
  ----------
            Exponent  Coefficients 
       -------------- ---------------------------------------------------------
  1 S  1.17200000E+04  0.000710
  1 S  1.75900000E+03  0.005470
  1 S  4.00800000E+02  0.027837
  1 S  1.13700000E+02  0.104800
  1 S  3.70300000E+01  0.283062
  1 S  1.32700000E+01  0.448719
  1 S  5.02500000E+00  0.270952
  1 S  1.01300000E+00  0.015458
 
  2 S  1.17200000E+04 -0.000160
  2 S  1.75900000E+03 -0.001263
  2 S  4.00800000E+02 -0.006267
  2 S  1.13700000E+02 -0.025716
  2 S  3.70300000E+01 -0.070924
  2 S  1.32700000E+01 -0.165411
  2 S  5.02500000E+00 -0.116955
  2 S  1.01300000E+00  0.557368
 
  3 S  3.02300000E-01  1.000000
 
  4 S  7.89600000E-02  1.000000
 
  5 P  1.77000000E+01  0.043018
  5 P  3.85400000E+00  0.228913
  5 P  1.04600000E+00  0.508728
 
  6 P  2.75300000E-01  1.000000
 
  7 P  6.85600000E-02  1.000000
 
  8 D  1.18500000E+00  1.000000
 
  9 D  3.32000000E-01  1.000000
 
  C (Carbon)
  ----------
            Exponent  Coefficients 
       -------------- ---------------------------------------------------------
  1 S  6.66500000E+03  0.000692
  1 S  1.00000000E+03  0.005329
  1 S  2.28000000E+02  0.027077
  1 S  6.47100000E+01  0.101718
  1 S  2.10600000E+01  0.274740
  1 S  7.49500000E+00  0.448564
  1 S  2.79700000E+00  0.285074
  1 S  5.21500000E-01  0.015204
 
  2 S  6.66500000E+03 -0.000146
  2 S  1.00000000E+03 -0.001154
  2 S  2.28000000E+02 -0.005725
  2 S  6.47100000E+01 -0.023312
  2 S  2.10600000E+01 -0.063955
  2 S  7.49500000E+00 -0.149981
  2 S  2.79700000E+00 -0.127262
  2 S  5.21500000E-01  0.544529
 
  3 S  1.59600000E-01  1.000000
 
  4 S  4.69000000E-02  1.000000
 
  5 P  9.43900000E+00  0.038109
  5 P  2.00200000E+00  0.209480
  5 P  5.45600000E-01  0.508557
 
  6 P  1.51700000E-01  1.000000
 
  7 P  4.04100000E-02  1.000000
 
  8 D  5.50000000E-01  1.000000
 
  9 D  1.51000000E-01  1.000000
 
  H (Hydrogen)
  ------------
            Exponent  Coefficients 
       -------------- ---------------------------------------------------------
  1 S  1.30100000E+01  0.019685
  1 S  1.96200000E+00  0.137977
  1 S  4.44600000E-01  0.478148
 
  2 S  1.22000000E-01  1.000000
 
  3 S  2.97400000E-02  1.000000
 
  4 P  7.27000000E-01  1.000000
 
  5 P  1.41000000E-01  1.000000
 


 Summary of "ao basis" -> "ao basis" (spherical)
 ------------------------------------------------------------------------------
       Tag                 Description            Shells   Functions and Types
 ---------------- ------------------------------  ------  ---------------------
 O                        aug-cc-pVDZ                9       23   4s3p2d
 C                        aug-cc-pVDZ                9       23   4s3p2d
 H                        aug-cc-pVDZ                5        9   3s2p


                                 NWChem SCF Module
                                 -----------------
 
 
                                H,CHO,H Reference 1
 
 

  ao basis        = "ao basis"
  functions       =   151
  atoms           =     9
  closed shells   =    19
  open shells     =     0
  charge          =   0.00
  wavefunction    = RHF 
  input vectors   = atomic
  output vectors  = ./8tR1.movecs
  use symmetry    = T
  symmetry adapt  = T


 Summary of "ao basis" -> "ao basis" (spherical)
 ------------------------------------------------------------------------------
       Tag                 Description            Shells   Functions and Types
 ---------------- ------------------------------  ------  ---------------------
 O                        aug-cc-pVDZ                9       23   4s3p2d
 C                        aug-cc-pVDZ                9       23   4s3p2d
 H                        aug-cc-pVDZ                5        9   3s2p


      Symmetry analysis of basis
      --------------------------
 
        a'        108
        a"         43
 

int_init: setting std/high accuracies to  1.0D-16  1.0D-32

 Forming initial guess at       0.7s


 Forcing the number of linearly dependent vectors to be  0
 
      Superposition of Atomic Density Guess
      -------------------------------------
 
 Sum of atomic energies:        -264.53203373
 
      Non-variational initial energy
      ------------------------------

 Total energy =    -266.996870
 1-e energy   =    -663.239438
 2-e energy   =     242.822260
 HOMO         =      -0.303191
 LUMO         =      -0.056664
 
 
      Symmetry analysis of molecular orbitals - initial
      -------------------------------------------------
 
  Numbering of irreducible representations: 
 
     1 a'          2 a"      
 
  Orbital symmetries:
 
     1 a'          2 a'          3 a'          4 a'          5 a'      
     6 a'          7 a'          8 a'          9 a'         10 a'      
    11 a'         12 a'         13 a'         14 a"         15 a"      
    16 a'         17 a'         18 a'         19 a"         20 a"      
    21 a'         22 a'         23 a'         24 a"         25 a'      
    26 a'         27 a'         28 a"         29 a'      
 

 Starting SCF solution at       1.6s



 ----------------------------------------------
         Quadratically convergent ROHF

 Convergence threshold     :          1.000E-09
 Maximum no. of iterations :           99
 Final Fock-matrix accuracy:          1.000E-15
 ----------------------------------------------

 Warning: symmetry breaking in RHF:   2.892017681778122E-014

              iter       energy          gnorm     gmax       time
             ----- ------------------- --------- --------- --------
                 1     -265.5110109248  1.44D+00  2.86D-01      2.0
 Warning: symmetry breaking in RHF:   4.477173546762292E-014
 Warning: symmetry breaking in RHF:   3.493891586004842E-014
                 2     -265.6289337499  4.83D-01  8.00D-02      4.0
 Warning: symmetry breaking in RHF:   3.887384365570299E-014
                 3     -265.6521164982  1.89D-02  4.72D-03      7.4
 Warning: symmetry breaking in RHF:   3.818372783234450E-014
                 4     -265.6521944547  1.89D-04  2.94D-05     12.4
 Warning: symmetry breaking in RHF:   3.818076358157190E-014
                 5     -265.6521944591  1.99D-08  3.13D-09     21.1
 Warning: symmetry breaking in RHF:   3.839473511800110E-014
                 6     -265.6521944591  6.95D-11  1.70D-11     26.9


       Final RHF  results 
       ------------------ 

         Total SCF energy =   -265.652194459073
      One-electron energy =   -666.205742361023
      Two-electron energy =    247.133240604932
 Nuclear repulsion energy =    153.420307297017

        Time for solution =     25.8s


 
       Symmetry analysis of molecular orbitals - final
       -----------------------------------------------
 
  Numbering of irreducible representations: 
 
     1 a'          2 a"      
 
  Orbital symmetries:
 
     1 a'          2 a'          3 a'          4 a'          5 a'      
     6 a'          7 a'          8 a'          9 a'         10 a'      
    11 a'         12 a'         13 a'         14 a"         15 a'      
    16 a'         17 a"         18 a'         19 a"         20 a'      
    21 a'         22 a'         23 a'         24 a"         25 a"      
    26 a'         27 a'         28 a"         29 a'      
 
             Final eigenvalues
             -----------------

              1      
    1  -20.6460
    2  -20.5541
    3  -11.3554
    4  -11.3390
    5  -11.2560
    6   -1.4586
    7   -1.3631
    8   -1.0747
    9   -0.8977
   10   -0.8415
   11   -0.7355
   12   -0.7040
   13   -0.6289
   14   -0.6229
   15   -0.6041
   16   -0.5684
   17   -0.5206
   18   -0.4316
   19   -0.3674
   20    0.0280
   21    0.0352
   22    0.0528
   23    0.0672
   24    0.0867
   25    0.0914
   26    0.1083
   27    0.1188
   28    0.1223
   29    0.1299
 
                       ROHF Final Molecular Orbital Analysis
                       -------------------------------------
 
 Vector    6  Occ=2.000000D+00  E=-1.458640D+00  Symmetry=a'
              MO Center=  1.7D-01,  2.1D+00, -2.2D-17, r^2= 5.7D-01
   Bfn.  Coefficient  Atom+Function         Bfn.  Coefficient  Atom+Function  
  ----- ------------  ---------------      ----- ------------  ---------------
     3      0.476475  1 O  s                  2      0.415179  1 O  s          
    27     -0.224223  2 C  s                 32     -0.190658  2 C  py         
    49     -0.172487  3 C  s                 70      0.172905  4 H  s          
 
 Vector    7  Occ=2.000000D+00  E=-1.363126D+00  Symmetry=a'
              MO Center=  6.9D-02, -2.1D+00, -3.5D-17, r^2= 5.7D-01
   Bfn.  Coefficient  Atom+Function         Bfn.  Coefficient  Atom+Function  
  ----- ------------  ---------------      ----- ------------  ---------------
   122      0.456647  8 O  s                121      0.397335  8 O  s          
    89      0.216396  6 C  s                 90      0.201794  6 C  s          
    55      0.186623  3 C  py                26     -0.151162  2 C  s          
 
 Vector    8  Occ=2.000000D+00  E=-1.074744D+00  Symmetry=a'
              MO Center= -5.2D-02,  2.5D-01, -3.0D-31, r^2= 1.6D+00
   Bfn.  Coefficient  Atom+Function         Bfn.  Coefficient  Atom+Function  
  ----- ------------  ---------------      ----- ------------  ---------------
    48      0.297646  3 C  s                 50     -0.254137  3 C  s          
    25      0.239360  2 C  s                 49      0.211328  3 C  s          
   112      0.162980  7 H  s          
 
 Vector    9  Occ=2.000000D+00  E=-8.976716D-01  Symmetry=a'
              MO Center= -2.1D-01,  5.4D-01, -4.2D-35, r^2= 3.6D+00
   Bfn.  Coefficient  Atom+Function         Bfn.  Coefficient  Atom+Function  
  ----- ------------  ---------------      ----- ------------  ---------------
    25     -0.246452  2 C  s                 26     -0.231693  2 C  s          
     5      0.224406  1 O  px                89      0.212999  6 C  s          
    70      0.191715  4 H  s                 79     -0.172628  5 H  s          
   122     -0.161250  8 O  s                143      0.160987  9 H  s          
     6      0.155102  1 O  py         
 
 Vector   10  Occ=2.000000D+00  E=-8.414811D-01  Symmetry=a'
              MO Center= -2.4D-01, -4.8D-02, -1.8D-18, r^2= 3.5D+00
   Bfn.  Coefficient  Atom+Function         Bfn.  Coefficient  Atom+Function  
  ----- ------------  ---------------      ----- ------------  ---------------
   143      0.260906  9 H  s                144      0.238314  9 H  s          
    89      0.216569  6 C  s                  5     -0.212021  1 O  px         
    92     -0.174424  6 C  px                28     -0.158857  2 C  px         
    70     -0.154237  4 H  s                111     -0.154706  7 H  s          
    29      0.152308  2 C  py         
 
 Vector   11  Occ=2.000000D+00  E=-7.355483D-01  Symmetry=a'
              MO Center=  3.4D-02,  5.0D-02, -3.0D-17, r^2= 3.5D+00
   Bfn.  Coefficient  Atom+Function         Bfn.  Coefficient  Atom+Function  
  ----- ------------  ---------------      ----- ------------  ---------------
     5      0.271685  1 O  px                92     -0.262328  6 C  px         
    50      0.260721  3 C  s                 52      0.239988  3 C  py         
    55      0.192544  3 C  py                70      0.192964  4 H  s          
   143      0.189322  9 H  s                144      0.188908  9 H  s          
    27     -0.187253  2 C  s                 29     -0.181664  2 C  py         
 
 Vector   12  Occ=2.000000D+00  E=-7.040083D-01  Symmetry=a'
              MO Center= -2.3D-01,  1.1D+00, -9.4D-18, r^2= 3.0D+00
   Bfn.  Coefficient  Atom+Function         Bfn.  Coefficient  Atom+Function  
  ----- ------------  ---------------      ----- ------------  ---------------
     6      0.353166  1 O  py                28     -0.291868  2 C  px         
    79      0.239888  5 H  s                 80      0.235237  5 H  s          
     9      0.216510  1 O  py                29     -0.206471  2 C  py         
    51     -0.150361  3 C  px         
 
 Vector   13  Occ=2.000000D+00  E=-6.288867D-01  Symmetry=a'
              MO Center=  9.0D-02, -5.6D-01, -5.1D-34, r^2= 5.3D+00
   Bfn.  Coefficient  Atom+Function         Bfn.  Coefficient  Atom+Function  
  ----- ------------  ---------------      ----- ------------  ---------------
   125      0.364483  8 O  py                90      0.295116  6 C  s          
    92      0.259795  6 C  px                 5      0.215678  1 O  px         
     6     -0.213047  1 O  py               122     -0.201967  8 O  s          
   128      0.193832  8 O  py                70      0.165405  4 H  s          
    49     -0.158279  3 C  s                  9     -0.157261  1 O  py         
 
 Vector   14  Occ=2.000000D+00  E=-6.229216D-01  Symmetry=a"
              MO Center=  8.2D-02,  2.0D+00, -4.3D-17, r^2= 1.2D+00
   Bfn.  Coefficient  Atom+Function         Bfn.  Coefficient  Atom+Function  
  ----- ------------  ---------------      ----- ------------  ---------------
     7      0.548274  1 O  pz                10      0.402622  1 O  pz         
    30      0.228320  2 C  pz         
 
 Vector   15  Occ=2.000000D+00  E=-6.041102D-01  Symmetry=a'
              MO Center=  2.4D-01, -5.6D-01, -5.0D-17, r^2= 4.0D+00
   Bfn.  Coefficient  Atom+Function         Bfn.  Coefficient  Atom+Function  
  ----- ------------  ---------------      ----- ------------  ---------------
    93      0.326485  6 C  py               124      0.294741  8 O  px         
     6     -0.256329  1 O  py                50      0.220490  3 C  s          
    51     -0.210583  3 C  px               111     -0.210583  7 H  s          
   125     -0.184139  8 O  py               127      0.181554  8 O  px         
     9     -0.171555  1 O  py                52     -0.165076  3 C  py         
 
 Vector   16  Occ=2.000000D+00  E=-5.684299D-01  Symmetry=a'
              MO Center=  2.5D-02,  6.4D-01, -1.0D-31, r^2= 3.0D+00
   Bfn.  Coefficient  Atom+Function         Bfn.  Coefficient  Atom+Function  
  ----- ------------  ---------------      ----- ------------  ---------------
   112      0.308952  7 H  s                 51      0.276734  3 C  px         
    28     -0.267818  2 C  px                79      0.251794  5 H  s          
   111      0.246646  7 H  s                 80      0.215922  5 H  s          
    29      0.194127  2 C  py                 5      0.184893  1 O  px         
    70      0.168275  4 H  s                 90     -0.166479  6 C  s          
 
 Vector   17  Occ=2.000000D+00  E=-5.205546D-01  Symmetry=a"
              MO Center=  3.1D-02, -1.7D+00, -2.0D-16, r^2= 2.0D+00
   Bfn.  Coefficient  Atom+Function         Bfn.  Coefficient  Atom+Function  
  ----- ------------  ---------------      ----- ------------  ---------------
   126      0.435742  8 O  pz               129      0.325535  8 O  pz         
    94      0.321943  6 C  pz                97      0.164094  6 C  pz         
 
 Vector   18  Occ=2.000000D+00  E=-4.315677D-01  Symmetry=a'
              MO Center=  6.2D-02, -1.9D+00,  1.4D-17, r^2= 1.7D+00
   Bfn.  Coefficient  Atom+Function         Bfn.  Coefficient  Atom+Function  
  ----- ------------  ---------------      ----- ------------  ---------------
   124      0.483977  8 O  px               127      0.361655  8 O  px         
   125      0.303020  8 O  py                50      0.242014  3 C  s          
   128      0.242405  8 O  py                95     -0.199000  6 C  px         
   143      0.195997  9 H  s                 90     -0.193280  6 C  s          
    52      0.190132  3 C  py                96     -0.166025  6 C  py         
 
 Vector   19  Occ=2.000000D+00  E=-3.673859D-01  Symmetry=a"
              MO Center=  8.0D-02,  1.3D-01, -3.0D-16, r^2= 2.9D+00
   Bfn.  Coefficient  Atom+Function         Bfn.  Coefficient  Atom+Function  
  ----- ------------  ---------------      ----- ------------  ---------------
    53      0.383500  3 C  pz                56      0.288242  3 C  pz         
    30      0.275830  2 C  pz                 7     -0.253323  1 O  pz         
   126     -0.250156  8 O  pz                10     -0.203550  1 O  pz         
   129     -0.190995  8 O  pz                33      0.184620  2 C  pz         
 
 Vector   20  Occ=0.000000D+00  E= 2.800292D-02  Symmetry=a'
              MO Center=  1.9D+00,  2.3D+00, -5.4D-16, r^2= 1.4D+01
   Bfn.  Coefficient  Atom+Function         Bfn.  Coefficient  Atom+Function  
  ----- ------------  ---------------      ----- ------------  ---------------
    91     -6.241295  6 C  s                 50      6.068091  3 C  s          
    27     -5.263997  2 C  s                 57     -2.764991  3 C  px         
   113      2.260129  7 H  s                 72      1.891159  4 H  s          
    99     -1.352799  6 C  py                58     -1.320971  3 C  py         
     4      1.095120  1 O  s                 81      1.033181  5 H  s          
 
 Vector   21  Occ=0.000000D+00  E= 3.516657D-02  Symmetry=a'
              MO Center= -2.2D+00,  6.3D-01, -7.6D-17, r^2= 1.7D+01
   Bfn.  Coefficient  Atom+Function         Bfn.  Coefficient  Atom+Function  
  ----- ------------  ---------------      ----- ------------  ---------------
    50      3.853252  3 C  s                 81     -3.663369  5 H  s          
    34     -2.339834  2 C  px                27     -1.971652  2 C  s          
   113      1.699284  7 H  s                145     -1.410452  9 H  s          
    91      0.979678  6 C  s                 80     -0.969858  5 H  s          
    58      0.955766  3 C  py                72      0.873683  4 H  s          
 
 Vector   22  Occ=0.000000D+00  E= 5.284581D-02  Symmetry=a'
              MO Center= -1.1D+00, -4.9D-01, -1.1D-16, r^2= 2.6D+01
   Bfn.  Coefficient  Atom+Function         Bfn.  Coefficient  Atom+Function  
  ----- ------------  ---------------      ----- ------------  ---------------
    27      8.784769  2 C  s                145     -5.912552  9 H  s          
    58     -5.548525  3 C  py                81      5.554661  5 H  s          
    50     -4.532811  3 C  s                113     -3.746361  7 H  s          
    34      3.406454  2 C  px                98     -2.931519  6 C  px         
    35     -2.594841  2 C  py                57      2.529992  3 C  px         
 
 Vector   23  Occ=0.000000D+00  E= 6.720513D-02  Symmetry=a'
              MO Center=  8.9D-01,  6.6D-01, -1.6D-17, r^2= 2.6D+01
   Bfn.  Coefficient  Atom+Function         Bfn.  Coefficient  Atom+Function  
  ----- ------------  ---------------      ----- ------------  ---------------
   113      6.353733  7 H  s                145     -4.795554  9 H  s          
    72     -3.832031  4 H  s                 81      3.794750  5 H  s          
    57     -3.685732  3 C  px                50      3.512119  3 C  s          
    27     -3.363840  2 C  s                 91     -2.805537  6 C  s          
    34      2.112241  2 C  px                98     -1.991103  6 C  px         
 
 Vector   24  Occ=0.000000D+00  E= 8.669779D-02  Symmetry=a"
              MO Center= -4.3D-01,  2.4D-01, -7.3D-16, r^2= 6.1D+00
   Bfn.  Coefficient  Atom+Function         Bfn.  Coefficient  Atom+Function  
  ----- ------------  ---------------      ----- ------------  ---------------
    36      1.516811  2 C  pz                59     -1.098446  3 C  pz         
    13     -0.450298  1 O  pz                33      0.396110  2 C  pz         
    30      0.324398  2 C  pz               132      0.310156  8 O  pz         
    97     -0.266158  6 C  pz                94     -0.243117  6 C  pz         
   126      0.231305  8 O  pz               129      0.215897  8 O  pz         
 
 Vector   25  Occ=0.000000D+00  E= 9.140906D-02  Symmetry=a"
              MO Center= -1.3D+00, -3.0D-01, -5.9D-15, r^2= 1.0D+01
   Bfn.  Coefficient  Atom+Function         Bfn.  Coefficient  Atom+Function  
  ----- ------------  ---------------      ----- ------------  ---------------
   100      1.480540  6 C  pz                36      1.462090  2 C  pz         
    59     -1.417730  3 C  pz               132     -0.439258  8 O  pz         
    13     -0.305833  1 O  pz         
 
 Vector   26  Occ=0.000000D+00  E= 1.083226D-01  Symmetry=a'
              MO Center= -3.9D-01, -3.6D-01, -1.3D-15, r^2= 2.0D+01
   Bfn.  Coefficient  Atom+Function         Bfn.  Coefficient  Atom+Function  
  ----- ------------  ---------------      ----- ------------  ---------------
    50     18.701903  3 C  s                 91    -11.226414  6 C  s          
    27     -6.742350  2 C  s                 57     -6.010698  3 C  px         
    35      4.415349  2 C  py                99     -3.826246  6 C  py         
   113      3.333541  7 H  s                 58     -2.872921  3 C  py         
   145     -1.197313  9 H  s                 98     -1.144859  6 C  px         
 
 Vector   27  Occ=0.000000D+00  E= 1.187938D-01  Symmetry=a'
              MO Center=  3.4D-01,  7.3D-01,  3.7D-15, r^2= 1.7D+01
   Bfn.  Coefficient  Atom+Function         Bfn.  Coefficient  Atom+Function  
  ----- ------------  ---------------      ----- ------------  ---------------
    50     24.701579  3 C  s                 27    -16.334417  2 C  s          
    91    -11.980671  6 C  s                 34     -6.362759  2 C  px         
     4      6.036850  1 O  s                 99     -3.870167  6 C  py         
    98     -3.571706  6 C  px               113      3.531351  7 H  s          
    57     -3.205147  3 C  px               145     -2.802601  9 H  s          
 
 Vector   28  Occ=0.000000D+00  E= 1.222798D-01  Symmetry=a"
              MO Center=  7.4D-01,  2.0D-01,  6.6D-16, r^2= 1.1D+01
   Bfn.  Coefficient  Atom+Function         Bfn.  Coefficient  Atom+Function  
  ----- ------------  ---------------      ----- ------------  ---------------
    59      2.331162  3 C  pz               100     -1.750009  6 C  pz         
   132      0.389200  8 O  pz                33     -0.253715  2 C  pz         
    36     -0.180562  2 C  pz                97     -0.150967  6 C  pz         
 
 Vector   29  Occ=0.000000D+00  E= 1.299347D-01  Symmetry=a'
              MO Center=  7.4D-02,  1.6D+00,  1.9D-15, r^2= 1.9D+01
   Bfn.  Coefficient  Atom+Function         Bfn.  Coefficient  Atom+Function  
  ----- ------------  ---------------      ----- ------------  ---------------
    27     14.497557  2 C  s                 50    -11.796932  3 C  s          
    58     -9.604504  3 C  py                91     -8.553302  6 C  s          
    35     -6.902597  2 C  py                81      5.912157  5 H  s          
    34      5.396918  2 C  px               145     -3.731053  9 H  s          
    72      3.395156  4 H  s                112      2.125945  7 H  s          
 
 Vector   30  Occ=0.000000D+00  E= 1.420117D-01  Symmetry=a"
              MO Center= -2.9D-01, -6.6D-01,  5.4D-17, r^2= 1.3D+01
   Bfn.  Coefficient  Atom+Function         Bfn.  Coefficient  Atom+Function  
  ----- ------------  ---------------      ----- ------------  ---------------
    36      1.981909  2 C  pz               100     -1.324634  6 C  pz         
    59     -1.073828  3 C  pz                13     -0.341366  1 O  pz         
   132      0.336281  8 O  pz                97      0.301277  6 C  pz         
   151      0.228228  9 H  pz                94      0.223706  6 C  pz         
    33     -0.177495  2 C  pz         
 
 Vector   31  Occ=0.000000D+00  E= 1.463999D-01  Symmetry=a'
              MO Center= -4.6D-02, -4.9D-01, -1.6D-16, r^2= 2.1D+01
   Bfn.  Coefficient  Atom+Function         Bfn.  Coefficient  Atom+Function  
  ----- ------------  ---------------      ----- ------------  ---------------
    91     -9.419157  6 C  s                 50      9.129130  3 C  s          
    35      5.951566  2 C  py               113      5.590544  7 H  s          
    58     -5.328392  3 C  py                57     -5.088088  3 C  px         
    81     -3.608128  5 H  s                123      3.398009  8 O  s          
    98     -3.127004  6 C  px                99      2.404152  6 C  py         
 
 Vector   32  Occ=0.000000D+00  E= 1.553464D-01  Symmetry=a'
              MO Center= -1.0D+00,  3.1D-01,  3.3D-15, r^2= 1.7D+01
   Bfn.  Coefficient  Atom+Function         Bfn.  Coefficient  Atom+Function  
  ----- ------------  ---------------      ----- ------------  ---------------
    27     11.739982  2 C  s                 58    -11.153243  3 C  py         
    91    -10.906867  6 C  s                 34      7.118234  2 C  px         
    81      5.754500  5 H  s                 50     -5.563744  3 C  s          
    98     -3.543927  6 C  px                80      2.768784  5 H  s          
     4     -2.508790  1 O  s                 57      2.132596  3 C  px         
 
 Vector   33  Occ=0.000000D+00  E= 1.664639D-01  Symmetry=a'
              MO Center=  6.0D-01, -4.4D-01,  4.5D-16, r^2= 1.7D+01
   Bfn.  Coefficient  Atom+Function         Bfn.  Coefficient  Atom+Function  
  ----- ------------  ---------------      ----- ------------  ---------------
    27     24.000053  2 C  s                 50    -17.495257  3 C  s          
    57      8.905175  3 C  px                91      8.327228  6 C  s          
    58     -7.839189  3 C  py               113     -6.445678  7 H  s          
   123     -2.946786  8 O  s                 99      2.562197  6 C  py         
    35     -2.529695  2 C  py               145     -2.267425  9 H  s          
 
 Vector   34  Occ=0.000000D+00  E= 1.714194D-01  Symmetry=a'
              MO Center= -1.9D+00, -1.3D+00, -6.7D-16, r^2= 1.6D+01
   Bfn.  Coefficient  Atom+Function         Bfn.  Coefficient  Atom+Function  
  ----- ------------  ---------------      ----- ------------  ---------------
   145     10.747711  9 H  s                 91      8.979374  6 C  s          
    98      8.194789  6 C  px                81     -7.918882  5 H  s          
    50     -7.418202  3 C  s                 58      6.730037  3 C  py         
    34     -6.366225  2 C  px                99      6.138703  6 C  py         
    27     -5.148464  2 C  s                144      3.566251  9 H  s          
 
 Vector   35  Occ=0.000000D+00  E= 2.108058D-01  Symmetry=a'
              MO Center=  1.3D+00,  1.2D+00, -3.8D-17, r^2= 1.4D+01
   Bfn.  Coefficient  Atom+Function         Bfn.  Coefficient  Atom+Function  
  ----- ------------  ---------------      ----- ------------  ---------------
    50    -12.125463  3 C  s                 27     12.014329  2 C  s          
    58     -5.496529  3 C  py               113      4.286033  7 H  s          
    34      4.101208  2 C  px               112      3.927142  7 H  s          
    91     -3.193481  6 C  s                145     -3.202871  9 H  s          
    81      3.117297  5 H  s                 72     -2.996059  4 H  s          
 
 Vector   36  Occ=0.000000D+00  E= 2.213356D-01  Symmetry=a"
              MO Center=  2.0D-02, -7.7D-02,  2.6D-16, r^2= 9.7D+00
   Bfn.  Coefficient  Atom+Function         Bfn.  Coefficient  Atom+Function  
  ----- ------------  ---------------      ----- ------------  ---------------
    59      2.488026  3 C  pz               100     -1.288323  6 C  pz         
    36     -0.993192  2 C  pz                13     -0.616394  1 O  pz         
   132     -0.350438  8 O  pz               151      0.320686  9 H  pz         
    87      0.299636  5 H  pz                53     -0.286322  3 C  pz         
    56     -0.284751  3 C  pz                94      0.233055  6 C  pz         
 
 Vector   37  Occ=0.000000D+00  E= 2.319693D-01  Symmetry=a'
              MO Center= -3.2D-01, -1.7D-01,  1.2D-15, r^2= 1.3D+01
   Bfn.  Coefficient  Atom+Function         Bfn.  Coefficient  Atom+Function  
  ----- ------------  ---------------      ----- ------------  ---------------
    27     34.119172  2 C  s                 91    -26.387756  6 C  s          
    58    -13.380228  3 C  py                35     -7.326967  2 C  py         
    99     -6.198623  6 C  py                34      6.058264  2 C  px         
    50     -5.727589  3 C  s                 98     -5.494600  6 C  px         
     4     -5.224274  1 O  s                 81      4.144057  5 H  s          
 
 Vector   38  Occ=0.000000D+00  E= 2.540594D-01  Symmetry=a"
              MO Center= -2.2D-01,  1.9D+00, -2.6D-16, r^2= 9.8D+00
   Bfn.  Coefficient  Atom+Function         Bfn.  Coefficient  Atom+Function  
  ----- ------------  ---------------      ----- ------------  ---------------
    13      2.390504  1 O  pz                36     -2.283038  2 C  pz         
    59      0.764572  3 C  pz                43     -0.386359  2 C  d -1       
    56     -0.387481  3 C  pz               100      0.292911  6 C  pz         
    78     -0.269995  4 H  pz                97      0.242501  6 C  pz         
   119     -0.243554  7 H  pz                68     -0.210131  3 C  d  1       
 
 Vector   39  Occ=0.000000D+00  E= 2.596096D-01  Symmetry=a'
              MO Center=  4.4D-01, -1.0D+00,  5.9D-17, r^2= 1.6D+01
   Bfn.  Coefficient  Atom+Function         Bfn.  Coefficient  Atom+Function  
  ----- ------------  ---------------      ----- ------------  ---------------
    50     27.033154  3 C  s                 91    -27.064580  6 C  s          
    58     -7.029670  3 C  py                99     -5.499530  6 C  py         
   123      4.815512  8 O  s                 57     -4.764212  3 C  px         
   112     -3.727339  7 H  s                 27     -3.685940  2 C  s          
     4      3.570391  1 O  s                 98     -3.517557  6 C  px         
 
 Vector   40  Occ=0.000000D+00  E= 2.650507D-01  Symmetry=a'
              MO Center= -6.6D-02,  8.0D-01, -4.1D-16, r^2= 1.4D+01
   Bfn.  Coefficient  Atom+Function         Bfn.  Coefficient  Atom+Function  
  ----- ------------  ---------------      ----- ------------  ---------------
    50     21.594442  3 C  s                 27    -17.179270  2 C  s          
    57     -5.488842  3 C  px                91     -5.410392  6 C  s          
    58      5.148656  3 C  py               113      3.435536  7 H  s          
    12      2.455570  1 O  py                99     -2.201438  6 C  py         
    26     -2.118563  2 C  s                 35      2.066292  2 C  py         
 
 Vector   41  Occ=0.000000D+00  E= 2.836686D-01  Symmetry=a'
              MO Center=  6.0D-01,  1.2D+00,  1.6D-16, r^2= 1.2D+01
   Bfn.  Coefficient  Atom+Function         Bfn.  Coefficient  Atom+Function  
  ----- ------------  ---------------      ----- ------------  ---------------
    50     23.187114  3 C  s                 91    -21.057100  6 C  s          
    58    -10.261381  3 C  py                57     -6.680074  3 C  px         
    27     -4.808540  2 C  s                 98     -4.737967  6 C  px         
    35      4.146895  2 C  py                 4      3.618568  1 O  s          
   113      3.069782  7 H  s                 12     -3.047691  1 O  py         
 
 Vector   42  Occ=0.000000D+00  E= 3.041640D-01  Symmetry=a"
              MO Center=  2.2D-01, -1.9D+00,  1.3D-16, r^2= 1.0D+01
   Bfn.  Coefficient  Atom+Function         Bfn.  Coefficient  Atom+Function  
  ----- ------------  ---------------      ----- ------------  ---------------
   132      2.328566  8 O  pz               100     -2.013258  6 C  pz         
    36      1.056314  2 C  pz                13     -0.646124  1 O  pz         
   109      0.414977  6 C  d  1             107      0.397950  6 C  d -1       
   151     -0.320930  9 H  pz                78     -0.263340  4 H  pz         
    87      0.221547  5 H  pz               119     -0.214550  7 H  pz         
 
 Vector   43  Occ=0.000000D+00  E= 3.090569D-01  Symmetry=a'
              MO Center=  1.7D-01, -7.3D-01,  6.3D-17, r^2= 1.2D+01
   Bfn.  Coefficient  Atom+Function         Bfn.  Coefficient  Atom+Function  
  ----- ------------  ---------------      ----- ------------  ---------------
    50     38.916115  3 C  s                 27    -30.326474  2 C  s          
    91    -10.525815  6 C  s                  4      7.067478  1 O  s          
    34     -6.842680  2 C  px                35      5.565868  2 C  py         
   112     -4.723572  7 H  s                 57     -4.285872  3 C  px         
    81     -3.543540  5 H  s                 58      3.017760  3 C  py         
 
 Vector   44  Occ=0.000000D+00  E= 3.148211D-01  Symmetry=a'
              MO Center= -6.8D-01,  7.0D-01, -3.9D-16, r^2= 9.5D+00
   Bfn.  Coefficient  Atom+Function         Bfn.  Coefficient  Atom+Function  
  ----- ------------  ---------------      ----- ------------  ---------------
    50     15.730461  3 C  s                 91    -13.578244  6 C  s          
    58     -7.529802  3 C  py                27     -4.551566  2 C  s          
    49     -4.082857  3 C  s                 35      3.718789  2 C  py         
    80      3.725326  5 H  s                112     -3.627969  7 H  s          
    34      3.190839  2 C  px                57     -3.182888  3 C  px         
 
 Vector   45  Occ=0.000000D+00  E= 3.153948D-01  Symmetry=a'
              MO Center= -2.7D-01,  1.6D+00, -9.9D-19, r^2= 1.3D+01
   Bfn.  Coefficient  Atom+Function         Bfn.  Coefficient  Atom+Function  
  ----- ------------  ---------------      ----- ------------  ---------------
    27     29.779282  2 C  s                 50    -21.835433  3 C  s          
    58    -12.974844  3 C  py                91    -10.344125  6 C  s          
    35    -10.229610  2 C  py                34      9.153645  2 C  px         
    81      7.234315  5 H  s                145     -4.549766  9 H  s          
    57      4.267039  3 C  px                98     -3.974575  6 C  px         
 
 Vector   46  Occ=0.000000D+00  E= 3.627518D-01  Symmetry=a'
              MO Center= -6.7D-01, -5.4D-01,  8.6D-17, r^2= 1.1D+01
   Bfn.  Coefficient  Atom+Function         Bfn.  Coefficient  Atom+Function  
  ----- ------------  ---------------      ----- ------------  ---------------
    50      6.666014  3 C  s                 58     -5.258507  3 C  py         
    35      5.183415  2 C  py                98     -4.959052  6 C  px         
    55     -4.797684  3 C  py                27     -4.587250  2 C  s          
   144     -4.159202  9 H  s                 26      3.196817  2 C  s          
    90     -2.982927  6 C  s                 32     -2.901942  2 C  py         
 
 Vector   47  Occ=0.000000D+00  E= 3.745069D-01  Symmetry=a"
              MO Center=  1.2D-01,  3.1D-01, -8.3D-17, r^2= 8.4D+00
   Bfn.  Coefficient  Atom+Function         Bfn.  Coefficient  Atom+Function  
  ----- ------------  ---------------      ----- ------------  ---------------
   119      1.303261  7 H  pz               151      1.196719  9 H  pz         
    87      0.894742  5 H  pz                13     -0.838078  1 O  pz         
    97     -0.818893  6 C  pz                78      0.793672  4 H  pz         
    68      0.704881  3 C  d  1              36      0.655055  2 C  pz         
    59     -0.645539  3 C  pz               100     -0.643813  6 C  pz         
 
 Vector   48  Occ=0.000000D+00  E= 3.787729D-01  Symmetry=a'
              MO Center=  2.7D-02, -1.9D+00, -3.1D-17, r^2= 1.3D+01
   Bfn.  Coefficient  Atom+Function         Bfn.  Coefficient  Atom+Function  
  ----- ------------  ---------------      ----- ------------  ---------------
    50     10.115709  3 C  s                 99     -8.729348  6 C  py         
    91     -7.711666  6 C  s                145     -6.142831  9 H  s          
    35     -4.601276  2 C  py                81      4.510619  5 H  s          
    98     -4.166381  6 C  px                57     -4.054063  3 C  px         
    58      3.467574  3 C  py               131      3.205431  8 O  py         
 
 Vector   49  Occ=0.000000D+00  E= 3.967372D-01  Symmetry=a'
              MO Center= -3.7D-01,  9.8D-01, -5.2D-16, r^2= 1.1D+01
   Bfn.  Coefficient  Atom+Function         Bfn.  Coefficient  Atom+Function  
  ----- ------------  ---------------      ----- ------------  ---------------
    27    -10.287032  2 C  s                  4      9.959668  1 O  s          
    91      8.462896  6 C  s                 58      6.149881  3 C  py         
    34     -4.717369  2 C  px                98      2.566717  6 C  px         
    57      2.518116  3 C  px                69      2.482878  3 C  d  2       
   112     -2.481716  7 H  s                 35     -2.340427  2 C  py         
 
 Vector   50  Occ=0.000000D+00  E= 3.986743D-01  Symmetry=a"
              MO Center= -4.9D-01,  9.8D-01,  3.6D-17, r^2= 7.7D+00
   Bfn.  Coefficient  Atom+Function         Bfn.  Coefficient  Atom+Function  
  ----- ------------  ---------------      ----- ------------  ---------------
    36      1.869756  2 C  pz                87     -1.517665  5 H  pz         
    13     -1.371610  1 O  pz                78      0.965852  4 H  pz         
    33      0.876540  2 C  pz               132      0.795120  8 O  pz         
   100     -0.692451  6 C  pz               119     -0.676580  7 H  pz         
    59     -0.644705  3 C  pz                68     -0.457350  3 C  d  1       
 
 Vector   51  Occ=0.000000D+00  E= 4.228153D-01  Symmetry=a'
              MO Center=  4.5D-02, -8.5D-01, -1.1D-15, r^2= 1.1D+01
   Bfn.  Coefficient  Atom+Function         Bfn.  Coefficient  Atom+Function  
  ----- ------------  ---------------      ----- ------------  ---------------
    91     14.574091  6 C  s                123     -8.371573  8 O  s          
    27     -7.272800  2 C  s                 58      5.349056  3 C  py         
    34     -3.593868  2 C  px                98      3.473517  6 C  px         
    49      2.674625  3 C  s                106     -2.216719  6 C  d -2       
    81     -2.032910  5 H  s                  4      1.852973  1 O  s          
 
 Vector   52  Occ=0.000000D+00  E= 4.313930D-01  Symmetry=a'
              MO Center=  7.2D-01, -2.5D-01,  4.2D-17, r^2= 1.1D+01
   Bfn.  Coefficient  Atom+Function         Bfn.  Coefficient  Atom+Function  
  ----- ------------  ---------------      ----- ------------  ---------------
    27     29.138811  2 C  s                 50    -28.144084  3 C  s          
    91     13.961135  6 C  s                 57     11.589268  3 C  px         
     4     -7.525640  1 O  s                113     -6.978498  7 H  s          
    35     -5.016288  2 C  py               123     -4.407954  8 O  s          
   112     -4.230347  7 H  s                 58     -3.815579  3 C  py         
 
 Vector   53  Occ=0.000000D+00  E= 4.461853D-01  Symmetry=a'
              MO Center=  2.0D-02,  5.0D-01, -1.0D-16, r^2= 1.2D+01
   Bfn.  Coefficient  Atom+Function         Bfn.  Coefficient  Atom+Function  
  ----- ------------  ---------------      ----- ------------  ---------------
    27     12.105621  2 C  s                 55      9.029040  3 C  py         
     4     -7.840743  1 O  s                 26     -6.670996  2 C  s          
    32      6.176525  2 C  py                96      6.138530  6 C  py         
    90      5.674941  6 C  s                 91     -5.243461  6 C  s          
    50     -5.099141  3 C  s                123      4.564570  8 O  s          
 
 Vector   54  Occ=0.000000D+00  E= 4.577315D-01  Symmetry=a"
              MO Center=  3.6D-01,  4.0D-01, -2.0D-16, r^2= 6.4D+00
   Bfn.  Coefficient  Atom+Function         Bfn.  Coefficient  Atom+Function  
  ----- ------------  ---------------      ----- ------------  ---------------
   119      1.591586  7 H  pz                59     -1.271063  3 C  pz         
    36      0.756043  2 C  pz                43      0.723263  2 C  d -1       
    87     -0.712472  5 H  pz                78     -0.689247  4 H  pz         
   100      0.684593  6 C  pz                68      0.654932  3 C  d  1       
   107     -0.526081  6 C  d -1              33      0.349116  2 C  pz         
 
 Vector   55  Occ=0.000000D+00  E= 4.609056D-01  Symmetry=a"
              MO Center= -8.8D-01, -3.3D-01, -3.0D-16, r^2= 7.9D+00
   Bfn.  Coefficient  Atom+Function         Bfn.  Coefficient  Atom+Function  
  ----- ------------  ---------------      ----- ------------  ---------------
   151      2.022237  9 H  pz               100     -1.225014  6 C  pz         
    97     -1.189740  6 C  pz                59      1.042122  3 C  pz         
    78     -0.885688  4 H  pz                87     -0.664864  5 H  pz         
    13      0.580558  1 O  pz               109     -0.567785  6 C  d  1       
    56      0.359359  3 C  pz               132      0.298123  8 O  pz         
 
 Vector   56  Occ=0.000000D+00  E= 4.799395D-01  Symmetry=a'
              MO Center= -1.9D-01,  6.1D-01,  2.0D-16, r^2= 6.5D+00
   Bfn.  Coefficient  Atom+Function         Bfn.  Coefficient  Atom+Function  
  ----- ------------  ---------------      ----- ------------  ---------------
     4      6.981439  1 O  s                 27     -6.799591  2 C  s          
    50      3.005297  3 C  s                144      2.599494  9 H  s          
    71     -2.551478  4 H  s                 49     -1.937833  3 C  s          
    32     -1.831372  2 C  py                34     -1.781080  2 C  px         
    90     -1.548993  6 C  s                 91     -1.447960  6 C  s          
 
 Vector   57  Occ=0.000000D+00  E= 5.053727D-01  Symmetry=a'
              MO Center= -9.7D-01,  1.1D-01,  3.7D-17, r^2= 8.7D+00
   Bfn.  Coefficient  Atom+Function         Bfn.  Coefficient  Atom+Function  
  ----- ------------  ---------------      ----- ------------  ---------------
    80      9.294051  5 H  s                144      8.122984  9 H  s          
    50     -5.789357  3 C  s                 90     -4.835395  6 C  s          
    26     -4.500364  2 C  s                 91     -4.470651  6 C  s          
    34      3.819401  2 C  px                81      2.922470  5 H  s          
    31      2.900238  2 C  px                 4     -2.774799  1 O  s          
 

 center of mass
 --------------
 x =   0.00856599 y =  -0.05231198 z =   0.00000000

 moments of inertia (a.u.)
 ------------------
         801.313831888489          -0.000000000000           0.000000000000
          -0.000000000000          49.213728683301           0.000000000000
           0.000000000000           0.000000000000         850.527560571790
 
  Mulliken analysis of the total density
  --------------------------------------

    Atom       Charge   Shell Charges
 -----------   ------   -------------------------------------------------------
    1 O    8     8.67   2.00  0.83  1.01  0.14  2.82  1.77  0.06  0.02  0.02
    2 C    6     5.11   2.01  0.67  0.43 -0.09  1.90  0.18  0.06  0.15 -0.19
    3 C    6     5.60   2.01  0.64  0.38 -0.22  2.03  0.63  0.08  0.07 -0.03
    4 H    1     0.79   0.69  0.03 -0.01  0.07  0.01
    5 H    1     1.22   0.77  0.43  0.02  0.03 -0.03
    6 C    6     4.99   2.01  0.69  0.28 -0.09  1.89  0.09  0.02  0.17 -0.06
    7 H    1     1.50   0.76  0.69  0.03  0.03 -0.00
    8 O    8     8.77   2.00  0.84  1.05  0.15  2.75  1.81  0.11  0.02  0.03
    9 H    1     1.35   0.83  0.51  0.02  0.03 -0.04
 
       Multipole analysis of the density wrt the origin
       ------------------------------------------------
 
     L   x y z        total         open         nuclear
     -   - - -        -----         ----         -------
     0   0 0 0     -0.000000      0.000000     38.000000
 
     1   1 0 0     -0.276138      0.000000      0.000000
     1   0 1 0      1.451803      0.000000     -0.000000
     1   0 0 1      0.000000      0.000000      0.000000
 
     2   2 0 0    -17.332775      0.000000     37.758453
     2   1 1 0      4.000514      0.000000      4.795150
     2   1 0 1      0.000000      0.000000      0.000000
     2   0 2 0    -31.394432      0.000000    414.906356
     2   0 1 1     -0.000000      0.000000      0.000000
     2   0 0 2    -22.984783      0.000000      0.000000
 
                   NWChem MP2 Semi-direct Energy/Gradient Module
                   ---------------------------------------------
 
 
                                H,CHO,H Reference 1
 
 

int_init: setting std/high accuracies to  1.0D-16  1.0D-32
  Basis functions       =    151
  Molecular orbitals    =    151
  Frozen core           =      5
  Frozen virtuals       =      0
  Active alpha occupied =     14
  Active beta occupied  =     14
  Active alpha virtual  =    132
  Active beta virtual   =    132
  Use MO symmetry       = T
  Use skeleton AO sym   = T

  AO/Fock/Back tols     =   1.0D-15  1.0D-15  1.0D-15

 GA uses MA = F    GA memory limited = T

 Available: 
  local mem=  3.77D+08
 global mem=  1.23D+08
 local disk=  0.00D+00

int_init: setting std/high accuracies to  1.0D-16  1.0D-32
  mp2_memr nvloc                     12
  nvloc new                     12
   1 passes of  14:        5242880                     153958                   8347676.
   1 passes of  14: M    376557457           G      122962901           F     371314577.
 
 Semi-direct pass number   1 of   1  for RHF alpha+beta  at       27.9s

int_init: setting std/high accuracies to  1.0D-16  1.0D-32
  vrange nnbf                  11373
  mp2_eaftype                     24  avail_ma_in_mb                   3283
 EAF : mp2_eaftype filesize          24    3267641.
  mp2_eaf for mointskh                      24
Node 0 wrote     15.3 Mb in      0.0 s     Agg I/O rate:  4397.7 Mb/s
 Done moints_semi at       31.2s
  mp2_eaftype                     24  avail_ma_in_mb                   3259
 EAF : mp2_eaftype filesize          24    3267641.
  mp2_eaf for kh                     24
  mp2_eaftype                     10  avail_ma_in_mb                   3259
 EAF : mp2_eaftype filesize          10     620928.
  mp2_eaf for ta tb                     10
  mp2_eaf for ta                      10
  mp2_eaf for tb                      10
 Done maket at       31.3s
 Done pijab at       31.3s
 Done wijab at       31.4s
 Done lai at       31.8s

int_init: setting std/high accuracies to  1.0D-16  1.0D-32
  mp2_eaftype                     29  avail_ma_in_mb                   3238
 EAF : mp2_eaftype filesize          29    3838178.
  mp2_eaf for 2pdm                      29
 Done nonsep at       40.9s
 Done multipass loop at       40.9s


          -------------------------------------------
          SCF energy                -265.652194459073
          Correlation energy          -0.799824858993
          Singlet pairs               -0.485778328596
          Triplet pairs               -0.314046530397
          Total MP2 energy          -266.452019318067
          -------------------------------------------



          ---------------------------------------------------
                    Spin Component Scaled (SCS) MP2
          Same spin pairs                     -0.209364353598
          Same spin scaling factor             0.333333333333
          Opposite spin pairs                 -0.590460505395
          Opposite spin scaling fact.          1.200000000000
          SCS-MP2 correlation energy          -0.778340724340
          Total SCS-MP2 energy              -266.430535183413
          ---------------------------------------------------


int_init: setting std/high accuracies to  1.0D-16  1.0D-32
                                NWChem CPHF Module
                                ------------------
 
 

int_init: setting std/high accuracies to  1.0D-16  1.0D-32
    scftype = RHF 
    nclosed =   19
      nopen =    0
  variables =     2508
  tolerance =   1.0D-06
  max. iter =  999

 Warning: symmetry breaking in RHF:   3.607400934963854E-014
 SCF residual:   6.916616446677138E-011

            ----- linear solve (tol: 1.0E-06 prod-acc: 3.6E-14) -----

               iter nbas    rnorm     rnorm-scal   ratio     time
               ---- ---- ----------- ----------- --------- -------
                  1    1  7.1066E-02  3.9624E-01    0.0000    42.7
                  2    2  1.9153E-02  1.0679E-01    0.2695    43.6
                  3    3  6.5354E-03  3.6439E-02    0.3412    44.5
                  4    4  2.3314E-03  1.2999E-02    0.3567    45.4
                  5    5  8.9599E-04  4.9957E-03    0.3843    46.3
                  6    6  3.0473E-04  1.6990E-03    0.3401    47.2
                  7    7  1.2971E-04  7.2319E-04    0.4256    48.1
                  8    8  5.1705E-05  2.8829E-04    0.3986    49.0
                  9    9  1.3504E-05  7.5293E-05    0.2612    49.9
                 10   10  3.2631E-06  1.8194E-05    0.2416    50.7
                 11   11  1.0141E-06  5.6543E-06    0.3108    51.6
                 12   12  3.1586E-07  1.7611E-06    0.3115    52.4
                 13   13  8.7855E-08  4.8984E-07    0.2781    53.2

 CPHF converged to   4.9D-07 in   13 iters


int_init: setting std/high accuracies to  1.0D-16  1.0D-32
                Dipole Moments (a.u.)
                --------------
         Nuclear       SCF       SCF+MP2
       ----------- ----------- -----------
 X       0.000000   -0.276138   -0.120483
 Y      -0.000000    1.451803    1.268604
 Z       0.000000    0.000000    0.000000
 

 MP2 RHF      natural orbital occupation numbers


              1      
    1    2.0000
    2    2.0000
    3    2.0000
    4    2.0000
    5    2.0000
    6    1.9864
    7    1.9857
    8    1.9809
    9    1.9755
   10    1.9726
   11    1.9678
   12    1.9663
   13    1.9636
   14    1.9632
   15    1.9598
   16    1.9586
   17    1.9534
   18    1.9425
   19    1.9245
   20    0.0659
   21    0.0419
   22    0.0338
   23    0.0292
   24    0.0276
   25    0.0248
   26    0.0207
   27    0.0173
   28    0.0157
   29    0.0157
   30    0.0151
   31    0.0122
   32    0.0120
   33    0.0109
   34    0.0098
   35    0.0097
   36    0.0085
   37    0.0083
   38    0.0081
   39    0.0075
   40    0.0070
   41    0.0066
   42    0.0066
   43    0.0059
   44    0.0059
   45    0.0057
   46    0.0055
   47    0.0053
   48    0.0041
   49    0.0039
   50    0.0034
   51    0.0032
   52    0.0031
   53    0.0026
   54    0.0024
   55    0.0023
   56    0.0022
   57    0.0020
   58    0.0018
   59    0.0016
   60    0.0015
   61    0.0013
   62    0.0013
   63    0.0012
   64    0.0011
   65    0.0010
   66    0.0010
   67    0.0008
   68    0.0008
   69    0.0008
   70    0.0006
   71    0.0006
   72    0.0006
   73    0.0006
   74    0.0006
   75    0.0006
   76    0.0005
   77    0.0005
   78    0.0005
   79    0.0005
   80    0.0005
   81    0.0004
   82    0.0004
   83    0.0004
   84    0.0004
   85    0.0004
   86    0.0003
   87    0.0003
   88    0.0003
   89    0.0003
   90    0.0003
   91    0.0003
   92    0.0002
   93    0.0002
   94    0.0002
   95    0.0002
   96    0.0002
   97    0.0002
   98    0.0002
   99    0.0002
  100    0.0001
  101    0.0001
  102    0.0001
  103    0.0001
  104    0.0001
  105    0.0001
  106    0.0001
  107    0.0001
  108    0.0001
  109    0.0001
  110    0.0001
  111    0.0001
  112    0.0001
  113    0.0001
  114    0.0001
  115    0.0001
  116    0.0000
  117    0.0000
  118    0.0000
  119    0.0000
  120    0.0000
  121    0.0000
  122    0.0000
  123    0.0000
  124    0.0000
  125    0.0000
  126    0.0000
  127    0.0000
  128    0.0000
  129    0.0000
  130    0.0000
  131    0.0000
  132    0.0000
  133    0.0000
  134    0.0000
  135    0.0000
  136    0.0000
  137    0.0000
  138    0.0000
  139    0.0000
  140    0.0000
  141    0.0000
  142    0.0000
  143   -0.0000
  144   -0.0000
  145   -0.0000
  146   -0.0000
  147   -0.0000
  148   -0.0000
  149   -0.0001
  150   -0.0002
  151   -0.0003
 
  MP2 natural orbitals output to ./8tR1.mp2nos
 

int_init: setting std/high accuracies to  1.0D-16  1.0D-32
  Using symmetry

int_init: setting std/high accuracies to  1.0D-16  1.0D-32


                         mp2 ENERGY GRADIENTS

    atom               coordinates                        gradient
                 x          y          z           x          y          z
   1 O       0.292664   4.417699   0.000000   -0.030128  -0.017588   0.000000
   2 C      -0.742188   2.129372   0.000000    0.004436   0.025200   0.000000
   3 C       0.590787  -0.074577   0.000000    0.015113  -0.002330   0.000000
   4 H       2.148263   4.125993   0.000000    0.018359  -0.010211   0.000000
   5 H      -2.791985   2.177103   0.000000    0.006720  -0.000916   0.000000
   6 C      -0.756209  -2.521317   0.000000   -0.124186   0.006552   0.000000
   7 H       2.663574   0.054598   0.000000    0.002022   0.009125   0.000000
   8 O       0.466255  -4.542547   0.000000    0.012117  -0.006926   0.000000
   9 H      -2.645543  -2.559773   0.000000    0.095547  -0.002904   0.000000
 
                 ----------------------------------------
                 |  Time  |  1-e(secs)   |  2-e(secs)   |
                 ----------------------------------------
                 |  CPU   |       0.01   |       6.02   |
                 ----------------------------------------
                 |  WALL  |       0.01   |       6.04   |
                 ----------------------------------------
 -----------------------
 Performance information
 -----------------------

 Timer overhead =  3.00D-07 seconds/call

               Nr. of calls         CPU time (s)                 Wall time (s)                GFlops
             ---------------    -------------------     ------------------------------   -------------------
Name         Min   Avg   Max    Min     Avg     Max     Min     Avg     Max   Mx/calls   Min     Max     Sum
mp2: moin     1     1     1    3.1     3.1     3.1      3.3     3.3     3.3     3.3      0.0     0.0     0.0   
mp2: make     1     1     1   0.12    0.12    0.13     0.13    0.13    0.13    0.13      0.0     0.0     0.0   
mp2: pija     1     1     1   1.50E-2 1.57E-2 1.60E-2  1.59E-2 1.60E-2 1.61E-2 1.61E-2   0.0     0.0     0.0   
mp2: wija     1     1     1   1.70E-2 1.72E-2 1.80E-2  1.71E-2 1.71E-2 1.71E-2 1.71E-2   0.0     0.0     0.0   
mp2: lai      1     1     1   0.47    0.47    0.47     0.47    0.47    0.47    0.47      0.0     0.0     0.0   
mp2: back     1     1     1   0.28    0.29    0.29     0.30    0.30    0.30    0.30      0.0     0.0     0.0   
mp2: nons     1     1     1    7.8     8.3     8.7      7.8     8.3     8.7     8.7      0.0     0.0     0.0   
mp2: laif     1     1     1    1.0     1.0     1.0      1.0     1.0     1.0     1.0      0.0     0.0     0.0   
mp2: cphf     1     1     1    12.     12.     12.      13.     13.     13.     13.      0.0     0.0     0.0   
mp2: wijf     1     1     1    1.0     1.0     1.0      1.0     1.0     1.0     1.0      0.0     0.0     0.0   
mp2: sep      1     1     1    6.1     6.1     6.1      6.1     6.1     6.1     6.1      0.0     0.0     0.0   
mp2: tota     1     1     1    33.     34.     34.      34.     34.     34.     34.      0.0     0.0     0.0   

 The average no. of pstat calls per process was 1.20D+01
 with a timing overhead of 3.60D-06s


@ Step       Energy      Delta E   Gmax     Grms     Xrms     Xmax   Walltime
@ ---- ---------------- -------- -------- -------- -------- -------- --------
@    0    -266.45201932  0.0D+00  0.09547  0.02297  0.00000  0.00000     61.7
                                                                    



                                Z-matrix (user)
                                -------- 

 Units are Angstrom for bonds and degrees for angles

  Constants are marked with an asterisk (*).

  Constrained variables are marked with a plus sign (+).

 
      Type          Name      I     J     K     L     M      Value     Gradient
      ----------- --------  ----- ----- ----- ----- ----- ---------- ----------
    1 Stretch      R1          2     1                       1.32900   -0.03018
    2 Stretch      R2          3     2                       1.36300   -0.00269
    3 Bend         A1          3     2     1               124.50000   -0.00817
    4 Stretch      R5          4     1                       0.99400    0.01972
    5 Bend         A4          4     1     2               105.40000   -0.00719
    6*Torsion      D0          4     1     2     3           0.00000    0.00000
    7 Stretch      R6          5     2                       1.08500   -0.00674
    8 Bend         A5          5     2     3               122.50000   -0.00082
    9*Torsion      D180        5     2     3     4         180.00000    0.00000
   10 Stretch      R7          6     3                       1.47800    0.01084
   11 Bend         A6          6     3     2               120.00000   -0.00573
   12*Torsion      D180        6     3     2     1         180.00000    0.00000
   13 Stretch      R8          7     3                       1.09900    0.00259
   14 Bend         A7          7     3     2               117.60000   -0.00987
   15*Torsion      D0          7     3     2     1           0.00000    0.00000
   16 Stretch      R9          8     6                       1.25000    0.01220
   17 Bend         A8          8     6     3               120.00000   -0.00848
   18*Torsion      D180        8     6     3     2         180.00000    0.00000
   19 Stretch      R10         9     6                       1.00000   -0.09547
   20 Bend         A9          9     6     3               120.00000    0.00485
   21*Torsion      D0          9     6     3     2           0.00000    0.00000
 
                                 NWChem SCF Module
                                 -----------------
 
 
                                H,CHO,H Reference 1
 
 

  ao basis        = "ao basis"
  functions       =   151
  atoms           =     9
  closed shells   =    19
  open shells     =     0
  charge          =   0.00
  wavefunction    = RHF 
  input vectors   = ./8tR1.movecs
  output vectors  = ./8tR1.movecs
  use symmetry    = T
  symmetry adapt  = T


 Summary of "ao basis" -> "ao basis" (spherical)
 ------------------------------------------------------------------------------
       Tag                 Description            Shells   Functions and Types
 ---------------- ------------------------------  ------  ---------------------
 O                        aug-cc-pVDZ                9       23   4s3p2d
 C                        aug-cc-pVDZ                9       23   4s3p2d
 H                        aug-cc-pVDZ                5        9   3s2p


      Symmetry analysis of basis
      --------------------------
 
        a'        108
        a"         43
 

int_init: setting std/high accuracies to  1.0D-16  1.0D-32

 Forming initial guess at      61.8s


 Forcing the number of linearly dependent vectors to be  0

 Loading old vectors from job with title :

H,CHO,H Reference 1

 
      Symmetry analysis of molecular orbitals - initial
      -------------------------------------------------
 
  Numbering of irreducible representations: 
 
     1 a'          2 a"      
 
  Orbital symmetries:
 
     1 a'          2 a'          3 a'          4 a'          5 a'      
     6 a'          7 a'          8 a'          9 a'         10 a'      
    11 a'         12 a'         13 a'         14 a"         15 a'      
    16 a'         17 a"         18 a'         19 a"         20 a'      
    21 a'         22 a'         23 a'         24 a"         25 a"      
    26 a'         27 a'         28 a"         29 a'      
 

 Starting SCF solution at      61.9s



 ----------------------------------------------
         Quadratically convergent ROHF

 Convergence threshold     :          1.000E-09
 Maximum no. of iterations :           99
 Final Fock-matrix accuracy:          1.000E-15
 ----------------------------------------------

 Warning: symmetry breaking in RHF:   3.566113640307608E-014

              iter       energy          gnorm     gmax       time
             ----- ------------------- --------- --------- --------
                 1     -265.6526223814  3.79D-01  4.92D-02     61.3
 Warning: symmetry breaking in RHF:   3.682220934136360E-014
                 2     -265.6631684556  2.49D-02  3.71D-03     64.0
 Warning: symmetry breaking in RHF:   3.656473800435884E-014
                 3     -265.6632478657  3.95D-04  1.22D-04     68.3
 Warning: symmetry breaking in RHF:   3.655289688481303E-014
                 4     -265.6632478952  9.58D-08  2.34D-08     76.1
 Warning: symmetry breaking in RHF:   3.655289465246221E-014
                 5     -265.6632478952  8.41D-11  2.15D-11     83.2


       Final RHF  results 
       ------------------ 

         Total SCF energy =   -265.663247895219
      One-electron energy =   -662.778298296766
      Two-electron energy =    245.418450209438
 Nuclear repulsion energy =    151.696600192110

        Time for solution =     22.8s


 
       Symmetry analysis of molecular orbitals - final
       -----------------------------------------------
 
  Numbering of irreducible representations: 
 
     1 a'          2 a"      
 
  Orbital symmetries:
 
     1 a'          2 a'          3 a'          4 a'          5 a'      
     6 a'          7 a'          8 a'          9 a'         10 a'      
    11 a'         12 a'         13 a'         14 a"         15 a'      
    16 a'         17 a"         18 a'         19 a"         20 a'      
    21 a'         22 a'         23 a'         24 a"         25 a"      
    26 a'         27 a'         28 a"         29 a'      
 
             Final eigenvalues
             -----------------

              1      
    1  -20.6437
    2  -20.5600
    3  -11.3639
    4  -11.3496
    5  -11.2613
    6   -1.4463
    7   -1.3744
    8   -1.0790
    9   -0.9011
   10   -0.8169
   11   -0.7368
   12   -0.6896
   13   -0.6275
   14   -0.6143
   15   -0.6056
   16   -0.5681
   17   -0.5289
   18   -0.4286
   19   -0.3751
   20    0.0276
   21    0.0367
   22    0.0528
   23    0.0661
   24    0.0818
   25    0.0926
   26    0.1074
   27    0.1198
   28    0.1241
   29    0.1306
 
                       ROHF Final Molecular Orbital Analysis
                       -------------------------------------
 
 Vector    6  Occ=2.000000D+00  E=-1.446329D+00  Symmetry=a'
              MO Center=  1.8D-01,  2.2D+00, -3.2D-33, r^2= 5.8D-01
   Bfn.  Coefficient  Atom+Function         Bfn.  Coefficient  Atom+Function  
  ----- ------------  ---------------      ----- ------------  ---------------
     3      0.474160  1 O  s                  2      0.419543  1 O  s          
    27     -0.228397  2 C  s                 32     -0.194325  2 C  py         
    70      0.191759  4 H  s                 49     -0.169400  3 C  s          
    55     -0.159122  3 C  py                50      0.153440  3 C  s          
 
 Vector    7  Occ=2.000000D+00  E=-1.374414D+00  Symmetry=a'
              MO Center=  8.8D-02, -2.1D+00,  1.0D-31, r^2= 5.5D-01
   Bfn.  Coefficient  Atom+Function         Bfn.  Coefficient  Atom+Function  
  ----- ------------  ---------------      ----- ------------  ---------------
   122      0.452902  8 O  s                121      0.399069  8 O  s          
    90      0.255730  6 C  s                 55      0.230841  3 C  py         
    89      0.217097  6 C  s                 26     -0.181812  2 C  s          
    96      0.155131  6 C  py         
 
 Vector    8  Occ=2.000000D+00  E=-1.078999D+00  Symmetry=a'
              MO Center= -1.7D-02,  2.4D-01,  2.8D-17, r^2= 1.6D+00
   Bfn.  Coefficient  Atom+Function         Bfn.  Coefficient  Atom+Function  
  ----- ------------  ---------------      ----- ------------  ---------------
    48      0.303820  3 C  s                 50     -0.281312  3 C  s          
    25      0.244292  2 C  s                 49      0.175145  3 C  s          
    26      0.159166  2 C  s                112      0.154630  7 H  s          
    91      0.151274  6 C  s          
 
 Vector    9  Occ=2.000000D+00  E=-9.011042D-01  Symmetry=a'
              MO Center= -1.1D-01,  7.6D-01, -1.4D-32, r^2= 3.3D+00
   Bfn.  Coefficient  Atom+Function         Bfn.  Coefficient  Atom+Function  
  ----- ------------  ---------------      ----- ------------  ---------------
    26      0.285055  2 C  s                 25      0.252300  2 C  s          
     5     -0.231360  1 O  px                70     -0.212312  4 H  s          
    89     -0.182470  6 C  s                 79      0.178406  5 H  s          
    49     -0.172999  3 C  s                  6     -0.168174  1 O  py         
    52      0.157420  3 C  py                90     -0.156274  6 C  s          
 
 Vector   10  Occ=2.000000D+00  E=-8.168772D-01  Symmetry=a'
              MO Center= -1.7D-01, -1.2D-01, -3.6D-17, r^2= 3.6D+00
   Bfn.  Coefficient  Atom+Function         Bfn.  Coefficient  Atom+Function  
  ----- ------------  ---------------      ----- ------------  ---------------
    90      0.256549  6 C  s                 89      0.245107  6 C  s          
[...]
          12     0.00000     0.00000     0.05631    -0.09957     0.33872     0.00000
          13    -0.02645    -0.00149     0.00000     0.00000     0.00000    -0.13571
          14     0.08047     0.10847     0.00000     0.00000     0.00000    -0.06702
          15     0.00000     0.00000     0.28773     0.07037    -0.30844     0.00000
          16    -0.14065     0.01300     0.00000     0.00000     0.00000    -0.03046
          17     0.02845     0.11507     0.00000     0.00000     0.00000    -0.01907
          18     0.00000     0.00000     0.07073     0.15237    -0.05284     0.00000
          19    -0.08067     0.00539     0.00000     0.00000     0.00000    -0.08573
          20    -0.05656     0.12586     0.00000     0.00000     0.00000     0.05927
          21     0.00000     0.00000    -0.07809     0.01142     0.40941     0.00000
          22    -0.19254     0.01959     0.00000     0.00000     0.00000     0.01736
          23     0.00252     0.11836     0.00000     0.00000     0.00000     0.00483
          24     0.00000     0.00000    -0.03323     0.18763     0.07547     0.00000
          25    -0.13708     0.01255     0.00000     0.00000     0.00000    -0.03375
          26     0.08093     0.10841     0.00000     0.00000     0.00000    -0.06744
          27     0.00000     0.00000     0.19649     0.19413    -0.33091     0.00000

                    7           8           9          10          11          12
 
 P.Frequency      145.25      217.37      327.66      487.21      529.23      562.43
 
           1     0.00000     0.10937     0.00000    -0.01471     0.00000     0.04020
           2     0.00000    -0.01805     0.00000     0.14915     0.00000    -0.02552
           3    -0.09834     0.00000    -0.05530     0.00000    -0.09353     0.00000
           4     0.00000    -0.07629     0.00000     0.05226     0.00000    -0.11735
           5     0.00000     0.04761     0.00000     0.08136     0.00000     0.03588
           6     0.02180     0.00000     0.13408     0.00000     0.09668     0.00000
           7     0.00000    -0.15397     0.00000    -0.03366     0.00000     0.00345
           8     0.00000     0.00164     0.00000    -0.01126     0.00000     0.09725
           9     0.18778     0.00000     0.05768     0.00000    -0.01378     0.00000
          10     0.00000     0.10499     0.00000    -0.01020     0.00000     0.03510
          11     0.00000    -0.17404     0.00000     0.24642     0.00000    -0.20319
          12    -0.04482     0.00000    -0.41795     0.00000     0.81654     0.00000
          13     0.00000    -0.07677     0.00000     0.04954     0.00000    -0.11702
          14     0.00000     0.18317     0.00000     0.11029     0.00000     0.08888
          15    -0.06119     0.00000     0.30675     0.00000     0.12487     0.00000
          16     0.00000    -0.05054     0.00000     0.00168     0.00000     0.13457
          17     0.00000    -0.04850     0.00000    -0.11184     0.00000     0.00389
          18     0.07230     0.00000    -0.12519     0.00000    -0.02206     0.00000
          19     0.00000    -0.15182     0.00000    -0.02991     0.00000     0.00897
          20     0.00000     0.00284     0.00000    -0.04770     0.00000     0.37443
          21     0.24083     0.00000     0.01246     0.00000    -0.20694     0.00000
          22     0.00000     0.11276     0.00000    -0.00113     0.00000    -0.05971
          23     0.00000     0.02900     0.00000    -0.12803     0.00000    -0.10000
          24    -0.13017     0.00000     0.04036     0.00000     0.00727     0.00000
          25     0.00000    -0.05823     0.00000     0.00034     0.00000     0.13646
          26     0.00000    -0.19463     0.00000    -0.14722     0.00000     0.10048
          27     0.13547     0.00000    -0.45677     0.00000    -0.08983     0.00000

                   13          14          15          16          17          18
 
 P.Frequency      828.57      972.32     1007.76     1130.86     1168.33     1223.87
 
           1     0.00000     0.00000     0.00000     0.02843    -0.00156     0.04348
           2     0.00000     0.00000     0.00000     0.11964    -0.02849     0.08748
           3    -0.03113     0.00432    -0.00227     0.00000     0.00000     0.00000
           4     0.00000     0.00000     0.00000    -0.09936     0.02722    -0.05596
           5     0.00000     0.00000     0.00000    -0.04207     0.00063    -0.13069
           6     0.12230    -0.08212    -0.06250     0.00000     0.00000     0.00000
           7     0.00000     0.00000     0.00000     0.09635     0.09272    -0.01380
           8     0.00000     0.00000     0.00000    -0.00376     0.08758    -0.12799
           9    -0.12833    -0.05126     0.04550     0.00000     0.00000     0.00000
          10     0.00000     0.00000     0.00000     0.01915    -0.00286     0.05000
          11     0.00000     0.00000     0.00000    -0.53850     0.01255     0.26365
          12    -0.01811     0.10950     0.09317     0.00000     0.00000     0.00000
          13     0.00000     0.00000     0.00000    -0.10153     0.03074    -0.06237
          14     0.00000     0.00000     0.00000    -0.31425    -0.06260     0.12212
          15    -0.24903     0.63605     0.47891     0.00000     0.00000     0.00000
          16     0.00000     0.00000     0.00000    -0.04243    -0.14331     0.01236
          17     0.00000     0.00000     0.00000    -0.02347    -0.08130    -0.00052
          18    -0.00560     0.10252    -0.14280     0.00000     0.00000     0.00000
          19     0.00000     0.00000     0.00000     0.10202     0.10314    -0.01525
          20     0.00000     0.00000     0.00000    -0.24480     0.60733     0.47638
          21     0.71197     0.40020     0.22439     0.00000     0.00000     0.00000
          22     0.00000     0.00000     0.00000     0.00717     0.02052    -0.00040
          23     0.00000     0.00000     0.00000     0.00441     0.00060     0.03718
          24     0.00036    -0.02765     0.03354     0.00000     0.00000     0.00000
          25     0.00000     0.00000     0.00000    -0.04358    -0.15355     0.02733
          26     0.00000     0.00000     0.00000    -0.04615    -0.19692     0.24562
          27     0.18184    -0.40788     0.60987     0.00000     0.00000     0.00000

                   19          20          21          22          23          24
 
 P.Frequency     1328.01     1368.40     1423.94     1682.53     1712.54     2949.59
 
           1    -0.00005     0.05985     0.03286     0.00304     0.00186    -0.00028
           2    -0.02450    -0.00149    -0.02250    -0.03735    -0.00874     0.00082
           3     0.00000     0.00000     0.00000     0.00000     0.00000     0.00000
           4    -0.09748    -0.07296    -0.04346    -0.05841    -0.03049    -0.00056
           5     0.00265    -0.05800     0.01882     0.17496     0.07395    -0.00065
           6     0.00000     0.00000     0.00000     0.00000     0.00000     0.00000
           7     0.12464     0.00713    -0.00247     0.05455     0.02969    -0.00052
           8     0.00125     0.06283     0.05931    -0.12904    -0.10546    -0.00250
           9     0.00000     0.00000     0.00000     0.00000     0.00000     0.00000
          10    -0.00029     0.06424     0.03371     0.00114     0.00341     0.00100
          11     0.21612     0.56082     0.32843     0.10613     0.03115    -0.00223
          12     0.00000     0.00000     0.00000     0.00000     0.00000     0.00000
          13    -0.11023    -0.07349    -0.04709    -0.07975    -0.04036     0.01228
          14     0.69940    -0.34306    -0.35183    -0.23530    -0.11078     0.00552
          15     0.00000     0.00000     0.00000     0.00000     0.00000     0.00000
          16    -0.04253     0.03002    -0.06658     0.04135    -0.06387     0.07979
          17    -0.01444     0.01903    -0.02201    -0.09571     0.19146     0.00038
          18     0.00000     0.00000     0.00000     0.00000     0.00000     0.00000
          19     0.13232    -0.00232    -0.00410     0.08429     0.03589     0.00516
          20    -0.29985    -0.16198    -0.16553     0.07886     0.14713     0.00055
          21     0.00000     0.00000     0.00000     0.00000     0.00000     0.00000
          22     0.01269    -0.03241     0.05532    -0.03397     0.05083     0.00032
          23    -0.00709     0.01352    -0.05157     0.07760    -0.10454    -0.00140
          24     0.00000     0.00000     0.00000     0.00000     0.00000     0.00000
          25    -0.03949     0.00251    -0.04238     0.03881    -0.06522    -0.95635
          26     0.01110    -0.53076     0.69632     0.00435    -0.17411     0.03844
          27     0.00000     0.00000     0.00000     0.00000     0.00000     0.00000

                   25          26          27
 
 P.Frequency     3218.03     3235.88     3774.83
 
           1    -0.00033    -0.00194    -0.06014
           2     0.00063    -0.00005    -0.00042
           3     0.00000     0.00000     0.00000
           4     0.00402     0.08364    -0.00310
           5    -0.00656    -0.00359     0.00109
           6     0.00000     0.00000     0.00000
           7    -0.08408    -0.00124     0.00128
           8     0.00355     0.00451     0.00087
           9     0.00000     0.00000     0.00000
          10     0.00712     0.02039     0.96649
          11     0.00431    -0.00799    -0.01181
          12     0.00000     0.00000     0.00000
          13    -0.01217    -0.95262     0.01956
          14    -0.00020    -0.00195    -0.00110
          15     0.00000     0.00000     0.00000
          16     0.00029     0.00110    -0.00038
          17     0.00329     0.00042    -0.00053
          18     0.00000     0.00000     0.00000
          19     0.95222    -0.01824    -0.00570
          20    -0.00862     0.00134    -0.00184
          21     0.00000     0.00000     0.00000
          22     0.00013    -0.00006    -0.00004
          23    -0.00055    -0.00028     0.00027
          24     0.00000     0.00000     0.00000
          25     0.00575    -0.01195     0.00112
          26    -0.00013    -0.00189     0.00023
          27     0.00000     0.00000     0.00000



 ----------------------------------------------------------------------------
 Normal Eigenvalue ||    Projected Derivative Dipole Moments (debye/angs)
  Mode   [cm**-1]  ||      [d/dqX]             [d/dqY]           [d/dqZ]
 ------ ---------- || ------------------ ------------------ -----------------
    1       -0.000 ||       0.155              -0.005             0.000
    2       -0.000 ||      -0.020               0.001             0.000
    3       -0.000 ||       0.000               0.000             0.117
    4       -0.000 ||       0.000               0.000            -0.177
    5       -0.000 ||       0.000               0.000             0.056
    6        0.000 ||      -0.143               0.005             0.000
    7      145.253 ||       0.000               0.000             0.359
    8      217.373 ||      -0.550              -0.422             0.000
    9      327.660 ||       0.000               0.000             0.720
   10      487.208 ||       0.068              -0.137             0.000
   11      529.232 ||       0.000               0.000             1.278
   12      562.426 ||       0.036               0.241             0.000
   13      828.568 ||       0.000               0.000             0.622
   14      972.320 ||       0.000               0.000             0.955
   15     1007.760 ||       0.000               0.000             0.723
   16     1130.861 ||      -0.598              -2.590             0.000
   17     1168.330 ||      -0.499              -1.052             0.000
   18     1223.874 ||      -0.026              -0.970             0.000
   19     1328.015 ||      -0.240               0.415             0.000
   20     1368.402 ||       0.174              -0.346             0.000
   21     1423.938 ||       0.053               0.349             0.000
   22     1682.526 ||       0.374               1.332             0.000
   23     1712.540 ||      -0.343               3.352             0.000
   24     2949.592 ||       1.441               0.058             0.000
   25     3218.027 ||      -0.142              -0.276             0.000
   26     3235.876 ||       0.237               0.193             0.000
   27     3774.830 ||       1.033               0.903             0.000
 ----------------------------------------------------------------------------



  
  
 ----------------------------------------------------------------------------
 Normal Eigenvalue ||           Projected Infra Red Intensities
  Mode   [cm**-1]  || [atomic units] [(debye/angs)**2] [(KM/mol)] [arbitrary]
 ------ ---------- || -------------- ----------------- ---------- -----------
    1       -0.000 ||    0.001042           0.024         1.016       0.203
    2       -0.000 ||    0.000017           0.000         0.016       0.003
    3       -0.000 ||    0.000594           0.014         0.579       0.116
    4       -0.000 ||    0.001363           0.031         1.329       0.265
    5       -0.000 ||    0.000135           0.003         0.131       0.026
    6        0.000 ||    0.000885           0.020         0.863       0.172
    7      145.253 ||    0.005577           0.129         5.437       1.084
    8      217.373 ||    0.020793           0.480        20.271       4.042
    9      327.660 ||    0.022459           0.518        21.894       4.366
   10      487.208 ||    0.001020           0.024         0.994       0.198
   11      529.232 ||    0.070837           1.634        69.056      13.770
   12      562.426 ||    0.002581           0.060         2.516       0.502
   13      828.568 ||    0.016796           0.387        16.374       3.265
   14      972.320 ||    0.039535           0.912        38.540       7.685
   15     1007.760 ||    0.022663           0.523        22.093       4.406
   16     1130.861 ||    0.306293           7.066       298.590      59.541
   17     1168.330 ||    0.058785           1.356        57.307      11.427
   18     1223.874 ||    0.040850           0.942        39.823       7.941
   19     1328.015 ||    0.009946           0.229         9.696       1.933
   20     1368.402 ||    0.006512           0.150         6.348       1.266
   21     1423.938 ||    0.005407           0.125         5.271       1.051
   22     1682.526 ||    0.082910           1.913        80.825      16.117
   23     1712.540 ||    0.492008          11.351       479.634      95.642
   24     2949.592 ||    0.090135           2.079        87.868      17.522
   25     3218.027 ||    0.004186           0.097         4.080       0.814
   26     3235.876 ||    0.004057           0.094         3.955       0.789
   27     3774.830 ||    0.081562           1.882        79.510      15.855
 ----------------------------------------------------------------------------



 vib:animation  F

 Task  times  cpu:     2779.1s     wall:     2821.3s
 
 
                                NWChem Input Module
                                -------------------
 
 
 Summary of allocated global arrays
-----------------------------------
  No active global arrays



                         GA Statistics for process    0
                         ------------------------------

       create   destroy   get      put      acc     scatter   gather  read&inc
calls: 6.11e+04 6.11e+04 5.25e+06 8.86e+05 2.05e+06    0        0     7.52e+04 
number of processes/call 1.83e+01 5.11e+01 2.21e+01 0.00e+00 0.00e+00
bytes total:             5.30e+09 6.43e+09 1.53e+09 0.00e+00 0.00e+00 6.02e+05
bytes remote:            3.27e+09 4.42e+09 1.20e+09 0.00e+00 0.00e+00 0.00e+00
Max memory consumed for GA by this process: 61382856 bytes
 
MA_summarize_allocated_blocks: starting scan ...
MA_summarize_allocated_blocks: scan completed: 0 heap blocks, 0 stack blocks
MA usage statistics:

	allocation statistics:
					      heap	     stack
					      ----	     -----
	current number of blocks	         0	         0
	maximum number of blocks	        25	        39
	current total bytes		         0	         0
	maximum total bytes		  51845248	  27107512
	maximum total K-bytes		     51846	     27108
	maximum total M-bytes		        52	        28
 
 
                                     CITATION
                                     --------
                Please cite the following reference when publishing
                           results obtained with NWChem:
 
          E. Apr, E. J. Bylaska, W. A. de Jong, N. Govind, K. Kowalski,
       T. P. Straatsma, M. Valiev, H. J. J. van Dam, Y. Alexeev, J. Anchell,
       V. Anisimov, F. W. Aquino, R. Atta-Fynn, J. Autschbach, N. P. Bauman,
     J. C. Becca, D. E. Bernholdt, K. Bhaskaran-Nair, S. Bogatko, P. Borowski,
        J. Boschen, J. Brabec, A. Bruner, E. Caut, Y. Chen, G. N. Chuev,
      C. J. Cramer, J. Daily, M. J. O. Deegan, T. H. Dunning Jr., M. Dupuis,
   K. G. Dyall, G. I. Fann, S. A. Fischer, A. Fonari, H. Frchtl, L. Gagliardi,
      J. Garza, N. Gawande, S. Ghosh, K. Glaesemann, A. W. Gtz, J. Hammond,
       V. Helms, E. D. Hermes, K. Hirao, S. Hirata, M. Jacquelin, L. Jensen,
   B. G. Johnson, H. Jnsson, R. A. Kendall, M. Klemm, R. Kobayashi, V. Konkov,
      S. Krishnamoorthy, M. Krishnan, Z. Lin, R. D. Lins, R. J. Littlefield,
      A. J. Logsdail, K. Lopata, W. Ma, A. V. Marenich, J. Martin del Campo,
   D. Mejia-Rodriguez, J. E. Moore, J. M. Mullin, T. Nakajima, D. R. Nascimento,
    J. A. Nichols, P. J. Nichols, J. Nieplocha, A. Otero-de-la-Roza, B. Palmer,
    A. Panyala, T. Pirojsirikul, B. Peng, R. Peverati, J. Pittner, L. Pollack,
   R. M. Richard, P. Sadayappan, G. C. Schatz, W. A. Shelton, D. W. Silverstein,
   D. M. A. Smith, T. A. Soares, D. Song, M. Swart, H. L. Taylor, G. S. Thomas,
            V. Tipparaju, D. G. Truhlar, K. Tsemekhman, T. Van Voorhis,
     . Vzquez-Mayagoitia, P. Verma, O. Villa, A. Vishnu, K. D. Vogiatzis,
        D. Wang, J. H. Weare, M. J. Williamson, T. L. Windus, K. Woliski,
        A. T. Wong, Q. Wu, C. Yang, Q. Yu, M. Zacharias, Z. Zhang, Y. Zhao,
                                and R. J. Harrison
                        "NWChem: Past, present, and future
                         J. Chem. Phys. 152, 184102 (2020)
                               doi:10.1063/5.0004997
 
                                      AUTHORS
                                      -------
     E. Apra, E. J. Bylaska, N. Govind, K. Kowalski, M. Valiev, W. A. de Jong,
      T. P. Straatsma, H. J. J. van Dam, D. Wang, T. L. Windus, N. P. Bauman,
       A. Panyala, J. Hammond, J. Autschbach, K. Bhaskaran-Nair, J. Brabec,
    K. Lopata, S. A. Fischer, S. Krishnamoorthy, M. Jacquelin, W. Ma, M. Klemm,
       O. Villa, Y. Chen, V. Anisimov, F. Aquino, S. Hirata, M. T. Hackler,
           Eric Hermes, L. Jensen, J. E. Moore, J. C. Becca, V. Konjkov,
            D. Mejia-Rodriguez, T. Risthaus, M. Malagoli, A. Marenich,
   A. Otero-de-la-Roza, J. Mullin, P. Nichols, R. Peverati, J. Pittner, Y. Zhao,
        P.-D. Fan, A. Fonari, M. J. Williamson, R. J. Harrison, J. R. Rehr,
      M. Dupuis, D. Silverstein, D. M. A. Smith, J. Nieplocha, V. Tipparaju,
      M. Krishnan, B. E. Van Kuiken, A. Vazquez-Mayagoitia, M. Swart, Q. Wu,
   T. Van Voorhis, A. A. Auer, M. Nooijen, L. D. Crosby, E. Brown, G. Cisneros,
     G. I. Fann, H. Fruchtl, J. Garza, K. Hirao, R. A. Kendall, J. A. Nichols,
       K. Tsemekhman, K. Wolinski, J. Anchell, D. E. Bernholdt, P. Borowski,
       T. Clark, D. Clerc, H. Dachsel, M. J. O. Deegan, K. Dyall, D. Elwood,
      E. Glendening, M. Gutowski, A. C. Hess, J. Jaffe, B. G. Johnson, J. Ju,
        R. Kobayashi, R. Kutteh, Z. Lin, R. Littlefield, X. Long, B. Meng,
      T. Nakajima, S. Niu, L. Pollack, M. Rosing, K. Glaesemann, G. Sandrone,
      M. Stave, H. Taylor, G. Thomas, J. H. van Lenthe, A. T. Wong, Z. Zhang.

 Total times  cpu:     3412.5s     wall:     3466.2s
