 argument  1 = 8tR2.nw
 


============================== echo of input deck ==============================
echo
start 8tR2
title "H,CHO,H Reference 2"
charge 0

geometry
 zmatrix
  O
  C  1  R1
  C  2  R2  1  A1
  H  1  R5  2  A4  3  D180
  H  2  R6  3  A5  4  D180
  C  3  R7  2  A6  1  D180
  H  3  R8  2  A7  1  D0
  O  6  R9  3  A8  2  D180
  H  6  R10 3  A9  2  D0
  variables
    R1  1.329
    R2  1.363
    A1  124.5
    R5  0.994
    A4  105.4
    R6  1.085
    A5  122.5
    R7  1.478
    A6  120.0
    R8  1.099
    A7  117.6
    R9  1.250
    A8  120.0
    R10 1.000
    A9  120.0
  constants
    D0  0.000
    D180 180.0
 end
end

basis spherical
 * library aug-cc-pVDZ
end

set lindep:n_dep 0

set cphf:maxsub 95
set cphf:maxiter 999
set int:acc_std 1d-16
set fock:densityscreen f

scf
 maxiter 99
 vectors input atomic
 thresh 1d-9
 tol2e 1d-15
end

mp2
 freeze atomic
 tight
end

driver
 clear
 maxiter 99
 tight
end

set "mp2:aotol2e fock" 1d-15
set mp2:aotol2e 1d-15
set mp2:backtol 1d-15


task mp2 optimize
task mp2 frequencies

================================================================================


                                         
                                         
 
 
             Northwest Computational Chemistry Package (NWChem) 7.0.0
             --------------------------------------------------------
 
 
                    Environmental Molecular Sciences Laboratory
                       Pacific Northwest National Laboratory
                                Richland, WA 99352
 
                              Copyright (c) 1994-2020
                       Pacific Northwest National Laboratory
                            Battelle Memorial Institute
 
             NWChem is an open-source computational chemistry package
                        distributed under the terms of the
                      Educational Community License (ECL) 2.0
             A copy of the license is included with this distribution
                              in the LICENSE.TXT file
 
                                  ACKNOWLEDGMENT
                                  --------------

            This software and its documentation were developed at the
            EMSL at Pacific Northwest National Laboratory, a multiprogram
            national laboratory, operated for the U.S. Department of Energy
            by Battelle under Contract Number DE-AC05-76RL01830. Support
            for this work was provided by the Department of Energy Office
            of Biological and Environmental Research, Office of Basic
            Energy Sciences, and the Office of Advanced Scientific Computing.


           Job information
           ---------------

    hostname        = compute-0-27.local
    program         = /scratch/nwchem.277679
    date            = Wed Mar 31 20:07:00 2021

    compiled        = Wed_Mar_31_10:43:23_2021
    source          = /home/edo/nwchem-7.0.1
    nwchem branch   = 7.0.1
    nwchem revision = de46fdf
    ga revision     = 5.7.1
    use scalapack   = T
    input           = 8tR2.nw
    prefix          = 8tR2.
    data base       = ./8tR2.db
    status          = startup
    nproc           =       11
    time left       =     -1s



           Memory information
           ------------------

    heap     =  215205461 doubles =   1641.9 Mbytes
    stack    =  215205455 doubles =   1641.9 Mbytes
    global   =  122974549 doubles =    938.2 Mbytes (distinct from heap & stack)
    total    =  553385465 doubles =   4222.0 Mbytes
    verify   = yes
    hardfail = no 


           Directory information
           ---------------------
 
  0 permanent = .
  0 scratch   = /scratch
 
 
 
 
                                NWChem Input Module
                                -------------------
 
 
                                H,CHO,H Reference 2
                                -------------------

 Scaling coordinates for geometry "geometry" by  1.889725989
 (inverse scale =  0.529177249)

 CS  symmetry detected
 
 
                             Geometry "geometry" -> ""
                             -------------------------
 
 Output coordinates in angstroms (scale by  1.889725989 to convert to a.u.)
 
  No.       Tag          Charge          X              Y              Z
 ---- ---------------- ---------- -------------- -------------- --------------
    1 O                    8.0000     0.24759912     2.31243227     0.00000000
    2 C                    6.0000    -0.32437523     1.11281303     0.00000000
    3 C                    6.0000     0.35729685    -0.06748023     0.00000000
    4 H                    1.0000    -0.50381411     2.96313510     0.00000000
    5 H                    1.0000    -1.40834944     1.15998202     0.00000000
    6 C                    6.0000    -0.38151652    -1.34757350     0.00000000
    7 H                    1.0000     1.45532612    -0.02129880     0.00000000
    8 O                    8.0000     0.24364130    -2.43001412     0.00000000
    9 H                    1.0000    -1.38151651    -1.34771930     0.00000000
 
      Atomic Mass 
      ----------- 
 
      O                 15.994910
      C                 12.000000
      H                  1.007825
 

 Effective nuclear repulsion energy (a.u.)     152.8468011336

            Nuclear Dipole moment (a.u.) 
            ----------------------------
        X                 Y               Z
 ---------------- ---------------- ----------------
     0.0000000000    -0.0000000000     0.0000000000
 
      Symmetry information
      --------------------
 
 Group name             Cs        
 Group number              2
 Group order               2
 No. of unique centers     9
 
      Symmetry unique atoms
 
     1    2    3    4    5    6    7    8    9
 


                                Z-matrix (user)
                                -------- 

 Units are Angstrom for bonds and degrees for angles

  Constants are marked with an asterisk (*).

  Constrained variables are marked with a plus sign (+).

 
      Type          Name      I     J     K     L     M      Value
      ----------- --------  ----- ----- ----- ----- ----- ----------
    1 Stretch      R1          2     1                       1.32900
    2 Stretch      R2          3     2                       1.36300
    3 Bend         A1          3     2     1               124.50000
    4 Stretch      R5          4     1                       0.99400
    5 Bend         A4          4     1     2               105.40000
    6*Torsion      D180        4     1     2     3         180.00000
    7 Stretch      R6          5     2                       1.08500
    8 Bend         A5          5     2     3               122.50000
    9*Torsion      D180        5     2     3     4         180.00000
   10 Stretch      R7          6     3                       1.47800
   11 Bend         A6          6     3     2               120.00000
   12*Torsion      D180        6     3     2     1         180.00000
   13 Stretch      R8          7     3                       1.09900
   14 Bend         A7          7     3     2               117.60000
   15*Torsion      D0          7     3     2     1           0.00000
   16 Stretch      R9          8     6                       1.25000
   17 Bend         A8          8     6     3               120.00000
   18*Torsion      D180        8     6     3     2         180.00000
   19 Stretch      R10         9     6                       1.00000
   20 Bend         A9          9     6     3               120.00000
   21*Torsion      D0          9     6     3     2           0.00000
 
 
            XYZ format geometry
            -------------------
     9
 geometry
 O                     0.24759912     2.31243227     0.00000000
 C                    -0.32437523     1.11281303     0.00000000
 C                     0.35729685    -0.06748023     0.00000000
 H                    -0.50381411     2.96313510     0.00000000
 H                    -1.40834944     1.15998202     0.00000000
 C                    -0.38151652    -1.34757350     0.00000000
 H                     1.45532612    -0.02129880     0.00000000
 O                     0.24364130    -2.43001412     0.00000000
 H                    -1.38151651    -1.34771930     0.00000000
 
 ==============================================================================
                                internuclear distances
 ------------------------------------------------------------------------------
       center one      |      center two      | atomic units |  angstroms
 ------------------------------------------------------------------------------
    2 C                |   1 O                |     2.51145  |     1.32900
    3 C                |   2 C                |     2.57570  |     1.36300
    4 H                |   1 O                |     1.87839  |     0.99400
    5 H                |   2 C                |     2.05035  |     1.08500
    6 C                |   3 C                |     2.79302  |     1.47800
    7 H                |   3 C                |     2.07681  |     1.09900
    8 O                |   6 C                |     2.36216  |     1.25000
    9 H                |   6 C                |     1.88973  |     1.00000
 ------------------------------------------------------------------------------
                         number of included internuclear distances:          8
 ==============================================================================



 ==============================================================================
                                 internuclear angles
 ------------------------------------------------------------------------------
        center 1       |       center 2       |       center 3       |  degrees
 ------------------------------------------------------------------------------
    2 C                |   1 O                |   4 H                |   105.40
    1 O                |   2 C                |   3 C                |   124.50
    1 O                |   2 C                |   5 H                |   113.00
    3 C                |   2 C                |   5 H                |   122.50
    2 C                |   3 C                |   6 C                |   120.00
    2 C                |   3 C                |   7 H                |   117.60
    6 C                |   3 C                |   7 H                |   122.40
    3 C                |   6 C                |   8 O                |   120.00
    3 C                |   6 C                |   9 H                |   120.00
    8 O                |   6 C                |   9 H                |   120.00
 ------------------------------------------------------------------------------
                            number of included internuclear angles:         10
 ==============================================================================





 Summary of "ao basis" -> "" (spherical)
 ------------------------------------------------------------------------------
       Tag                 Description            Shells   Functions and Types
 ---------------- ------------------------------  ------  ---------------------
 *                        aug-cc-pVDZ                 on all atoms 


 
  Deleted DRIVER restart files 
 
 
 
                           NWChem Geometry Optimization
                           ----------------------------
 
 
 
 
                                H,CHO,H Reference 2
 
 
 maximum gradient threshold         (gmax) =   0.000015
 rms gradient threshold             (grms) =   0.000010
 maximum cartesian step threshold   (xmax) =   0.000060
 rms cartesian step threshold       (xrms) =   0.000040
 fixed trust radius                (trust) =   0.300000
 maximum step size to saddle      (sadstp) =   0.100000
 energy precision                  (eprec) =   1.0D-07
 maximum number of steps          (nptopt) =   99
 initial hessian option           (inhess) =    0
 line search option               (linopt) =    1
 hessian update option            (modupd) =    1
 saddle point option              (modsad) =    0
 initial eigen-mode to follow     (moddir) =    0
 initial variable to follow       (vardir) =    0
 follow first negative mode     (firstneg) =    T
 apply conjugacy                    (opcg) =    F
 source of zmatrix                         =   user    


          -------------------
          Energy Minimization
          -------------------

 
 Names of Z-matrix variables 
    1 R1           2 R2           3 A1           4 R5           5 A4      
    6 D180         7 R6           8 A5           9 D180        10 R7      
   11 A6          12 D180        13 R8          14 A7          15 D0      
   16 R9          17 A8          18 D180        19 R10         20 A9      
   21 D0      
 
 Variables with the same non-blank name are constrained to be equal
 
     variables named     D180 =     6    9   12   18 
     variables named       D0 =    15   21 

 Number of frozen variables =    6
           Frozen variables =    6    9   12   15   18   21
 
 Using diagonal initial Hessian 
 Scaling for Hessian diagonals: bonds = 1.00  angles = 0.25  torsions = 0.10

          --------
          Step   0
          --------
 
 
                         Geometry "geometry" -> "geometry"
                         ---------------------------------
 
 Output coordinates in angstroms (scale by  1.889725989 to convert to a.u.)
 
  No.       Tag          Charge          X              Y              Z
 ---- ---------------- ---------- -------------- -------------- --------------
    1 O                    8.0000     0.24759912     2.31243227     0.00000000
    2 C                    6.0000    -0.32437523     1.11281303     0.00000000
    3 C                    6.0000     0.35729685    -0.06748023     0.00000000
    4 H                    1.0000    -0.50381411     2.96313510     0.00000000
    5 H                    1.0000    -1.40834944     1.15998202     0.00000000
    6 C                    6.0000    -0.38151652    -1.34757350     0.00000000
    7 H                    1.0000     1.45532612    -0.02129880     0.00000000
    8 O                    8.0000     0.24364130    -2.43001412     0.00000000
    9 H                    1.0000    -1.38151651    -1.34771930     0.00000000
 
      Atomic Mass 
      ----------- 
 
      O                 15.994910
      C                 12.000000
      H                  1.007825
 

 Effective nuclear repulsion energy (a.u.)     152.8468011336

            Nuclear Dipole moment (a.u.) 
            ----------------------------
        X                 Y               Z
 ---------------- ---------------- ----------------
     0.0000000000    -0.0000000000     0.0000000000
 
      Symmetry information
      --------------------
 
 Group name             Cs        
 Group number              2
 Group order               2
 No. of unique centers     9
 
      Symmetry unique atoms
 
     1    2    3    4    5    6    7    8    9
 
                      Basis "ao basis" -> "ao basis" (spherical)
                      -----
  O (Oxygen)
  ----------
            Exponent  Coefficients 
       -------------- ---------------------------------------------------------
  1 S  1.17200000E+04  0.000710
  1 S  1.75900000E+03  0.005470
  1 S  4.00800000E+02  0.027837
  1 S  1.13700000E+02  0.104800
  1 S  3.70300000E+01  0.283062
  1 S  1.32700000E+01  0.448719
  1 S  5.02500000E+00  0.270952
  1 S  1.01300000E+00  0.015458
 
  2 S  1.17200000E+04 -0.000160
  2 S  1.75900000E+03 -0.001263
  2 S  4.00800000E+02 -0.006267
  2 S  1.13700000E+02 -0.025716
  2 S  3.70300000E+01 -0.070924
  2 S  1.32700000E+01 -0.165411
  2 S  5.02500000E+00 -0.116955
  2 S  1.01300000E+00  0.557368
 
  3 S  3.02300000E-01  1.000000
 
  4 S  7.89600000E-02  1.000000
 
  5 P  1.77000000E+01  0.043018
  5 P  3.85400000E+00  0.228913
  5 P  1.04600000E+00  0.508728
 
  6 P  2.75300000E-01  1.000000
 
  7 P  6.85600000E-02  1.000000
 
  8 D  1.18500000E+00  1.000000
 
  9 D  3.32000000E-01  1.000000
 
  C (Carbon)
  ----------
            Exponent  Coefficients 
       -------------- ---------------------------------------------------------
  1 S  6.66500000E+03  0.000692
  1 S  1.00000000E+03  0.005329
  1 S  2.28000000E+02  0.027077
  1 S  6.47100000E+01  0.101718
  1 S  2.10600000E+01  0.274740
  1 S  7.49500000E+00  0.448564
  1 S  2.79700000E+00  0.285074
  1 S  5.21500000E-01  0.015204
 
  2 S  6.66500000E+03 -0.000146
  2 S  1.00000000E+03 -0.001154
  2 S  2.28000000E+02 -0.005725
  2 S  6.47100000E+01 -0.023312
  2 S  2.10600000E+01 -0.063955
  2 S  7.49500000E+00 -0.149981
  2 S  2.79700000E+00 -0.127262
  2 S  5.21500000E-01  0.544529
 
  3 S  1.59600000E-01  1.000000
 
  4 S  4.69000000E-02  1.000000
 
  5 P  9.43900000E+00  0.038109
  5 P  2.00200000E+00  0.209480
  5 P  5.45600000E-01  0.508557
 
  6 P  1.51700000E-01  1.000000
 
  7 P  4.04100000E-02  1.000000
 
  8 D  5.50000000E-01  1.000000
 
  9 D  1.51000000E-01  1.000000
 
  H (Hydrogen)
  ------------
            Exponent  Coefficients 
       -------------- ---------------------------------------------------------
  1 S  1.30100000E+01  0.019685
  1 S  1.96200000E+00  0.137977
  1 S  4.44600000E-01  0.478148
 
  2 S  1.22000000E-01  1.000000
 
  3 S  2.97400000E-02  1.000000
 
  4 P  7.27000000E-01  1.000000
 
  5 P  1.41000000E-01  1.000000
 


 Summary of "ao basis" -> "ao basis" (spherical)
 ------------------------------------------------------------------------------
       Tag                 Description            Shells   Functions and Types
 ---------------- ------------------------------  ------  ---------------------
 O                        aug-cc-pVDZ                9       23   4s3p2d
 C                        aug-cc-pVDZ                9       23   4s3p2d
 H                        aug-cc-pVDZ                5        9   3s2p


                                 NWChem SCF Module
                                 -----------------
 
 
                                H,CHO,H Reference 2
 
 

  ao basis        = "ao basis"
  functions       =   151
  atoms           =     9
  closed shells   =    19
  open shells     =     0
  charge          =   0.00
  wavefunction    = RHF 
  input vectors   = atomic
  output vectors  = ./8tR2.movecs
  use symmetry    = T
  symmetry adapt  = T


 Summary of "ao basis" -> "ao basis" (spherical)
 ------------------------------------------------------------------------------
       Tag                 Description            Shells   Functions and Types
 ---------------- ------------------------------  ------  ---------------------
 O                        aug-cc-pVDZ                9       23   4s3p2d
 C                        aug-cc-pVDZ                9       23   4s3p2d
 H                        aug-cc-pVDZ                5        9   3s2p


      Symmetry analysis of basis
      --------------------------
 
        a'        108
        a"         43
 

int_init: setting std/high accuracies to  1.0D-16  1.0D-32

 Forming initial guess at       0.6s


 Forcing the number of linearly dependent vectors to be  0
 
      Superposition of Atomic Density Guess
      -------------------------------------
 
 Sum of atomic energies:        -264.53203373
 
      Non-variational initial energy
      ------------------------------

 Total energy =    -266.983767
 1-e energy   =    -662.093265
 2-e energy   =     242.262696
 HOMO         =      -0.303348
 LUMO         =      -0.056654
 
 
      Symmetry analysis of molecular orbitals - initial
      -------------------------------------------------
 
  Numbering of irreducible representations: 
 
     1 a'          2 a"      
 
  Orbital symmetries:
 
     1 a'          2 a'          3 a'          4 a'          5 a'      
     6 a'          7 a'          8 a'          9 a'         10 a'      
    11 a'         12 a'         13 a'         14 a"         15 a'      
    16 a"         17 a'         18 a'         19 a"         20 a"      
    21 a'         22 a'         23 a'         24 a"         25 a'      
    26 a'         27 a'         28 a"         29 a'      
 

 Starting SCF solution at       1.5s



 ----------------------------------------------
         Quadratically convergent ROHF

 Convergence threshold     :          1.000E-09
 Maximum no. of iterations :           99
 Final Fock-matrix accuracy:          1.000E-15
 ----------------------------------------------

 Warning: symmetry breaking in RHF:   3.534390116040563E-014

              iter       energy          gnorm     gmax       time
             ----- ------------------- --------- --------- --------
                 1     -265.5036633494  1.46D+00  2.86D-01      1.9
 Warning: symmetry breaking in RHF:   8.636862358148575E-014
 Warning: symmetry breaking in RHF:   6.528110842997209E-014
                 2     -265.6253825338  4.81D-01  8.18D-02      3.8
 Warning: symmetry breaking in RHF:   4.987203084292348E-014
                 3     -265.6486292548  1.95D-02  4.51D-03      7.2
 Warning: symmetry breaking in RHF:   5.464342081054403E-014
                 4     -265.6487104615  2.04D-04  3.82D-05     12.2
 Warning: symmetry breaking in RHF:   5.464950037548956E-014
                 5     -265.6487104664  2.00D-08  5.61D-09     20.8
 Warning: symmetry breaking in RHF:   5.471849123442287E-014
                 6     -265.6487104664  7.80D-11  2.25D-11     26.6


       Final RHF  results 
       ------------------ 

         Total SCF energy =   -265.648710466390
      One-electron energy =   -665.184377892407
      Two-electron energy =    246.688866292382
 Nuclear repulsion energy =    152.846801133636

        Time for solution =     25.6s


 
       Symmetry analysis of molecular orbitals - final
       -----------------------------------------------
 
  Numbering of irreducible representations: 
 
     1 a'          2 a"      
 
  Orbital symmetries:
 
     1 a'          2 a'          3 a'          4 a'          5 a'      
     6 a'          7 a'          8 a'          9 a'         10 a'      
    11 a'         12 a'         13 a'         14 a"         15 a'      
    16 a'         17 a"         18 a'         19 a"         20 a'      
    21 a'         22 a'         23 a'         24 a"         25 a"      
    26 a'         27 a'         28 a'         29 a"      
 
             Final eigenvalues
             -----------------

              1      
    1  -20.6459
    2  -20.5510
    3  -11.3514
    4  -11.3351
    5  -11.2504
    6   -1.4580
    7   -1.3596
    8   -1.0724
    9   -0.8899
   10   -0.8149
   11   -0.7722
   12   -0.6931
   13   -0.6240
   14   -0.6217
   15   -0.6061
   16   -0.5505
   17   -0.5166
   18   -0.4287
   19   -0.3618
   20    0.0166
   21    0.0413
   22    0.0513
   23    0.0660
   24    0.0845
   25    0.0913
   26    0.1116
   27    0.1162
   28    0.1286
   29    0.1321
 
                       ROHF Final Molecular Orbital Analysis
                       -------------------------------------
 
 Vector    6  Occ=2.000000D+00  E=-1.458039D+00  Symmetry=a'
              MO Center=  6.0D-02,  2.2D+00, -4.4D-17, r^2= 5.7D-01
   Bfn.  Coefficient  Atom+Function         Bfn.  Coefficient  Atom+Function  
  ----- ------------  ---------------      ----- ------------  ---------------
     3      0.473548  1 O  s                  2      0.415836  1 O  s          
    27     -0.239402  2 C  s                 32     -0.182683  2 C  py         
    70      0.174353  4 H  s                 26      0.162140  2 C  s          
 
 Vector    7  Occ=2.000000D+00  E=-1.359613D+00  Symmetry=a'
              MO Center=  7.2D-02, -2.1D+00,  4.4D-18, r^2= 5.7D-01
   Bfn.  Coefficient  Atom+Function         Bfn.  Coefficient  Atom+Function  
  ----- ------------  ---------------      ----- ------------  ---------------
   122      0.456427  8 O  s                121      0.397615  8 O  s          
    89      0.216182  6 C  s                 90      0.210338  6 C  s          
    55      0.195704  3 C  py                26     -0.153738  2 C  s          
 
 Vector    8  Occ=2.000000D+00  E=-1.072439D+00  Symmetry=a'
              MO Center= -3.0D-02,  2.9D-01,  3.6D-17, r^2= 1.7D+00
   Bfn.  Coefficient  Atom+Function         Bfn.  Coefficient  Atom+Function  
  ----- ------------  ---------------      ----- ------------  ---------------
    48      0.296308  3 C  s                 25      0.245820  2 C  s          
    49      0.188906  3 C  s          
 
 Vector    9  Occ=2.000000D+00  E=-8.898593D-01  Symmetry=a'
              MO Center= -2.8D-01,  5.2D-02,  1.8D-33, r^2= 3.8D+00
   Bfn.  Coefficient  Atom+Function         Bfn.  Coefficient  Atom+Function  
  ----- ------------  ---------------      ----- ------------  ---------------
    89      0.257528  6 C  s                  6      0.237117  1 O  py         
    25     -0.221317  2 C  s                 26     -0.214328  2 C  s          
   143      0.206791  9 H  s                122     -0.192607  8 O  s          
    52     -0.183157  3 C  py               144      0.183045  9 H  s          
    49      0.172080  3 C  s                 80     -0.167704  5 H  s          
 
 Vector   10  Occ=2.000000D+00  E=-8.148922D-01  Symmetry=a'
              MO Center= -2.6D-01,  2.7D-01, -1.8D-17, r^2= 3.1D+00
   Bfn.  Coefficient  Atom+Function         Bfn.  Coefficient  Atom+Function  
  ----- ------------  ---------------      ----- ------------  ---------------
    50      0.340801  3 C  s                 79      0.234441  5 H  s          
    27     -0.229966  2 C  s                143      0.216390  9 H  s          
    28     -0.210355  2 C  px                49     -0.208250  3 C  s          
    80      0.198525  5 H  s                 48     -0.187500  3 C  s          
   111     -0.186745  7 H  s                 92     -0.185358  6 C  px         
 
 Vector   11  Occ=2.000000D+00  E=-7.721573D-01  Symmetry=a'
              MO Center= -2.8D-01,  1.2D+00, -1.4D-16, r^2= 3.5D+00
   Bfn.  Coefficient  Atom+Function         Bfn.  Coefficient  Atom+Function  
  ----- ------------  ---------------      ----- ------------  ---------------
     6      0.330443  1 O  py                70      0.284736  4 H  s          
    80      0.247510  5 H  s                 28     -0.220969  2 C  px         
   144     -0.216283  9 H  s                  5     -0.208469  1 O  px         
   143     -0.181769  9 H  s                 79      0.174663  5 H  s          
     9      0.166037  1 O  py         
 
 Vector   12  Occ=2.000000D+00  E=-6.931076D-01  Symmetry=a'
              MO Center=  4.7D-02, -1.5D-02,  1.5D-16, r^2= 3.8D+00
   Bfn.  Coefficient  Atom+Function         Bfn.  Coefficient  Atom+Function  
  ----- ------------  ---------------      ----- ------------  ---------------
    29      0.304822  2 C  py                52     -0.265494  3 C  py         
    92      0.253141  6 C  px                 6     -0.231893  1 O  py         
   125      0.220355  8 O  py                 5     -0.180078  1 O  px         
    55     -0.179058  3 C  py                90      0.170344  6 C  s          
 
 Vector   13  Occ=2.000000D+00  E=-6.240235D-01  Symmetry=a'
              MO Center=  3.5D-01,  4.2D-01,  2.4D-16, r^2= 3.5D+00
   Bfn.  Coefficient  Atom+Function         Bfn.  Coefficient  Atom+Function  
  ----- ------------  ---------------      ----- ------------  ---------------
     5      0.326593  1 O  px                51     -0.271582  3 C  px         
   111     -0.269965  7 H  s                 50      0.264339  3 C  s          
     8      0.210173  1 O  px               112     -0.183282  7 H  s          
    90      0.176559  6 C  s                 92      0.172467  6 C  px         
    70     -0.167051  4 H  s                124      0.167247  8 O  px         
 
 Vector   14  Occ=2.000000D+00  E=-6.216784D-01  Symmetry=a"
              MO Center=  1.2D-01,  2.0D+00,  3.2D-16, r^2= 1.2D+00
   Bfn.  Coefficient  Atom+Function         Bfn.  Coefficient  Atom+Function  
  ----- ------------  ---------------      ----- ------------  ---------------
     7      0.550826  1 O  pz                10      0.403613  1 O  pz         
    30      0.227898  2 C  pz         
 
 Vector   15  Occ=2.000000D+00  E=-6.060508D-01  Symmetry=a'
              MO Center=  1.2D-01, -1.7D+00,  1.3D-16, r^2= 2.6D+00
   Bfn.  Coefficient  Atom+Function         Bfn.  Coefficient  Atom+Function  
  ----- ------------  ---------------      ----- ------------  ---------------
   125      0.385335  8 O  py                93     -0.338738  6 C  py         
   124     -0.267532  8 O  px               122     -0.242366  8 O  s          
    55      0.202401  3 C  py                90      0.197585  6 C  s          
   128      0.189698  8 O  py                92      0.160500  6 C  px         
 
 Vector   16  Occ=2.000000D+00  E=-5.505320D-01  Symmetry=a'
              MO Center=  6.4D-02,  9.1D-01, -5.8D-16, r^2= 2.7D+00
   Bfn.  Coefficient  Atom+Function         Bfn.  Coefficient  Atom+Function  
  ----- ------------  ---------------      ----- ------------  ---------------
    80      0.332202  5 H  s                  5      0.304599  1 O  px         
    28     -0.298494  2 C  px               112      0.287583  7 H  s          
    79      0.282861  5 H  s                 51      0.278847  3 C  px         
   111      0.256952  7 H  s                 26     -0.240333  2 C  s          
     8      0.200434  1 O  px                71     -0.161872  4 H  s          
 
 Vector   17  Occ=2.000000D+00  E=-5.165548D-01  Symmetry=a"
              MO Center=  3.9D-02, -1.7D+00, -7.7D-16, r^2= 2.0D+00
   Bfn.  Coefficient  Atom+Function         Bfn.  Coefficient  Atom+Function  
  ----- ------------  ---------------      ----- ------------  ---------------
   126      0.437300  8 O  pz               129      0.326671  8 O  pz         
    94      0.322703  6 C  pz                97      0.164241  6 C  pz         
 
 Vector   18  Occ=2.000000D+00  E=-4.287066D-01  Symmetry=a'
              MO Center=  6.5D-02, -2.0D+00,  8.5D-17, r^2= 1.6D+00
   Bfn.  Coefficient  Atom+Function         Bfn.  Coefficient  Atom+Function  
  ----- ------------  ---------------      ----- ------------  ---------------
   124      0.492971  8 O  px               127      0.368644  8 O  px         
   125      0.292190  8 O  py                50      0.234126  3 C  s          
   128      0.234193  8 O  py                95     -0.200293  6 C  px         
   143      0.197613  9 H  s                 90     -0.186596  6 C  s          
    52      0.183121  3 C  py                96     -0.154905  6 C  py         
 
 Vector   19  Occ=2.000000D+00  E=-3.618403D-01  Symmetry=a"
              MO Center=  1.1D-01,  1.4D-01, -8.5D-16, r^2= 2.9D+00
   Bfn.  Coefficient  Atom+Function         Bfn.  Coefficient  Atom+Function  
  ----- ------------  ---------------      ----- ------------  ---------------
    53      0.378442  3 C  pz                30      0.287372  2 C  pz         
    56      0.287919  3 C  pz                 7     -0.250288  1 O  pz         
   126     -0.246688  8 O  pz                10     -0.200558  1 O  pz         
    33      0.195407  2 C  pz               129     -0.187982  8 O  pz         
 
 Vector   20  Occ=0.000000D+00  E= 1.661395D-02  Symmetry=a'
              MO Center= -1.9D+00,  3.2D+00, -2.0D-16, r^2= 1.1D+01
   Bfn.  Coefficient  Atom+Function         Bfn.  Coefficient  Atom+Function  
  ----- ------------  ---------------      ----- ------------  ---------------
    81      2.068817  5 H  s                 91     -2.065949  6 C  s          
    72      1.822003  4 H  s                 27     -1.710249  2 C  s          
    35     -1.568032  2 C  py                 4      1.073527  1 O  s          
    80      0.813359  5 H  s                 34      0.792164  2 C  px         
    32     -0.731222  2 C  py                55     -0.677145  3 C  py         
 
 Vector   21  Occ=0.000000D+00  E= 4.134577D-02  Symmetry=a'
              MO Center= -2.3D+00,  6.7D-01, -4.1D-17, r^2= 1.9D+01
   Bfn.  Coefficient  Atom+Function         Bfn.  Coefficient  Atom+Function  
  ----- ------------  ---------------      ----- ------------  ---------------
   145      3.182922  9 H  s                 72     -2.194087  4 H  s          
    27     -1.864290  2 C  s                 81      1.726831  5 H  s          
    35      1.419464  2 C  py                98      1.238048  6 C  px         
    91     -1.201138  6 C  s                144      1.081166  9 H  s          
   113     -0.949631  7 H  s                 99      0.826990  6 C  py         
 
 Vector   22  Occ=0.000000D+00  E= 5.129686D-02  Symmetry=a'
              MO Center=  2.2D+00, -1.5D-01, -2.0D-15, r^2= 1.9D+01
   Bfn.  Coefficient  Atom+Function         Bfn.  Coefficient  Atom+Function  
  ----- ------------  ---------------      ----- ------------  ---------------
    27      9.220497  2 C  s                 50     -8.987133  3 C  s          
    91      6.080765  6 C  s                113     -5.824508  7 H  s          
    57      5.109744  3 C  px                81      2.710498  5 H  s          
    35     -2.582826  2 C  py               145     -1.836354  9 H  s          
    58     -1.642446  3 C  py                34      1.412915  2 C  px         
 
 Vector   23  Occ=0.000000D+00  E= 6.595799D-02  Symmetry=a'
              MO Center= -1.7D+00,  5.7D-01,  1.5D-16, r^2= 2.7D+01
   Bfn.  Coefficient  Atom+Function         Bfn.  Coefficient  Atom+Function  
  ----- ------------  ---------------      ----- ------------  ---------------
    81      7.746723  5 H  s                145     -7.401376  9 H  s          
    50      7.124290  3 C  s                 91     -5.761686  6 C  s          
    58     -4.984298  3 C  py                98     -3.797821  6 C  px         
    72     -3.501662  4 H  s                113      3.276535  7 H  s          
    57     -3.226832  3 C  px                34      3.177439  2 C  px         
 
 Vector   24  Occ=0.000000D+00  E= 8.446344D-02  Symmetry=a"
              MO Center= -9.3D-01,  8.9D-01, -8.1D-15, r^2= 8.5D+00
   Bfn.  Coefficient  Atom+Function         Bfn.  Coefficient  Atom+Function  
  ----- ------------  ---------------      ----- ------------  ---------------
    36      2.129838  2 C  pz                59     -1.585899  3 C  pz         
    13     -0.556076  1 O  pz               100      0.430879  6 C  pz         
    56     -0.237289  3 C  pz                33      0.218358  2 C  pz         
    30      0.194452  2 C  pz                53     -0.170175  3 C  pz         
    97     -0.161828  6 C  pz                94     -0.150680  6 C  pz         
 
 Vector   25  Occ=0.000000D+00  E= 9.125372D-02  Symmetry=a"
              MO Center= -7.9D-01, -7.4D-01,  1.5D-15, r^2= 7.4D+00
   Bfn.  Coefficient  Atom+Function         Bfn.  Coefficient  Atom+Function  
  ----- ------------  ---------------      ----- ------------  ---------------
   100      1.347642  6 C  pz                59     -0.764302  3 C  pz         
    36      0.565055  2 C  pz               132     -0.528352  8 O  pz         
    33     -0.307987  2 C  pz                30     -0.274164  2 C  pz         
    97      0.251832  6 C  pz               126     -0.238462  8 O  pz         
    94      0.220722  6 C  pz               129     -0.204857  8 O  pz         
 
 Vector   26  Occ=0.000000D+00  E= 1.116333D-01  Symmetry=a'
              MO Center= -1.3D+00,  1.2D+00,  6.7D-17, r^2= 2.0D+01
   Bfn.  Coefficient  Atom+Function         Bfn.  Coefficient  Atom+Function  
  ----- ------------  ---------------      ----- ------------  ---------------
    50     26.119604  3 C  s                 27    -17.423695  2 C  s          
    35      8.059624  2 C  py                34     -6.976820  2 C  px         
    81     -5.345175  5 H  s                 58      4.333391  3 C  py         
    57     -4.071175  3 C  px                91     -3.650494  6 C  s          
   113      3.575890  7 H  s                 99     -2.279555  6 C  py         
 
 Vector   27  Occ=0.000000D+00  E= 1.162380D-01  Symmetry=a'
              MO Center=  1.7D-01,  4.2D-01,  5.6D-16, r^2= 2.2D+01
   Bfn.  Coefficient  Atom+Function         Bfn.  Coefficient  Atom+Function  
  ----- ------------  ---------------      ----- ------------  ---------------
    91      7.997796  6 C  s                 35      5.545007  2 C  py         
    58      4.268734  3 C  py                99      4.158539  6 C  py         
     4     -3.583523  1 O  s                 27     -3.479502  2 C  s          
   145      3.449446  9 H  s                 81     -3.416982  5 H  s          
    72     -2.277067  4 H  s                 55      1.632494  3 C  py         
 
 Vector   28  Occ=0.000000D+00  E= 1.286106D-01  Symmetry=a'
              MO Center=  4.3D-01, -5.3D-03, -3.2D-17, r^2= 1.7D+01
   Bfn.  Coefficient  Atom+Function         Bfn.  Coefficient  Atom+Function  
  ----- ------------  ---------------      ----- ------------  ---------------
    27      8.255752  2 C  s                 50     -8.139260  3 C  s          
    91      4.231681  6 C  s                  4     -3.458586  1 O  s          
    34      3.391925  2 C  px                98      2.945562  6 C  px         
   123     -2.518580  8 O  s                 81      2.319606  5 H  s          
   113     -2.021133  7 H  s                 72     -1.708941  4 H  s          
 
 Vector   29  Occ=0.000000D+00  E= 1.321356D-01  Symmetry=a"
              MO Center=  3.3D-01,  1.3D-01, -9.1D-16, r^2= 1.3D+01
   Bfn.  Coefficient  Atom+Function         Bfn.  Coefficient  Atom+Function  
  ----- ------------  ---------------      ----- ------------  ---------------
   100     -2.117509  6 C  pz                59      2.096548  3 C  pz         
   132      0.493980  8 O  pz                33     -0.275705  2 C  pz         
    36      0.236919  2 C  pz                87     -0.185486  5 H  pz         
    30     -0.161706  2 C  pz         
 
 Vector   30  Occ=0.000000D+00  E= 1.417463D-01  Symmetry=a"
              MO Center=  1.3D-01, -7.9D-01, -1.5D-14, r^2= 1.2D+01
   Bfn.  Coefficient  Atom+Function         Bfn.  Coefficient  Atom+Function  
  ----- ------------  ---------------      ----- ------------  ---------------
    36      1.813692  2 C  pz                59     -1.571077  3 C  pz         
   100     -0.866080  6 C  pz                97      0.329483  6 C  pz         
    13     -0.316088  1 O  pz               132      0.254012  8 O  pz         
    94      0.240074  6 C  pz               151      0.224942  9 H  pz         
 
 Vector   31  Occ=0.000000D+00  E= 1.520230D-01  Symmetry=a'
              MO Center= -4.7D-01, -2.7D-01,  1.1D-14, r^2= 1.8D+01
   Bfn.  Coefficient  Atom+Function         Bfn.  Coefficient  Atom+Function  
  ----- ------------  ---------------      ----- ------------  ---------------
    50     18.551599  3 C  s                 27    -13.879923  2 C  s          
    91     -9.232774  6 C  s                 99     -5.887375  6 C  py         
    81      5.520231  5 H  s                 57     -5.211331  3 C  px         
   145     -3.786076  9 H  s                 80      3.268329  5 H  s          
   113      2.456539  7 H  s                 98     -2.380856  6 C  px         
 
 Vector   32  Occ=0.000000D+00  E= 1.635344D-01  Symmetry=a'
              MO Center= -7.0D-01, -7.7D-01,  2.8D-15, r^2= 1.7D+01
   Bfn.  Coefficient  Atom+Function         Bfn.  Coefficient  Atom+Function  
  ----- ------------  ---------------      ----- ------------  ---------------
    50     13.718103  3 C  s                 91     -8.775742  6 C  s          
   145     -7.599487  9 H  s                 57     -6.432743  3 C  px         
   113      5.636269  7 H  s                 98     -5.453131  6 C  px         
    99     -4.644719  6 C  py                27     -3.379543  2 C  s          
    58     -3.327683  3 C  py               144     -3.330563  9 H  s          
 
 Vector   33  Occ=0.000000D+00  E= 1.727797D-01  Symmetry=a'
              MO Center=  7.3D-01, -8.1D-01,  3.7D-15, r^2= 1.8D+01
   Bfn.  Coefficient  Atom+Function         Bfn.  Coefficient  Atom+Function  
  ----- ------------  ---------------      ----- ------------  ---------------
    27     19.702389  2 C  s                 50    -16.648913  3 C  s          
    91     12.492479  6 C  s                 57      9.560615  3 C  px         
   113     -6.853151  7 H  s                 35     -5.746144  2 C  py         
   145     -4.849401  9 H  s                 81      3.435447  5 H  s          
   123     -3.190591  8 O  s                  4     -2.748154  1 O  s          
 
 Vector   34  Occ=0.000000D+00  E= 1.826868D-01  Symmetry=a'
              MO Center= -2.2D-01,  5.1D-02,  4.8D-16, r^2= 2.0D+01
   Bfn.  Coefficient  Atom+Function         Bfn.  Coefficient  Atom+Function  
  ----- ------------  ---------------      ----- ------------  ---------------
    91     23.695465  6 C  s                 58     21.632743  3 C  py         
    27    -15.414642  2 C  s                 98      9.769286  6 C  px         
    34     -9.547660  2 C  px                50     -9.390850  3 C  s          
    81     -8.600173  5 H  s                145      7.425135  9 H  s          
    35     -5.943709  2 C  py                 4      3.949272  1 O  s          
 
 Vector   35  Occ=0.000000D+00  E= 2.003360D-01  Symmetry=a'
              MO Center=  6.8D-01,  1.3D+00, -1.1D-15, r^2= 1.5D+01
   Bfn.  Coefficient  Atom+Function         Bfn.  Coefficient  Atom+Function  
  ----- ------------  ---------------      ----- ------------  ---------------
    50     23.212269  3 C  s                 27    -20.542067  2 C  s          
   112     -5.166978  7 H  s                  4      5.140757  1 O  s          
    91     -4.848378  6 C  s                 35      3.608579  2 C  py         
    58      3.624904  3 C  py                57     -3.007541  3 C  px         
    34     -2.714331  2 C  px                32     -2.396448  2 C  py         
 
 Vector   36  Occ=0.000000D+00  E= 2.231106D-01  Symmetry=a"
              MO Center=  9.6D-02, -3.3D-02,  1.4D-14, r^2= 1.0D+01
   Bfn.  Coefficient  Atom+Function         Bfn.  Coefficient  Atom+Function  
  ----- ------------  ---------------      ----- ------------  ---------------
    59      2.358412  3 C  pz               100     -1.337100  6 C  pz         
    13     -0.919931  1 O  pz                36     -0.676792  2 C  pz         
    87      0.345270  5 H  pz               132     -0.344440  8 O  pz         
   151      0.321215  9 H  pz                56     -0.304983  3 C  pz         
    53     -0.275683  3 C  pz                94      0.225306  6 C  pz         
 
 Vector   37  Occ=0.000000D+00  E= 2.293755D-01  Symmetry=a'
              MO Center= -3.9D-01,  4.0D-01,  6.1D-16, r^2= 1.4D+01
   Bfn.  Coefficient  Atom+Function         Bfn.  Coefficient  Atom+Function  
  ----- ------------  ---------------      ----- ------------  ---------------
    27     27.981904  2 C  s                 91    -22.674037  6 C  s          
    58    -12.280207  3 C  py                 4     -6.881118  1 O  s          
    98     -4.440485  6 C  px                80     -4.170875  5 H  s          
    99     -3.521255  6 C  py               123      3.302207  8 O  s          
   144      3.151451  9 H  s                 34      2.619873  2 C  px         
 
 Vector   38  Occ=0.000000D+00  E= 2.452503D-01  Symmetry=a'
              MO Center= -2.5D-01,  1.4D+00,  1.3D-14, r^2= 1.7D+01
   Bfn.  Coefficient  Atom+Function         Bfn.  Coefficient  Atom+Function  
  ----- ------------  ---------------      ----- ------------  ---------------
    91     19.942214  6 C  s                 35     10.824354  2 C  py         
    27     -7.645473  2 C  s                 99      6.973156  6 C  py         
    50     -5.402509  3 C  s                  4     -5.068612  1 O  s          
    81     -4.920192  5 H  s                145      4.492172  9 H  s          
    71      3.523095  4 H  s                 12     -3.443026  1 O  py         
 
 Vector   39  Occ=0.000000D+00  E= 2.566993D-01  Symmetry=a"
              MO Center=  4.8D-02,  1.7D+00, -1.2D-16, r^2= 9.2D+00
   Bfn.  Coefficient  Atom+Function         Bfn.  Coefficient  Atom+Function  
  ----- ------------  ---------------      ----- ------------  ---------------
    13      2.262500  1 O  pz                36     -2.231922  2 C  pz         
    59      0.844634  3 C  pz                45      0.363952  2 C  d  1       
   100      0.273259  6 C  pz               119     -0.255371  7 H  pz         
    97      0.244890  6 C  pz                43     -0.234233  2 C  d -1       
    78     -0.217977  4 H  pz                56     -0.204685  3 C  pz         
 
 Vector   40  Occ=0.000000D+00  E= 2.661516D-01  Symmetry=a'
              MO Center=  2.6D-01, -8.4D-01, -2.0D-15, r^2= 1.6D+01
   Bfn.  Coefficient  Atom+Function         Bfn.  Coefficient  Atom+Function  
  ----- ------------  ---------------      ----- ------------  ---------------
    50     18.897906  3 C  s                 91    -15.603722  6 C  s          
     4     -4.282151  1 O  s                123      3.671923  8 O  s          
    58     -3.153573  3 C  py                57     -3.056451  3 C  px         
    99     -3.047960  6 C  py               112     -2.710948  7 H  s          
    34     -2.624838  2 C  px                35      2.637759  2 C  py         
 
 Vector   41  Occ=0.000000D+00  E= 2.868451D-01  Symmetry=a'
              MO Center= -4.9D-01,  1.3D+00, -1.2D-15, r^2= 1.3D+01
   Bfn.  Coefficient  Atom+Function         Bfn.  Coefficient  Atom+Function  
  ----- ------------  ---------------      ----- ------------  ---------------
    50    -32.461243  3 C  s                 27     32.183981  2 C  s          
    35    -10.647422  2 C  py                58     -9.477159  3 C  py         
    34      7.620091  2 C  px                57      5.980043  3 C  px         
    81      4.455558  5 H  s                113     -3.429667  7 H  s          
    91     -3.310168  6 C  s                 72      2.845149  4 H  s          
 
 Vector   42  Occ=0.000000D+00  E= 3.054050D-01  Symmetry=a"
              MO Center=  1.3D-01, -1.9D+00,  2.3D-16, r^2= 1.0D+01
   Bfn.  Coefficient  Atom+Function         Bfn.  Coefficient  Atom+Function  
  ----- ------------  ---------------      ----- ------------  ---------------
   132      2.297739  8 O  pz               100     -2.001951  6 C  pz         
    13     -0.926585  1 O  pz                36      0.867948  2 C  pz         
   109      0.410730  6 C  d  1              78      0.390816  4 H  pz         
   107      0.386647  6 C  d -1              87      0.365080  5 H  pz         
    59      0.328968  3 C  pz               151     -0.288825  9 H  pz         
 
 Vector   43  Occ=0.000000D+00  E= 3.169074D-01  Symmetry=a'
              MO Center=  1.5D-01,  2.1D-01, -9.8D-17, r^2= 1.1D+01
   Bfn.  Coefficient  Atom+Function         Bfn.  Coefficient  Atom+Function  
  ----- ------------  ---------------      ----- ------------  ---------------
    91     22.412745  6 C  s                 50    -18.027640  3 C  s          
    58     13.789309  3 C  py                57      7.616470  3 C  px         
    34     -5.641667  2 C  px                98      5.230616  6 C  px         
    35     -4.904766  2 C  py                81     -4.693161  5 H  s          
   145      4.577784  9 H  s                 99      3.920184  6 C  py         
 
 Vector   44  Occ=0.000000D+00  E= 3.206017D-01  Symmetry=a'
              MO Center= -2.3D-01, -4.7D-02, -2.4D-15, r^2= 1.0D+01
   Bfn.  Coefficient  Atom+Function         Bfn.  Coefficient  Atom+Function  
  ----- ------------  ---------------      ----- ------------  ---------------
    50     35.379719  3 C  s                 27    -22.944612  2 C  s          
    91    -12.123820  6 C  s                 35      8.479559  2 C  py         
   112     -5.437125  7 H  s                 57     -5.086068  3 C  px         
    80      3.041882  5 H  s                144      2.648776  9 H  s          
    49     -2.218725  3 C  s                 54      1.993621  3 C  px         
 
 Vector   45  Occ=0.000000D+00  E= 3.293741D-01  Symmetry=a'
              MO Center=  6.1D-02,  3.8D-01,  3.0D-16, r^2= 1.2D+01
   Bfn.  Coefficient  Atom+Function         Bfn.  Coefficient  Atom+Function  
  ----- ------------  ---------------      ----- ------------  ---------------
    50     34.999271  3 C  s                 91    -19.932769  6 C  s          
    27    -15.230085  2 C  s                 57     -6.485282  3 C  px         
    58     -6.059739  3 C  py                35      5.935199  2 C  py         
    98     -5.519882  6 C  px               113      3.971585  7 H  s          
    34     -3.227861  2 C  px               112     -3.076055  7 H  s          
 
 Vector   46  Occ=0.000000D+00  E= 3.660547D-01  Symmetry=a'
              MO Center= -9.0D-03, -1.4D+00,  9.3D-16, r^2= 1.3D+01
   Bfn.  Coefficient  Atom+Function         Bfn.  Coefficient  Atom+Function  
  ----- ------------  ---------------      ----- ------------  ---------------
    58     10.027589  3 C  py                35     -6.281715  2 C  py         
    99     -5.649216  6 C  py               131      3.626396  8 O  py         
    34     -3.532549  2 C  px                98      3.510878  6 C  px         
    55      2.989732  3 C  py                50     -2.641793  3 C  s          
   144      2.432702  9 H  s                 96      2.250616  6 C  py         
 
 Vector   47  Occ=0.000000D+00  E= 3.683436D-01  Symmetry=a"
              MO Center= -6.2D-01,  1.5D+00,  1.1D-16, r^2= 8.3D+00
   Bfn.  Coefficient  Atom+Function         Bfn.  Coefficient  Atom+Function  
  ----- ------------  ---------------      ----- ------------  ---------------
    36      1.423984  2 C  pz                87     -1.210059  5 H  pz         
    78     -1.046715  4 H  pz               132      0.867449  8 O  pz         
    59     -0.773949  3 C  pz                33      0.600060  2 C  pz         
   100     -0.562048  6 C  pz               119     -0.522788  7 H  pz         
    45      0.363377  2 C  d  1              68     -0.327749  3 C  d  1       
 
 Vector   48  Occ=0.000000D+00  E= 3.705161D-01  Symmetry=a'
              MO Center= -1.4D-02, -6.5D-01, -1.8D-15, r^2= 1.3D+01
   Bfn.  Coefficient  Atom+Function         Bfn.  Coefficient  Atom+Function  
  ----- ------------  ---------------      ----- ------------  ---------------
    91    -14.850203  6 C  s                 50     14.162758  3 C  s          
    98     -7.615184  6 C  px               145     -6.677290  9 H  s          
    58     -5.703648  3 C  py                34      5.520215  2 C  px         
    57     -5.176128  3 C  px                81      5.073975  5 H  s          
    99     -4.973182  6 C  py                 4     -3.237065  1 O  s          
 
 Vector   49  Occ=0.000000D+00  E= 3.886802D-01  Symmetry=a'
              MO Center= -2.8D-01,  1.2D-01, -7.2D-15, r^2= 1.2D+01
   Bfn.  Coefficient  Atom+Function         Bfn.  Coefficient  Atom+Function  
  ----- ------------  ---------------      ----- ------------  ---------------
    27     12.221788  2 C  s                  4     -7.622258  1 O  s          
    50     -5.380301  3 C  s                 91     -5.351519  6 C  s          
    58     -5.033873  3 C  py                49      4.147322  3 C  s          
    55      3.657498  3 C  py                26     -3.295217  2 C  s          
    31     -2.953257  2 C  px               112      2.932511  7 H  s          
 
 Vector   50  Occ=0.000000D+00  E= 3.960316D-01  Symmetry=a"
              MO Center= -4.1D-01, -5.5D-03, -2.8D-16, r^2= 8.5D+00
   Bfn.  Coefficient  Atom+Function         Bfn.  Coefficient  Atom+Function  
  ----- ------------  ---------------      ----- ------------  ---------------
   151      1.593803  9 H  pz               119      1.351556  7 H  pz         
    97     -1.082133  6 C  pz                87      0.983741  5 H  pz         
    33     -0.819713  2 C  pz                68      0.799573  3 C  d  1       
    78     -0.679929  4 H  pz               100     -0.569868  6 C  pz         
   109     -0.554187  6 C  d  1              59     -0.517259  3 C  pz         
 
 Vector   51  Occ=0.000000D+00  E= 4.179071D-01  Symmetry=a'
              MO Center= -1.8D-01, -8.2D-01,  1.7D-17, r^2= 1.3D+01
   Bfn.  Coefficient  Atom+Function         Bfn.  Coefficient  Atom+Function  
  ----- ------------  ---------------      ----- ------------  ---------------
    91     12.908533  6 C  s                 27     -9.486661  2 C  s          
    58      7.909903  3 C  py               123     -7.454916  8 O  s          
     4      3.497802  1 O  s                 71     -2.593256  4 H  s          
    35     -2.402337  2 C  py                11     -2.363961  1 O  px         
    99     -2.312493  6 C  py                49      2.197991  3 C  s          
 
 Vector   52  Occ=0.000000D+00  E= 4.394365D-01  Symmetry=a'
              MO Center=  7.5D-01, -1.1D-01, -6.3D-15, r^2= 1.1D+01
   Bfn.  Coefficient  Atom+Function         Bfn.  Coefficient  Atom+Function  
  ----- ------------  ---------------      ----- ------------  ---------------
    27     29.737570  2 C  s                 50    -28.553608  3 C  s          
    91     14.273098  6 C  s                 57     11.314270  3 C  px         
     4     -8.186176  1 O  s                113     -6.544795  7 H  s          
    35     -5.013930  2 C  py               112     -4.369878  7 H  s          
   123     -4.359036  8 O  s                 58     -3.707124  3 C  py         
 
 Vector   53  Occ=0.000000D+00  E= 4.528622D-01  Symmetry=a'
              MO Center= -2.0D-01,  1.2D+00,  3.7D-15, r^2= 9.9D+00
   Bfn.  Coefficient  Atom+Function         Bfn.  Coefficient  Atom+Function  
  ----- ------------  ---------------      ----- ------------  ---------------
    27     18.424905  2 C  s                  4    -10.772878  1 O  s          
    91     -8.424365  6 C  s                 58     -6.694607  3 C  py         
    55      6.451472  3 C  py                32      6.040333  2 C  py         
    26     -4.411909  2 C  s                 90      4.260912  6 C  s          
    80     -4.226376  5 H  s                 96      3.991743  6 C  py         
 
 Vector   54  Occ=0.000000D+00  E= 4.622973D-01  Symmetry=a"
              MO Center= -9.3D-02,  5.8D-01,  2.5D-15, r^2= 6.8D+00
   Bfn.  Coefficient  Atom+Function         Bfn.  Coefficient  Atom+Function  
  ----- ------------  ---------------      ----- ------------  ---------------
   119      1.325963  7 H  pz                36      1.317964  2 C  pz         
    13     -1.133959  1 O  pz                87     -1.085466  5 H  pz         
    59     -1.066122  3 C  pz                78      0.676439  4 H  pz         
    43      0.629169  2 C  d -1              68      0.546433  3 C  d  1       
   107     -0.540082  6 C  d -1              33      0.531183  2 C  pz         
 
 Vector   55  Occ=0.000000D+00  E= 4.716743D-01  Symmetry=a"
              MO Center= -8.6D-01, -3.8D-02, -3.2D-15, r^2= 8.2D+00
   Bfn.  Coefficient  Atom+Function         Bfn.  Coefficient  Atom+Function  
  ----- ------------  ---------------      ----- ------------  ---------------
   151     -1.663218  9 H  pz               100      1.541826  6 C  pz         
    59     -1.359538  3 C  pz                87      1.005973  5 H  pz         
    78     -0.914614  4 H  pz                97      0.910166  6 C  pz         
   119      0.822698  7 H  pz                13      0.793867  1 O  pz         
   132     -0.469260  8 O  pz                45     -0.454445  2 C  d  1       
 
 Vector   56  Occ=0.000000D+00  E= 4.864810D-01  Symmetry=a'
              MO Center=  2.4D-02,  2.8D-01, -5.4D-15, r^2= 7.5D+00
   Bfn.  Coefficient  Atom+Function         Bfn.  Coefficient  Atom+Function  
  ----- ------------  ---------------      ----- ------------  ---------------
     4      9.113075  1 O  s                 27     -6.668566  2 C  s          
    71     -4.683407  4 H  s                 91     -3.839041  6 C  s          
   144      3.156321  9 H  s                 35     -2.954774  2 C  py         
    96      2.835477  6 C  py                49     -2.690980  3 C  s          
   123      2.476222  8 O  s                 26     -2.117742  2 C  s          
 
 Vector   57  Occ=0.000000D+00  E= 4.974465D-01  Symmetry=a'
              MO Center= -6.1D-01,  1.9D-01,  3.9D-15, r^2= 9.7D+00
   Bfn.  Coefficient  Atom+Function         Bfn.  Coefficient  Atom+Function  
  ----- ------------  ---------------      ----- ------------  ---------------
    91     11.182798  6 C  s                 26      6.976787  2 C  s          
   144     -6.983740  9 H  s                 27     -6.754409  2 C  s          
     4      5.779989  1 O  s                123     -4.367290  8 O  s          
    80     -4.333035  5 H  s                 55     -3.694747  3 C  py         
    96     -3.177587  6 C  py                95     -2.719623  6 C  px         
 
 Vector   58  Occ=0.000000D+00  E= 5.186754D-01  Symmetry=a'
              MO Center= -3.4D-01, -3.4D-01, -1.7D-15, r^2= 1.0D+01
   Bfn.  Coefficient  Atom+Function         Bfn.  Coefficient  Atom+Function  
  ----- ------------  ---------------      ----- ------------  ---------------
    91     11.859095  6 C  s                 50     -7.718986  3 C  s          
    90     -7.610902  6 C  s                 80      7.102930  5 H  s          
   123     -6.938572  8 O  s                 27     -6.083602  2 C  s          
   144      5.591200  9 H  s                 35      4.753957  2 C  py         
    55     -4.569647  3 C  py                99      4.422248  6 C  py         
 

 center of mass
 --------------
 x =   0.04779259 y =  -0.07168226 z =   0.00000000

 moments of inertia (a.u.)
 ------------------
         816.410975473820           0.000000000000           0.000000000000
           0.000000000000          45.488423079984           0.000000000000
           0.000000000000           0.000000000000         861.899398553804
 
  Mulliken analysis of the total density
  --------------------------------------

    Atom       Charge   Shell Charges
 -----------   ------   -------------------------------------------------------
    1 O    8     8.76   2.00  0.82  1.00  0.23  2.83  1.75  0.09  0.02  0.02
    2 C    6     4.90   2.01  0.67  0.42 -0.27  1.90  0.09  0.05  0.15 -0.12
    3 C    6     5.76   2.01  0.65  0.38 -0.12  2.03  0.66  0.12  0.07 -0.04
    4 H    1     0.73   0.69 -0.03 -0.01  0.08 -0.01
    5 H    1     1.39   0.78  0.60  0.02  0.03 -0.03
    6 C    6     4.98   2.01  0.69  0.31 -0.11  1.89  0.09  0.02  0.17 -0.07
    7 H    1     1.35   0.75  0.56  0.02  0.03 -0.01
    8 O    8     8.77   2.00  0.84  1.05  0.16  2.75  1.81  0.11  0.02  0.03
    9 H    1     1.37   0.84  0.52  0.02  0.03 -0.04
 
       Multipole analysis of the density wrt the origin
       ------------------------------------------------
 
     L   x y z        total         open         nuclear
     -   - - -        -----         ----         -------
     0   0 0 0     -0.000000      0.000000     38.000000
 
     1   1 0 0     -1.313667      0.000000      0.000000
     1   0 1 0      2.001852      0.000000     -0.000000
     1   0 0 1      0.000000      0.000000      0.000000
 
     2   2 0 0    -19.327899      0.000000     33.924330
     2   1 1 0     -1.891118      0.000000     -2.418831
     2   1 0 1     -0.000000      0.000000      0.000000
     2   0 2 0    -25.755074      0.000000    429.649698
     2   0 1 1     -0.000000      0.000000      0.000000
     2   0 0 2    -23.005647      0.000000      0.000000
 
                   NWChem MP2 Semi-direct Energy/Gradient Module
                   ---------------------------------------------
 
 
                                H,CHO,H Reference 2
 
 

int_init: setting std/high accuracies to  1.0D-16  1.0D-32
  Basis functions       =    151
  Molecular orbitals    =    151
  Frozen core           =      5
  Frozen virtuals       =      0
  Active alpha occupied =     14
  Active beta occupied  =     14
  Active alpha virtual  =    132
  Active beta virtual   =    132
  Use MO symmetry       = T
  Use skeleton AO sym   = T

  AO/Fock/Back tols     =   1.0D-15  1.0D-15  1.0D-15

 GA uses MA = F    GA memory limited = T

 Available: 
  local mem=  3.77D+08
 global mem=  1.23D+08
 local disk=  0.00D+00

int_init: setting std/high accuracies to  1.0D-16  1.0D-32
  mp2_memr nvloc                     12
  nvloc new                     12
   1 passes of  14:        5242880                     153505                   8297577.
   1 passes of  14: M    376557450           G      122962901           F     371314570.
 
 Semi-direct pass number   1 of   1  for RHF alpha+beta  at       27.5s

int_init: setting std/high accuracies to  1.0D-16  1.0D-32
  vrange nnbf                  11336
  mp2_eaftype                     24  avail_ma_in_mb                   3283
 EAF : mp2_eaftype filesize          24    3257074.
  mp2_eaf for mointskh                      24
Node 0 wrote     15.2 Mb in      0.0 s     Agg I/O rate:  4335.9 Mb/s
 Done moints_semi at       30.8s
  mp2_eaftype                     24  avail_ma_in_mb                   3259
 EAF : mp2_eaftype filesize          24    3257074.
  mp2_eaf for kh                     24
  mp2_eaftype                     10  avail_ma_in_mb                   3259
 EAF : mp2_eaftype filesize          10     620928.
  mp2_eaf for ta tb                     10
  mp2_eaf for ta                      10
  mp2_eaf for tb                      10
 Done maket at       31.0s
 Done pijab at       31.0s
 Done wijab at       31.0s
 Done lai at       31.5s

int_init: setting std/high accuracies to  1.0D-16  1.0D-32
  mp2_eaftype                     28  avail_ma_in_mb                   3238
 EAF : mp2_eaftype filesize          28    3726771.
  mp2_eaf for 2pdm                      28
 Done nonsep at       40.6s
 Done multipass loop at       40.6s


          -------------------------------------------
          SCF energy                -265.648710466390
          Correlation energy          -0.800196712781
          Singlet pairs               -0.486342013559
          Triplet pairs               -0.313854699221
          Total MP2 energy          -266.448907179170
          -------------------------------------------



          ---------------------------------------------------
                    Spin Component Scaled (SCS) MP2
          Same spin pairs                     -0.209236466147
          Same spin scaling factor             0.333333333333
          Opposite spin pairs                 -0.590960246633
          Opposite spin scaling fact.          1.200000000000
          SCS-MP2 correlation energy          -0.778897784676
          Total SCS-MP2 energy              -266.427608251065
          ---------------------------------------------------


int_init: setting std/high accuracies to  1.0D-16  1.0D-32
                                NWChem CPHF Module
                                ------------------
 
 

int_init: setting std/high accuracies to  1.0D-16  1.0D-32
    scftype = RHF 
    nclosed =   19
      nopen =    0
  variables =     2508
  tolerance =   1.0D-06
  max. iter =  999

 Warning: symmetry breaking in RHF:   5.472884104655060E-014
 SCF residual:   7.840406272342628E-011

            ----- linear solve (tol: 1.0E-06 prod-acc: 3.6E-14) -----

               iter nbas    rnorm     rnorm-scal   ratio     time
               ---- ---- ----------- ----------- --------- -------
                  1    1  7.0705E-02  3.9608E-01    0.0000    42.5
                  2    2  1.8820E-02  1.0543E-01    0.2662    43.4
                  3    3  6.4111E-03  3.5914E-02    0.3407    44.3
                  4    4  2.2733E-03  1.2735E-02    0.3546    45.2
                  5    5  8.6735E-04  4.8588E-03    0.3815    46.1
                  6    6  2.8326E-04  1.5868E-03    0.3266    47.0
                  7    7  1.1532E-04  6.4599E-04    0.4071    47.9
                  8    8  4.6447E-05  2.6019E-04    0.4028    48.7
                  9    9  1.3859E-05  7.7638E-05    0.2984    49.6
                 10   10  3.6249E-06  2.0306E-05    0.2615    50.5
                 11   11  8.9637E-07  5.0214E-06    0.2473    51.3
                 12   12  2.3030E-07  1.2901E-06    0.2569    52.1
                 13   13  6.3534E-08  3.5591E-07    0.2759    52.9

 CPHF converged to   3.6D-07 in   13 iters


int_init: setting std/high accuracies to  1.0D-16  1.0D-32
                Dipole Moments (a.u.)
                --------------
         Nuclear       SCF       SCF+MP2
       ----------- ----------- -----------
 X       0.000000   -1.313667   -1.108123
 Y      -0.000000    2.001852    1.806688
 Z       0.000000    0.000000    0.000000
 

 MP2 RHF      natural orbital occupation numbers


              1      
    1    2.0000
    2    2.0000
    3    2.0000
    4    2.0000
    5    2.0000
    6    1.9864
    7    1.9857
    8    1.9807
    9    1.9754
   10    1.9730
   11    1.9672
   12    1.9659
   13    1.9641
   14    1.9627
   15    1.9601
   16    1.9586
   17    1.9537
   18    1.9423
   19    1.9236
   20    0.0668
   21    0.0421
   22    0.0332
   23    0.0290
   24    0.0271
   25    0.0251
   26    0.0205
   27    0.0175
   28    0.0162
   29    0.0162
   30    0.0155
   31    0.0125
   32    0.0119
   33    0.0108
   34    0.0097
   35    0.0093
   36    0.0086
   37    0.0084
   38    0.0081
   39    0.0076
   40    0.0071
   41    0.0068
   42    0.0065
   43    0.0059
   44    0.0058
   45    0.0056
   46    0.0055
   47    0.0051
   48    0.0041
   49    0.0039
   50    0.0034
   51    0.0032
   52    0.0031
   53    0.0027
   54    0.0023
   55    0.0022
   56    0.0022
   57    0.0019
   58    0.0018
   59    0.0016
   60    0.0015
   61    0.0013
   62    0.0013
   63    0.0012
   64    0.0011
   65    0.0010
   66    0.0010
   67    0.0008
   68    0.0008
   69    0.0008
   70    0.0007
   71    0.0006
   72    0.0006
   73    0.0006
   74    0.0006
   75    0.0005
   76    0.0005
   77    0.0005
   78    0.0005
   79    0.0005
   80    0.0005
   81    0.0004
   82    0.0004
   83    0.0004
   84    0.0004
   85    0.0004
   86    0.0003
   87    0.0003
   88    0.0003
   89    0.0003
   90    0.0003
   91    0.0003
   92    0.0003
   93    0.0002
   94    0.0002
   95    0.0002
   96    0.0002
   97    0.0002
   98    0.0002
   99    0.0002
  100    0.0001
  101    0.0001
  102    0.0001
  103    0.0001
  104    0.0001
  105    0.0001
  106    0.0001
  107    0.0001
  108    0.0001
  109    0.0001
  110    0.0001
  111    0.0001
  112    0.0001
  113    0.0001
  114    0.0001
  115    0.0001
  116    0.0000
  117    0.0000
  118    0.0000
  119    0.0000
  120    0.0000
  121    0.0000
  122    0.0000
  123    0.0000
  124    0.0000
  125    0.0000
  126    0.0000
  127    0.0000
  128    0.0000
  129    0.0000
  130    0.0000
  131    0.0000
  132    0.0000
  133    0.0000
  134    0.0000
  135    0.0000
  136    0.0000
  137    0.0000
  138    0.0000
  139    0.0000
  140    0.0000
  141    0.0000
  142    0.0000
  143   -0.0000
  144   -0.0000
  145   -0.0000
  146   -0.0000
  147   -0.0000
  148   -0.0000
  149   -0.0001
  150   -0.0002
  151   -0.0004
 
  MP2 natural orbitals output to ./8tR2.mp2nos
 

int_init: setting std/high accuracies to  1.0D-16  1.0D-32
  Using symmetry

int_init: setting std/high accuracies to  1.0D-16  1.0D-32


                         mp2 ENERGY GRADIENTS

    atom               coordinates                        gradient
                 x          y          z           x          y          z
   1 O       0.467894   4.369863   0.000000    0.006498  -0.041487   0.000000
   2 C      -0.612980   2.102912   0.000000    0.010834   0.030290   0.000000
   3 C       0.675193  -0.127519   0.000000    0.007704  -0.009481   0.000000
   4 H      -0.952071   5.599513   0.000000   -0.024349   0.009672   0.000000
   5 H      -2.661395   2.192048   0.000000    0.010057   0.008120   0.000000
   6 C      -0.720962  -2.546545   0.000000   -0.122446   0.007284   0.000000
   7 H       2.750168  -0.040249   0.000000    0.003765   0.007409   0.000000
   8 O       0.460415  -4.592061   0.000000    0.012063  -0.007410   0.000000
   9 H      -2.610688  -2.546820   0.000000    0.095875  -0.004396   0.000000
 
                 ----------------------------------------
                 |  Time  |  1-e(secs)   |  2-e(secs)   |
                 ----------------------------------------
                 |  CPU   |       0.01   |       5.99   |
                 ----------------------------------------
                 |  WALL  |       0.00   |       6.06   |
                 ----------------------------------------
 -----------------------
 Performance information
 -----------------------

 Timer overhead =  0.00D+00 seconds/call

               Nr. of calls         CPU time (s)                 Wall time (s)                GFlops
             ---------------    -------------------     ------------------------------   -------------------
Name         Min   Avg   Max    Min     Avg     Max     Min     Avg     Max   Mx/calls   Min     Max     Sum
mp2: moin     1     1     1    3.0     3.1     3.1      3.3     3.3     3.3     3.3      0.0     0.0     0.0   
mp2: make     1     1     1   0.11    0.13    0.13     0.13    0.13    0.13    0.13      0.0     0.0     0.0   
mp2: pija     1     1     1   1.50E-2 1.59E-2 1.60E-2  1.59E-2 1.59E-2 1.61E-2 1.61E-2   0.0     0.0     0.0   
mp2: wija     1     1     1   1.70E-2 1.75E-2 1.80E-2  1.74E-2 1.75E-2 1.76E-2 1.76E-2   0.0     0.0     0.0   
mp2: lai      1     1     1   0.46    0.47    0.48     0.48    0.48    0.48    0.48      0.0     0.0     0.0   
mp2: back     1     1     1   0.28    0.28    0.29     0.29    0.29    0.29    0.29      0.0     0.0     0.0   
mp2: nons     1     1     1    7.9     8.3     8.8      7.9     8.3     8.8     8.8      0.0     0.0     0.0   
mp2: laif     1     1     1    1.0     1.0     1.0      1.0     1.0     1.0     1.0      0.0     0.0     0.0   
mp2: cphf     1     1     1    12.     12.     12.      12.     12.     12.     12.      0.0     0.0     0.0   
mp2: wijf     1     1     1    1.0     1.0     1.0      1.0     1.0     1.0     1.0      0.0     0.0     0.0   
mp2: sep      1     1     1    6.0     6.1     6.1      6.1     6.1     6.1     6.1      0.0     0.0     0.0   
mp2: tota     1     1     1    33.     33.     34.      34.     34.     34.     34.      0.0     0.0     0.0   

 The average no. of pstat calls per process was 1.20D+01
 with a timing overhead of 0.00D+00s


@ Step       Energy      Delta E   Gmax     Grms     Xrms     Xmax   Walltime
@ ---- ---------------- -------- -------- -------- -------- -------- --------
@    0    -266.44890718  0.0D+00  0.09587  0.02390  0.00000  0.00000     61.3
                                                                    



                                Z-matrix (user)
                                -------- 

 Units are Angstrom for bonds and degrees for angles

  Constants are marked with an asterisk (*).

  Constrained variables are marked with a plus sign (+).

 
      Type          Name      I     J     K     L     M      Value     Gradient
      ----------- --------  ----- ----- ----- ----- ----- ---------- ----------
    1 Stretch      R1          2     1                       1.32900   -0.03640
    2 Stretch      R2          3     2                       1.36300    0.00419
    3 Bend         A1          3     2     1               124.50000    0.01179
    4 Stretch      R5          4     1                       0.99400    0.02474
    5 Bend         A4          4     1     2               105.40000   -0.00858
    6*Torsion      D180        4     1     2     3         180.00000    0.00000
    7 Stretch      R6          5     2                       1.08500   -0.00969
    8 Bend         A5          5     2     3               122.50000    0.00928
    9*Torsion      D180        5     2     3     4         180.00000   -0.00000
   10 Stretch      R7          6     3                       1.47800    0.01117
   11 Bend         A6          6     3     2               120.00000   -0.00240
   12*Torsion      D180        6     3     2     1         180.00000   -0.00000
   13 Stretch      R8          7     3                       1.09900    0.00407
   14 Bend         A7          7     3     2               117.60000   -0.00796
   15*Torsion      D0          7     3     2     1           0.00000    0.00000
   16 Stretch      R9          8     6                       1.25000    0.01245
   17 Bend         A8          8     6     3               120.00000   -0.00842
   18*Torsion      D180        8     6     3     2         180.00000   -0.00000
   19 Stretch      R10         9     6                       1.00000   -0.09587
   20 Bend         A9          9     6     3               120.00000    0.00441
   21*Torsion      D0          9     6     3     2           0.00000   -0.00000
 
                                 NWChem SCF Module
                                 -----------------
 
 
                                H,CHO,H Reference 2
 
 

  ao basis        = "ao basis"
  functions       =   151
  atoms           =     9
  closed shells   =    19
  open shells     =     0
  charge          =   0.00
  wavefunction    = RHF 
  input vectors   = ./8tR2.movecs
  output vectors  = ./8tR2.movecs
  use symmetry    = T
  symmetry adapt  = T


 Summary of "ao basis" -> "ao basis" (spherical)
 ------------------------------------------------------------------------------
       Tag                 Description            Shells   Functions and Types
 ---------------- ------------------------------  ------  ---------------------
 O                        aug-cc-pVDZ                9       23   4s3p2d
 C                        aug-cc-pVDZ                9       23   4s3p2d
 H                        aug-cc-pVDZ                5        9   3s2p


      Symmetry analysis of basis
      --------------------------
 
        a'        108
        a"         43
 

int_init: setting std/high accuracies to  1.0D-16  1.0D-32

 Forming initial guess at      61.4s


 Forcing the number of linearly dependent vectors to be  0

 Loading old vectors from job with title :

H,CHO,H Reference 2

 
      Symmetry analysis of molecular orbitals - initial
      -------------------------------------------------
 
  Numbering of irreducible representations: 
 
     1 a'          2 a"      
 
  Orbital symmetries:
 
     1 a'          2 a'          3 a'          4 a'          5 a'      
     6 a'          7 a'          8 a'          9 a'         10 a'      
    11 a'         12 a'         13 a'         14 a"         15 a'      
    16 a'         17 a"         18 a'         19 a"         20 a'      
    21 a'         22 a'         23 a'         24 a"         25 a"      
    26 a'         27 a'         28 a'         29 a"      
 

 Starting SCF solution at      61.4s



 ----------------------------------------------
         Quadratically convergent ROHF

 Convergence threshold     :          1.000E-09
 Maximum no. of iterations :           99
 Final Fock-matrix accuracy:          1.000E-15
 ----------------------------------------------

 Warning: symmetry breaking in RHF:   5.493507550331641E-014

              iter       energy          gnorm     gmax       time
             ----- ------------------- --------- --------- --------
                 1     -265.6433187158  4.73D-01  6.10D-02     61.0
 Warning: symmetry breaking in RHF:   5.639054036857023E-014
                 2     -265.6598902449  3.11D-02  3.89D-03     63.6
 Warning: symmetry breaking in RHF:   5.656152129657765E-014
                 3     -265.6600045945  4.13D-04  8.45D-05     67.8
 Warning: symmetry breaking in RHF:   5.655805379640290E-014
                 4     -265.6600046228  7.52D-08  1.07D-08     75.5
 Warning: symmetry breaking in RHF:   5.655598588332062E-014
                 5     -265.6600046228  4.69D-11  8.58D-12     82.1


       Final RHF  results 
       ------------------ 

         Total SCF energy =   -265.660004622830
      One-electron energy =   -663.940217257870
      Two-electron energy =    246.081322953000
 Nuclear repulsion energy =    152.198889682040

        Time for solution =     22.0s


 
       Symmetry analysis of molecular orbitals - final
       -----------------------------------------------
 
  Numbering of irreducible representations: 
 
     1 a'          2 a"      
 
  Orbital symmetries:
 
     1 a'          2 a'          3 a'          4 a'          5 a'      
     6 a'          7 a'          8 a'          9 a'         10 a'      
    11 a'         12 a'         13 a'         14 a"         15 a'      
    16 a'         17 a"         18 a'         19 a"         20 a'      
    21 a'         22 a'         23 a'         24 a"         25 a"      
    26 a'         27 a'         28 a'         29 a"      
 
             Final eigenvalues
             -----------------

              1      
    1  -20.6404
    2  -20.5562
    3  -11.3570
    4  -11.3448
    5  -11.2526
    6   -1.4418
    7   -1.3706
    8   -1.0809
    9   -0.8876
   10   -0.7970
   11   -0.7579
   12   -0.6858
   13   -0.6193
   14   -0.6112
   15   -0.6090
   16   -0.5576
   17   -0.5246
   18   -0.4250
   19   -0.3694
   20    0.0195
   21    0.0412
   22    0.0517
   23    0.0654
   24    0.0799
   25    0.0914
   26    0.1116
   27    0.1204
   28    0.1279
   29    0.1329
 
                       ROHF Final Molecular Orbital Analysis
                       -------------------------------------
 
 Vector    6  Occ=2.000000D+00  E=-1.441766D+00  Symmetry=a'
              MO Center=  8.2D-02,  2.2D+00,  6.2D-18, r^2= 5.8D-01
   Bfn.  Coefficient  Atom+Function         Bfn.  Coefficient  Atom+Function  
  ----- ------------  ---------------      ----- ------------  ---------------
     3      0.477386  1 O  s                  2      0.419568  1 O  s          
    27     -0.244231  2 C  s                 70      0.198807  4 H  s          
    32     -0.172605  2 C  py         
 
 Vector    7  Occ=2.000000D+00  E=-1.370626D+00  Symmetry=a'
              MO Center=  1.2D-01, -2.1D+00, -2.5D-17, r^2= 5.6D-01
   Bfn.  Coefficient  Atom+Function         Bfn.  Coefficient  Atom+Function  
  ----- ------------  ---------------      ----- ------------  ---------------
   122      0.452267  8 O  s                121      0.399241  8 O  s          
    90      0.260927  6 C  s                 55      0.223297  3 C  py         
    89      0.217212  6 C  s                 26     -0.173350  2 C  s          
    96      0.155350  6 C  py         
 
 Vector    8  Occ=2.000000D+00  E=-1.080946D+00  Symmetry=a'
              MO Center= -5.1D-02,  3.3D-01,  3.3D-17, r^2= 1.7D+00
   Bfn.  Coefficient  Atom+Function         Bfn.  Coefficient  Atom+Function  
  ----- ------------  ---------------      ----- ------------  ---------------
    48      0.299133  3 C  s                 25      0.250973  2 C  s          
    49      0.188132  3 C  s                 26      0.166691  2 C  s          
    50     -0.154173  3 C  s          
 
 Vector    9  Occ=2.000000D+00  E=-8.875574D-01  Symmetry=a'
              MO Center= -1.4D-01,  2.9D-01,  1.0D-32, r^2= 3.6D+00
   Bfn.  Coefficient  Atom+Function         Bfn.  Coefficient  Atom+Function  
  ----- ------------  ---------------      ----- ------------  ---------------
    26      0.302525  2 C  s                  6     -0.252899  1 O  py         
    25      0.235447  2 C  s                 89     -0.231830  6 C  s          
[...]
          12     0.00000     0.00000     0.16402    -0.10022     0.18630     0.00000
          13    -0.12777    -0.00511     0.00000     0.00000     0.00000    -0.04975
          14    -0.09091     0.07975     0.00000     0.00000     0.00000     0.09103
          15     0.00000     0.00000     0.39426    -0.18303    -0.00118     0.00000
          16    -0.04976    -0.13427     0.00000     0.00000     0.00000    -0.01934
          17    -0.05410     0.01881     0.00000     0.00000     0.00000     0.10538
          18     0.00000     0.00000     0.15567     0.06894    -0.04736     0.00000
          19    -0.09235    -0.06375     0.00000     0.00000     0.00000    -0.03594
          20     0.00450    -0.07821     0.00000     0.00000     0.00000     0.12822
          21     0.00000     0.00000    -0.25156     0.29589     0.16777     0.00000
          22    -0.01382    -0.19376     0.00000     0.00000     0.00000    -0.00533
          23    -0.03607    -0.01104     0.00000     0.00000     0.00000     0.11241
          24     0.00000     0.00000     0.03846     0.18996    -0.06605     0.00000
          25    -0.05204    -0.13049     0.00000     0.00000     0.00000    -0.02023
          26    -0.09052     0.07910     0.00000     0.00000     0.00000     0.09119
          27     0.00000     0.00000     0.40405    -0.10214    -0.13131     0.00000

                    7           8           9          10          11          12
 
 P.Frequency      145.60      219.32      319.34      421.89      488.64      555.57
 
           1     0.00000     0.10404     0.00000     0.00000    -0.01233     0.03252
           2     0.00000    -0.03299     0.00000     0.00000     0.15922    -0.02995
           3    -0.08853     0.00000    -0.10848    -0.01173     0.00000     0.00000
           4     0.00000    -0.07869     0.00000     0.00000     0.05969    -0.11522
           5     0.00000     0.04575     0.00000     0.00000     0.08275     0.03550
           6     0.02295     0.00000     0.12317    -0.09931     0.00000     0.00000
           7     0.00000    -0.15296     0.00000     0.00000    -0.03598     0.00352
           8     0.00000     0.00077     0.00000     0.00000    -0.01605     0.09498
           9     0.18603     0.00000     0.05977     0.00084     0.00000     0.00000
          10     0.00000     0.21066     0.00000     0.00000    -0.10105     0.15316
          11     0.00000     0.07513     0.00000     0.00000     0.07143     0.09227
          12    -0.19132     0.00000     0.42838     0.83293     0.00000     0.00000
          13     0.00000    -0.08241     0.00000     0.00000     0.05625    -0.11615
          14     0.00000     0.18290     0.00000     0.00000     0.10424     0.09196
          15    -0.05985     0.00000     0.24834    -0.25251     0.00000     0.00000
          16     0.00000    -0.05021     0.00000     0.00000    -0.00539     0.13329
          17     0.00000    -0.04803     0.00000     0.00000    -0.11170    -0.00266
          18     0.07296     0.00000    -0.11212     0.05743     0.00000     0.00000
          19     0.00000    -0.15166     0.00000     0.00000    -0.03030     0.00071
          20     0.00000     0.00880     0.00000     0.00000    -0.07857     0.38569
          21     0.23615     0.00000     0.03088     0.15765     0.00000     0.00000
          22     0.00000     0.11249     0.00000     0.00000     0.00373    -0.05956
          23     0.00000     0.02947     0.00000     0.00000    -0.12190    -0.10758
          24    -0.13073     0.00000     0.03640    -0.01752     0.00000     0.00000
          25     0.00000    -0.05689     0.00000     0.00000    -0.00641     0.13432
          26     0.00000    -0.19304     0.00000     0.00000    -0.15359     0.09088
          27     0.13774     0.00000    -0.40678     0.21471     0.00000     0.00000

                   13          14          15          16          17          18
 
 P.Frequency      836.32      951.56     1002.72     1151.19     1162.51     1202.36
 
           1     0.00000     0.00000     0.00000     0.01411     0.00877    -0.07317
           2     0.00000     0.00000     0.00000     0.05958    -0.01416    -0.11945
           3    -0.02969     0.00906     0.00213     0.00000     0.00000     0.00000
           4     0.00000     0.00000     0.00000    -0.10673     0.05029     0.07320
           5     0.00000     0.00000     0.00000    -0.04984    -0.01771     0.13122
           6     0.14215    -0.07770    -0.03415     0.00000     0.00000     0.00000
           7     0.00000     0.00000     0.00000     0.12940     0.04981     0.03596
           8     0.00000     0.00000     0.00000     0.01767     0.05395     0.11919
           9    -0.12251    -0.05653     0.05576     0.00000     0.00000     0.00000
          10     0.00000     0.00000     0.00000     0.36203    -0.16513     0.19125
          11     0.00000     0.00000     0.00000     0.41428    -0.19145     0.13149
          12    -0.07507    -0.01875    -0.02687     0.00000     0.00000     0.00000
          13     0.00000     0.00000     0.00000    -0.10521     0.05280     0.08216
          14     0.00000     0.00000     0.00000    -0.29659     0.02946     0.02320
          15    -0.38968     0.67595     0.25597     0.00000     0.00000     0.00000
          16     0.00000     0.00000     0.00000    -0.08616    -0.11729    -0.04449
          17     0.00000     0.00000     0.00000    -0.04639    -0.06779    -0.01856
          18    -0.01154     0.05351    -0.16708     0.00000     0.00000     0.00000
          19     0.00000     0.00000     0.00000     0.13920     0.04209     0.04770
          20     0.00000     0.00000     0.00000    -0.08219     0.75232    -0.25291
          21     0.60168     0.59487     0.12568     0.00000     0.00000     0.00000
          22     0.00000     0.00000     0.00000     0.01423     0.01626     0.00799
          23     0.00000     0.00000     0.00000     0.00374     0.00851    -0.03429
          24     0.00275    -0.01618     0.04004     0.00000     0.00000     0.00000
          25     0.00000     0.00000     0.00000    -0.08992    -0.12241    -0.05674
          26     0.00000     0.00000     0.00000    -0.10506    -0.12498    -0.22248
          27     0.19426    -0.17785     0.70809     0.00000     0.00000     0.00000

                   19          20          21          22          23          24
 
 P.Frequency     1326.44     1346.68     1419.87     1696.40     1721.68     2936.42
 
           1    -0.07158     0.02131    -0.02205    -0.00635     0.00963    -0.00010
           2    -0.01705    -0.00040     0.00972     0.02224    -0.01595     0.00070
           3     0.00000     0.00000     0.00000     0.00000     0.00000     0.00000
           4     0.03728    -0.09253     0.01652     0.04067    -0.05470    -0.00087
           5     0.01523    -0.00321    -0.03597    -0.12954     0.14237    -0.00086
           6     0.00000     0.00000     0.00000     0.00000     0.00000     0.00000
           7     0.01427     0.11260     0.00705    -0.03862     0.05174    -0.00039
           8    -0.11572     0.01940    -0.05443     0.06744    -0.14458    -0.00265
           9     0.00000     0.00000     0.00000     0.00000     0.00000     0.00000
          10     0.33002    -0.25831     0.11812     0.07781    -0.08887     0.00019
          11     0.37493    -0.27955     0.14660     0.10478    -0.10766     0.00258
          12     0.00000     0.00000     0.00000     0.00000     0.00000     0.00000
          13     0.02566    -0.11395     0.01423     0.05256    -0.06926     0.01396
          14     0.49579     0.66986     0.25379     0.16538    -0.20134     0.00609
          15     0.00000     0.00000     0.00000     0.00000     0.00000     0.00000
          16    -0.01452    -0.03759     0.07257    -0.06358    -0.04163     0.07946
          17    -0.01205    -0.01265     0.02657     0.16831     0.13309     0.00124
          18     0.00000     0.00000     0.00000     0.00000     0.00000     0.00000
          19     0.01227     0.12886     0.00186    -0.06049     0.06327     0.00500
          20     0.23631    -0.28532     0.12709    -0.00918     0.15574     0.00116
          21     0.00000     0.00000     0.00000     0.00000     0.00000     0.00000
          22     0.02016     0.00944    -0.06152     0.05179     0.03237     0.00052
          23     0.00638    -0.00726     0.05498    -0.11315    -0.06304    -0.00169
          24     0.00000     0.00000     0.00000     0.00000     0.00000     0.00000
          25     0.00726    -0.03601     0.04744    -0.05851    -0.04094    -0.95684
          26     0.40223    -0.02557    -0.79428    -0.08257    -0.15158     0.03273
          27     0.00000     0.00000     0.00000     0.00000     0.00000     0.00000

                   25          26          27
 
 P.Frequency     3195.00     3245.69     3829.15
 
           1    -0.00154    -0.00019     0.04153
           2    -0.00016     0.00039    -0.04450
           3     0.00000     0.00000     0.00000
           4     0.08367     0.00356     0.00301
           5    -0.00299    -0.00602     0.00044
           6     0.00000     0.00000     0.00000
           7    -0.00187    -0.08437    -0.00010
           8     0.00496     0.00154     0.00098
           9     0.00000     0.00000     0.00000
          10     0.01217     0.00067    -0.68079
          11    -0.00328     0.00308     0.68536
          12     0.00000     0.00000     0.00000
          13    -0.95272    -0.00278    -0.00891
          14    -0.01666    -0.00059     0.00584
          15     0.00000     0.00000     0.00000
          16     0.00123     0.00065    -0.00021
          17     0.00051     0.00316    -0.00045
          18     0.00000     0.00000     0.00000
          19    -0.00876     0.95209    -0.00157
          20     0.00019     0.01447     0.00065
          21     0.00000     0.00000     0.00000
          22    -0.00005     0.00008    -0.00004
          23    -0.00033    -0.00050     0.00019
          24     0.00000     0.00000     0.00000
          25    -0.01393     0.00608     0.00073
          26    -0.00203     0.00075    -0.00028
          27     0.00000     0.00000     0.00000



 ----------------------------------------------------------------------------
 Normal Eigenvalue ||    Projected Derivative Dipole Moments (debye/angs)
  Mode   [cm**-1]  ||      [d/dqX]             [d/dqY]           [d/dqZ]
 ------ ---------- || ------------------ ------------------ -----------------
    1       -0.000 ||      -0.146              -0.082             0.000
    2       -0.000 ||       0.241               0.136             0.000
    3       -0.000 ||       0.000               0.000             0.536
    4       -0.000 ||       0.000               0.000            -0.532
    5       -0.000 ||       0.000               0.000             0.054
    6        0.000 ||      -0.057              -0.032             0.000
    7      145.598 ||       0.000               0.000             0.110
    8      219.323 ||      -0.327               0.010             0.000
    9      319.340 ||       0.000               0.000             0.727
   10      421.889 ||       0.000               0.000             1.462
   11      488.643 ||      -0.126              -0.530             0.000
   12      555.573 ||       0.329               0.753             0.000
   13      836.319 ||       0.000               0.000             0.306
   14      951.563 ||       0.000               0.000             1.020
   15     1002.722 ||       0.000               0.000             0.302
   16     1151.185 ||       0.027              -1.076             0.000
   17     1162.507 ||      -0.491              -1.215             0.000
   18     1202.365 ||       0.160               1.886             0.000
   19     1326.440 ||       0.417               1.706             0.000
   20     1346.681 ||      -0.578              -0.859             0.000
   21     1419.866 ||       0.214               0.135             0.000
   22     1696.403 ||      -0.356               0.529             0.000
   23     1721.683 ||      -0.393               3.289             0.000
   24     2936.416 ||       1.497               0.069             0.000
   25     3195.000 ||       0.394               0.201             0.000
   26     3245.687 ||       0.048              -0.170             0.000
   27     3829.150 ||      -0.698               1.756             0.000
 ----------------------------------------------------------------------------



  
  
 ----------------------------------------------------------------------------
 Normal Eigenvalue ||           Projected Infra Red Intensities
  Mode   [cm**-1]  || [atomic units] [(debye/angs)**2] [(KM/mol)] [arbitrary]
 ------ ---------- || -------------- ----------------- ---------- -----------
    1       -0.000 ||    0.001213           0.028         1.182       0.224
    2       -0.000 ||    0.003324           0.077         3.241       0.613
    3       -0.000 ||    0.012459           0.287        12.145       2.298
    4       -0.000 ||    0.012272           0.283        11.963       2.264
    5       -0.000 ||    0.000128           0.003         0.125       0.024
    6        0.000 ||    0.000184           0.004         0.180       0.034
    7      145.598 ||    0.000526           0.012         0.512       0.097
    8      219.323 ||    0.004626           0.107         4.510       0.853
    9      319.340 ||    0.022915           0.529        22.339       4.228
   10      421.889 ||    0.092622           2.137        90.293      17.088
   11      488.643 ||    0.012857           0.297        12.534       2.372
   12      555.573 ||    0.029271           0.675        28.535       5.400
   13      836.319 ||    0.004061           0.094         3.959       0.749
   14      951.563 ||    0.045124           1.041        43.989       8.325
   15     1002.722 ||    0.003941           0.091         3.842       0.727
   16     1151.185 ||    0.050197           1.158        48.934       9.261
   17     1162.507 ||    0.074450           1.718        72.578      13.735
   18     1202.365 ||    0.155229           3.581       151.325      28.638
   19     1326.440 ||    0.133673           3.084       130.312      24.661
   20     1346.681 ||    0.046479           1.072        45.310       8.575
   21     1419.866 ||    0.002788           0.064         2.718       0.514
   22     1696.403 ||    0.017595           0.406        17.153       3.246
   23     1721.683 ||    0.475592          10.972       463.631      87.741
   24     2936.416 ||    0.097345           2.246        94.897      17.959
   25     3195.000 ||    0.008470           0.195         8.257       1.563
   26     3245.687 ||    0.001354           0.031         1.320       0.250
   27     3829.150 ||    0.154815           3.572       150.922      28.562
 ----------------------------------------------------------------------------



 vib:animation  F

 Task  times  cpu:     2764.4s     wall:     2809.7s
 
 
                                NWChem Input Module
                                -------------------
 
 
 Summary of allocated global arrays
-----------------------------------
  No active global arrays



                         GA Statistics for process    0
                         ------------------------------

       create   destroy   get      put      acc     scatter   gather  read&inc
calls: 6.15e+04 6.15e+04 5.40e+06 9.01e+05 2.10e+06    0        0     7.62e+04 
number of processes/call 1.81e+01 5.10e+01 2.19e+01 0.00e+00 0.00e+00
bytes total:             5.37e+09 6.56e+09 1.54e+09 0.00e+00 0.00e+00 6.09e+05
bytes remote:            3.31e+09 4.52e+09 1.21e+09 0.00e+00 0.00e+00 0.00e+00
Max memory consumed for GA by this process: 61382856 bytes
 
MA_summarize_allocated_blocks: starting scan ...
MA_summarize_allocated_blocks: scan completed: 0 heap blocks, 0 stack blocks
MA usage statistics:

	allocation statistics:
					      heap	     stack
					      ----	     -----
	current number of blocks	         0	         0
	maximum number of blocks	        25	        39
	current total bytes		         0	         0
	maximum total bytes		  51845216	  27107544
	maximum total K-bytes		     51846	     27108
	maximum total M-bytes		        52	        28
 
 
                                     CITATION
                                     --------
                Please cite the following reference when publishing
                           results obtained with NWChem:
 
          E. Apr, E. J. Bylaska, W. A. de Jong, N. Govind, K. Kowalski,
       T. P. Straatsma, M. Valiev, H. J. J. van Dam, Y. Alexeev, J. Anchell,
       V. Anisimov, F. W. Aquino, R. Atta-Fynn, J. Autschbach, N. P. Bauman,
     J. C. Becca, D. E. Bernholdt, K. Bhaskaran-Nair, S. Bogatko, P. Borowski,
        J. Boschen, J. Brabec, A. Bruner, E. Caut, Y. Chen, G. N. Chuev,
      C. J. Cramer, J. Daily, M. J. O. Deegan, T. H. Dunning Jr., M. Dupuis,
   K. G. Dyall, G. I. Fann, S. A. Fischer, A. Fonari, H. Frchtl, L. Gagliardi,
      J. Garza, N. Gawande, S. Ghosh, K. Glaesemann, A. W. Gtz, J. Hammond,
       V. Helms, E. D. Hermes, K. Hirao, S. Hirata, M. Jacquelin, L. Jensen,
   B. G. Johnson, H. Jnsson, R. A. Kendall, M. Klemm, R. Kobayashi, V. Konkov,
      S. Krishnamoorthy, M. Krishnan, Z. Lin, R. D. Lins, R. J. Littlefield,
      A. J. Logsdail, K. Lopata, W. Ma, A. V. Marenich, J. Martin del Campo,
   D. Mejia-Rodriguez, J. E. Moore, J. M. Mullin, T. Nakajima, D. R. Nascimento,
    J. A. Nichols, P. J. Nichols, J. Nieplocha, A. Otero-de-la-Roza, B. Palmer,
    A. Panyala, T. Pirojsirikul, B. Peng, R. Peverati, J. Pittner, L. Pollack,
   R. M. Richard, P. Sadayappan, G. C. Schatz, W. A. Shelton, D. W. Silverstein,
   D. M. A. Smith, T. A. Soares, D. Song, M. Swart, H. L. Taylor, G. S. Thomas,
            V. Tipparaju, D. G. Truhlar, K. Tsemekhman, T. Van Voorhis,
     . Vzquez-Mayagoitia, P. Verma, O. Villa, A. Vishnu, K. D. Vogiatzis,
        D. Wang, J. H. Weare, M. J. Williamson, T. L. Windus, K. Woliski,
        A. T. Wong, Q. Wu, C. Yang, Q. Yu, M. Zacharias, Z. Zhang, Y. Zhao,
                                and R. J. Harrison
                        "NWChem: Past, present, and future
                         J. Chem. Phys. 152, 184102 (2020)
                               doi:10.1063/5.0004997
 
                                      AUTHORS
                                      -------
     E. Apra, E. J. Bylaska, N. Govind, K. Kowalski, M. Valiev, W. A. de Jong,
      T. P. Straatsma, H. J. J. van Dam, D. Wang, T. L. Windus, N. P. Bauman,
       A. Panyala, J. Hammond, J. Autschbach, K. Bhaskaran-Nair, J. Brabec,
    K. Lopata, S. A. Fischer, S. Krishnamoorthy, M. Jacquelin, W. Ma, M. Klemm,
       O. Villa, Y. Chen, V. Anisimov, F. Aquino, S. Hirata, M. T. Hackler,
           Eric Hermes, L. Jensen, J. E. Moore, J. C. Becca, V. Konjkov,
            D. Mejia-Rodriguez, T. Risthaus, M. Malagoli, A. Marenich,
   A. Otero-de-la-Roza, J. Mullin, P. Nichols, R. Peverati, J. Pittner, Y. Zhao,
        P.-D. Fan, A. Fonari, M. J. Williamson, R. J. Harrison, J. R. Rehr,
      M. Dupuis, D. Silverstein, D. M. A. Smith, J. Nieplocha, V. Tipparaju,
      M. Krishnan, B. E. Van Kuiken, A. Vazquez-Mayagoitia, M. Swart, Q. Wu,
   T. Van Voorhis, A. A. Auer, M. Nooijen, L. D. Crosby, E. Brown, G. Cisneros,
     G. I. Fann, H. Fruchtl, J. Garza, K. Hirao, R. A. Kendall, J. A. Nichols,
       K. Tsemekhman, K. Wolinski, J. Anchell, D. E. Bernholdt, P. Borowski,
       T. Clark, D. Clerc, H. Dachsel, M. J. O. Deegan, K. Dyall, D. Elwood,
      E. Glendening, M. Gutowski, A. C. Hess, J. Jaffe, B. G. Johnson, J. Ju,
        R. Kobayashi, R. Kutteh, Z. Lin, R. Littlefield, X. Long, B. Meng,
      T. Nakajima, S. Niu, L. Pollack, M. Rosing, K. Glaesemann, G. Sandrone,
      M. Stave, H. Taylor, G. Thomas, J. H. van Lenthe, A. T. Wong, Z. Zhang.

 Total times  cpu:     3430.5s     wall:     3488.9s
