 Entering Gaussian System, Link 0=g16
 Input=h2o_h2o_mp2_avtz_opt_anharm.gjf
 Output=h2o_h2o_mp2_avtz_opt_anharm.log
 Initial command:
 /sw/contrib/gaussian/g16/A03/g16/l1.exe "/gscratch/scrubbed/gds001/Gau-10586.inp" -scrdir="/gscratch/scrubbed/gds001/"
 Entering Link 1 = /sw/contrib/gaussian/g16/A03/g16/l1.exe PID=     10587.
  
 Copyright (c) 1988,1990,1992,1993,1995,1998,2003,2009,2016,
            Gaussian, Inc.  All Rights Reserved.
  
 This is part of the Gaussian(R) 16 program.  It is based on
 the Gaussian(R) 09 system (copyright 2009, Gaussian, Inc.),
 the Gaussian(R) 03 system (copyright 2003, Gaussian, Inc.),
 the Gaussian(R) 98 system (copyright 1998, Gaussian, Inc.),
 the Gaussian(R) 94 system (copyright 1995, Gaussian, Inc.),
 the Gaussian 92(TM) system (copyright 1992, Gaussian, Inc.),
 the Gaussian 90(TM) system (copyright 1990, Gaussian, Inc.),
 the Gaussian 88(TM) system (copyright 1988, Gaussian, Inc.),
 the Gaussian 86(TM) system (copyright 1986, Carnegie Mellon
 University), and the Gaussian 82(TM) system (copyright 1983,
 Carnegie Mellon University). Gaussian is a federally registered
 trademark of Gaussian, Inc.
  
 This software contains proprietary and confidential information,
 including trade secrets, belonging to Gaussian, Inc.
  
 This software is provided under written license and may be
 used, copied, transmitted, or stored only in accord with that
 written license.
  
 The following legend is applicable only to US Government
 contracts under FAR:
  
                    RESTRICTED RIGHTS LEGEND
  
 Use, reproduction and disclosure by the US Government is
 subject to restrictions as set forth in subparagraphs (a)
 and (c) of the Commercial Computer Software - Restricted
 Rights clause in FAR 52.227-19.
  
 Gaussian, Inc.
 340 Quinnipiac St., Bldg. 40, Wallingford CT 06492
  
  
 ---------------------------------------------------------------
 Warning -- This program may not be used in any manner that
 competes with the business of Gaussian, Inc. or will provide
 assistance to any competitor of Gaussian, Inc.  The licensee
 of this program is prohibited from giving any competitor of
 Gaussian, Inc. access to this program.  By using this program,
 the user acknowledges that Gaussian, Inc. is engaged in the
 business of creating and licensing software in the field of
 computational chemistry and represents and warrants to the
 licensee that it is not a competitor of Gaussian, Inc. and that
 it will not use this program in any manner prohibited above.
 ---------------------------------------------------------------
  

 Cite this work as:
 Gaussian 16, Revision A.03,
 M. J. Frisch, G. W. Trucks, H. B. Schlegel, G. E. Scuseria, 
 M. A. Robb, J. R. Cheeseman, G. Scalmani, V. Barone, 
 G. A. Petersson, H. Nakatsuji, X. Li, M. Caricato, A. V. Marenich, 
 J. Bloino, B. G. Janesko, R. Gomperts, B. Mennucci, H. P. Hratchian, 
 J. V. Ortiz, A. F. Izmaylov, J. L. Sonnenberg, D. Williams-Young, 
 F. Ding, F. Lipparini, F. Egidi, J. Goings, B. Peng, A. Petrone, 
 T. Henderson, D. Ranasinghe, V. G. Zakrzewski, J. Gao, N. Rega, 
 G. Zheng, W. Liang, M. Hada, M. Ehara, K. Toyota, R. Fukuda, 
 J. Hasegawa, M. Ishida, T. Nakajima, Y. Honda, O. Kitao, H. Nakai, 
 T. Vreven, K. Throssell, J. A. Montgomery, Jr., J. E. Peralta, 
 F. Ogliaro, M. J. Bearpark, J. J. Heyd, E. N. Brothers, K. N. Kudin, 
 V. N. Staroverov, T. A. Keith, R. Kobayashi, J. Normand, 
 K. Raghavachari, A. P. Rendell, J. C. Burant, S. S. Iyengar, 
 J. Tomasi, M. Cossi, J. M. Millam, M. Klene, C. Adamo, R. Cammi, 
 J. W. Ochterski, R. L. Martin, K. Morokuma, O. Farkas, 
 J. B. Foresman, and D. J. Fox, Gaussian, Inc., Wallingford CT, 2016.
 
 ******************************************
 Gaussian 16:  ES64L-G16RevA.03 25-Dec-2016
                30-Nov-2021 
 ******************************************
 %nprocshared=28
 Will use up to   28 processors via shared memory.
 %mem=41GB
 ----------------------------------------------
 # MP2/aug-cc-pVTZ opt freq=(vibrot,anharmonic)
 ----------------------------------------------
 1/18=20,19=15,38=1,80=1/1,3;
 2/9=110,12=2,17=6,18=5,40=1/2;
 3/5=16,6=1,7=10,11=9,25=1,30=1,71=1/1,2,3;
 4//1;
 5/5=2,38=5/2;
 8/6=4,10=1/1;
 9/15=2,16=-3/6;
 10/5=1/2;
 6/7=2,8=2,9=2,10=2/1;
 7/12=2/1,2,3,16;
 1/18=20,19=15,80=1/3(2);
 2/9=110/2;
 99//99;
 2/9=110/2;
 3/5=16,6=1,7=10,11=9,25=1,30=1,71=1/1,2,3;
 4/5=5,16=3,69=1/1;
 5/5=2,38=5/2;
 8/6=4,10=1/1;
 9/15=2,16=-3/6;
 10/5=1/2;
 7/12=2/1,2,3,16;
 1/18=20,19=15,80=1/3(-8);
 2/9=110/2;
 6/7=2,8=2,9=2,10=2/1;
 99//99;
 -----------
 water dimer
 -----------
 Symbolic Z-matrix:
 Charge =  0 Multiplicity = 1
 O                    -1.51682   0.00792  -0.12262 
 H                    -0.56015  -0.00727   0.0533 
 H                    -1.92034  -0.04952   0.75191 
 O                     1.39024  -0.00712   0.11239 
 H                     1.73879   0.78637  -0.31571 
 H                     1.75435  -0.736    -0.40769 
 
 Add virtual bond connecting atoms O4         and H2         Dist= 3.69D+00.

 GradGradGradGradGradGradGradGradGradGradGradGradGradGradGradGradGradGrad
 Berny optimization.
 Initialization pass.
                           ----------------------------
                           !    Initial Parameters    !
                           ! (Angstroms and Degrees)  !
 --------------------------                            --------------------------
 ! Name  Definition              Value          Derivative Info.                !
 --------------------------------------------------------------------------------
 ! R1    R(1,2)                  0.9728         estimate D2E/DX2                !
 ! R2    R(1,3)                  0.9648         estimate D2E/DX2                !
 ! R3    R(2,4)                  1.9513         estimate D2E/DX2                !
 ! R4    R(4,5)                  0.9666         estimate D2E/DX2                !
 ! R5    R(4,6)                  0.9666         estimate D2E/DX2                !
 ! A1    A(2,1,3)              104.2669         estimate D2E/DX2                !
 ! A2    A(2,4,5)              110.3081         estimate D2E/DX2                !
 ! A3    A(2,4,6)              111.1104         estimate D2E/DX2                !
 ! A4    A(5,4,6)              104.1741         estimate D2E/DX2                !
 ! A5    L(1,2,4,3,-1)         188.7225         estimate D2E/DX2                !
 ! A6    L(1,2,4,3,-2)         180.6629         estimate D2E/DX2                !
 ! D1    D(3,1,4,5)           -123.5125         estimate D2E/DX2                !
 ! D2    D(3,1,4,6)            123.2441         estimate D2E/DX2                !
 ! D3    D(2,4,5,6)           -119.3117         estimate D2E/DX2                !
 --------------------------------------------------------------------------------
 Trust Radius=3.00D-01 FncErr=1.00D-07 GrdErr=1.00D-07 EigMax=2.50D+02 EigMin=1.00D-04
 Number of steps in this run=     24 maximum allowed number of steps=    100.
 GradGradGradGradGradGradGradGradGradGradGradGradGradGradGradGradGradGrad

                          Input orientation:                          
 ---------------------------------------------------------------------
 Center     Atomic      Atomic             Coordinates (Angstroms)
 Number     Number       Type             X           Y           Z
 ---------------------------------------------------------------------
      1          8           0       -1.516823    0.007920   -0.122619
      2          1           0       -0.560151   -0.007268    0.053298
      3          1           0       -1.920337   -0.049515    0.751906
      4          8           0        1.390241   -0.007119    0.112393
      5          1           0        1.738794    0.786368   -0.315714
      6          1           0        1.754352   -0.735998   -0.407686
 ---------------------------------------------------------------------
                    Distance matrix (angstroms):
                    1          2          3          4          5
     1  O    0.000000
     2  H    0.972830   0.000000
     3  H    0.964840   1.529688   0.000000
     4  O    2.916587   1.951287   3.372047   0.000000
     5  H    3.352955   2.459914   3.902275   0.966637   0.000000
     6  H    3.366788   2.469915   3.913982   0.966604   1.525221
                    6
     6  H    0.000000
 Stoichiometry    H4O2
 Framework group  C1[X(H4O2)]
 Deg. of freedom    12
 Full point group                 C1      NOp   1
 Largest Abelian subgroup         C1      NOp   1
 Largest concise Abelian subgroup C1      NOp   1
                         Standard orientation:                         
 ---------------------------------------------------------------------
 Center     Atomic      Atomic             Coordinates (Angstroms)
 Number     Number       Type             X           Y           Z
 ---------------------------------------------------------------------
      1          8           0       -1.516823    0.007920   -0.122619
      2          1           0       -0.560151   -0.007268    0.053298
      3          1           0       -1.920337   -0.049514    0.751906
      4          8           0        1.390241   -0.007119    0.112393
      5          1           0        1.738794    0.786368   -0.315714
      6          1           0        1.754352   -0.735998   -0.407686
 ---------------------------------------------------------------------
 Rotational constants (GHZ):         214.1340109           6.3863391           6.3846409
 Standard basis: Aug-CC-pVTZ (5D, 7F)
 There are   210 symmetry adapted cartesian basis functions of A   symmetry.
 There are   184 symmetry adapted basis functions of A   symmetry.
   184 basis functions,   252 primitive gaussians,   210 cartesian basis functions
    10 alpha electrons       10 beta electrons
       nuclear repulsion energy        36.4485942615 Hartrees.
 NAtoms=    6 NActive=    6 NUniq=    6 SFac= 1.00D+00 NAtFMM=   60 NAOKFM=F Big=F
 Integral buffers will be    131072 words long.
 Raffenetti 1 integral format.
 Two-electron integral symmetry is turned on.
 One-electron integrals computed using PRISM.
 NBasis=   184 RedAO= T EigKep=  2.33D-04  NBF=   184
 NBsUse=   184 1.00D-06 EigRej= -1.00D+00 NBFU=   184
 ExpMin= 2.53D-02 ExpMax= 1.53D+04 ExpMxC= 5.22D+02 IAcc=3 IRadAn=         5 AccDes= 0.00D+00
 Harris functional with IExCor=  205 and IRadAn=       5 diagonalized for initial guess.
 HarFok:  IExCor=  205 AccDes= 0.00D+00 IRadAn=         5 IDoV= 1 UseB2=F ITyADJ=14
 ICtDFT=  3500011 ScaDFX=  1.000000  1.000000  1.000000  1.000000
 FoFCou: FMM=F IPFlag=           0 FMFlag=      100000 FMFlg1=           0
         NFxFlg=           0 DoJE=T BraDBF=F KetDBF=T FulRan=T
         wScrn=  0.000000 ICntrl=       500 IOpCl=  0 I1Cent=   200000004 NGrid=           0
         NMat0=    1 NMatS0=      1 NMatT0=    0 NMatD0=    1 NMtDS0=    0 NMtDT0=    0
 Petite list used in FoFCou.
 Keep R1 ints in memory in canonical form, NReq=158655273.
 Requested convergence on RMS density matrix=1.00D-08 within 128 cycles.
 Requested convergence on MAX density matrix=1.00D-06.
 Requested convergence on             energy=1.00D-06.
 No special actions if energy rises.
 SCF Done:  E(RHF) =  -152.125313975     A.U. after   10 cycles
            NFock= 10  Conv=0.67D-08     -V/T= 2.0017
 ExpMin= 2.53D-02 ExpMax= 1.53D+04 ExpMxC= 5.22D+02 IAcc=3 IRadAn=         5 AccDes= 0.00D+00
 HarFok:  IExCor=  205 AccDes= 0.00D+00 IRadAn=         5 IDoV=-2 UseB2=F ITyADJ=14
 ICtDFT= 12500011 ScaDFX=  1.000000  1.000000  1.000000  1.000000
 Range of M.O.s used for correlation:     3   184
 NBasis=   184 NAE=    10 NBE=    10 NFC=     2 NFV=     0
 NROrb=    182 NOA=     8 NOB=     8 NVA=   174 NVB=   174

 **** Warning!!: The largest alpha MO coefficient is  0.20083363D+02

 Fully direct method using O(ONN) memory.
 JobTyp=1 Pass  1:  I=   3 to  10 NPSUse= 28 ParTrn=T ParDer=T DoDerP=T.
 Spin components of T(2) and E(2):
     alpha-alpha T2 =       0.1655053208D-01 E2=     -0.6600675824D-01
     alpha-beta  T2 =       0.9514479224D-01 E2=     -0.4088422603D+00
     beta-beta   T2 =       0.1655053208D-01 E2=     -0.6600675824D-01
 ANorm=    0.1062189181D+01
 E2 =    -0.5408557767D+00 EUMP2 =    -0.15266616975140D+03
          IDoAtm=111111
          Differentiating once with respect to electric field.
                with respect to dipole field.
          Differentiating once with respect to nuclear coordinates.
 Keep R1 ints in memory in canonical form, NReq=158658533.
          There are     1 degrees of freedom in the 1st order CPHF.  IDoFFX=0 NUNeed=     1.
 LinEq1:  Iter=  0 NonCon=     1 RMS=3.37D-03 Max=4.71D-02 NDo=     1
 AX will form     1 AO Fock derivatives at one time.
 LinEq1:  Iter=  1 NonCon=     1 RMS=4.29D-04 Max=4.59D-03 NDo=     1
 LinEq1:  Iter=  2 NonCon=     1 RMS=1.39D-04 Max=1.65D-03 NDo=     1
 LinEq1:  Iter=  3 NonCon=     1 RMS=4.21D-05 Max=3.46D-04 NDo=     1
 LinEq1:  Iter=  4 NonCon=     1 RMS=5.65D-06 Max=4.00D-05 NDo=     1
 LinEq1:  Iter=  5 NonCon=     1 RMS=1.10D-06 Max=8.17D-06 NDo=     1
 LinEq1:  Iter=  6 NonCon=     1 RMS=2.38D-07 Max=2.35D-06 NDo=     1
 LinEq1:  Iter=  7 NonCon=     1 RMS=1.05D-07 Max=1.17D-06 NDo=     1
 LinEq1:  Iter=  8 NonCon=     1 RMS=1.61D-08 Max=1.12D-07 NDo=     1
 LinEq1:  Iter=  9 NonCon=     1 RMS=2.76D-09 Max=2.43D-08 NDo=     1
 LinEq1:  Iter= 10 NonCon=     1 RMS=5.61D-10 Max=4.61D-09 NDo=     1
 LinEq1:  Iter= 11 NonCon=     0 RMS=7.61D-11 Max=6.95D-10 NDo=     1
 Linear equations converged to 1.000D-10 1.000D-09 after    11 iterations.
 End of Minotr F.D. properties file   721 does not exist.
 End of Minotr F.D. properties file   722 does not exist.
 End of Minotr F.D. properties file   788 does not exist.

 **********************************************************************

            Population analysis using the SCF density.

 **********************************************************************

 Orbital symmetries:
       Occupied  (A) (A) (A) (A) (A) (A) (A) (A) (A) (A)
       Virtual   (A) (A) (A) (A) (A) (A) (A) (A) (A) (A) (A) (A)
                 (A) (A) (A) (A) (A) (A) (A) (A) (A) (A) (A) (A)
                 (A) (A) (A) (A) (A) (A) (A) (A) (A) (A) (A) (A)
                 (A) (A) (A) (A) (A) (A) (A) (A) (A) (A) (A) (A)
                 (A) (A) (A) (A) (A) (A) (A) (A) (A) (A) (A) (A)
                 (A) (A) (A) (A) (A) (A) (A) (A) (A) (A) (A) (A)
                 (A) (A) (A) (A) (A) (A) (A) (A) (A) (A) (A) (A)
                 (A) (A) (A) (A) (A) (A) (A) (A) (A) (A) (A) (A)
                 (A) (A) (A) (A) (A) (A) (A) (A) (A) (A) (A) (A)
                 (A) (A) (A) (A) (A) (A) (A) (A) (A) (A) (A) (A)
                 (A) (A) (A) (A) (A) (A) (A) (A) (A) (A) (A) (A)
                 (A) (A) (A) (A) (A) (A) (A) (A) (A) (A) (A) (A)
                 (A) (A) (A) (A) (A) (A) (A) (A) (A) (A) (A) (A)
                 (A) (A) (A) (A) (A) (A) (A) (A) (A) (A) (A) (A)
                 (A) (A) (A) (A) (A) (A)
 The electronic state is 1-A.
 Alpha  occ. eigenvalues --  -20.59351 -20.53715  -1.37665  -1.31880  -0.73750
 Alpha  occ. eigenvalues --   -0.69031  -0.61356  -0.55854  -0.53037  -0.48079
 Alpha virt. eigenvalues --    0.02281   0.04560   0.04671   0.07639   0.12130
 Alpha virt. eigenvalues --    0.14220   0.16417   0.16979   0.17758   0.18651
 Alpha virt. eigenvalues --    0.21485   0.21787   0.23488   0.24315   0.27022
 Alpha virt. eigenvalues --    0.27133   0.29889   0.31303   0.36712   0.36990
 Alpha virt. eigenvalues --    0.37199   0.41152   0.41184   0.44117   0.44221
 Alpha virt. eigenvalues --    0.45522   0.48387   0.58052   0.59212   0.61090
 Alpha virt. eigenvalues --    0.67026   0.70794   0.71880   0.73119   0.75418
 Alpha virt. eigenvalues --    0.77688   0.78498   0.79311   0.82525   0.83041
 Alpha virt. eigenvalues --    0.85655   0.88963   0.90469   0.93202   0.94447
 Alpha virt. eigenvalues --    0.96010   0.96608   0.97182   0.98693   0.99962
 Alpha virt. eigenvalues --    1.01734   1.02202   1.03344   1.05030   1.07064
 Alpha virt. eigenvalues --    1.12315   1.14982   1.18438   1.18494   1.23288
 Alpha virt. eigenvalues --    1.23745   1.24174   1.28892   1.30078   1.38080
 Alpha virt. eigenvalues --    1.43415   1.48515   1.50665   1.55949   1.57260
 Alpha virt. eigenvalues --    1.63433   1.64463   1.70156   1.72595   1.81939
 Alpha virt. eigenvalues --    1.82486   1.94671   1.99321   2.05306   2.09013
 Alpha virt. eigenvalues --    2.13015   2.26038   2.30870   2.31639   2.32462
 Alpha virt. eigenvalues --    2.41248   2.44052   2.45863   2.47805   2.48971
 Alpha virt. eigenvalues --    2.50337   2.50575   2.56454   2.60697   2.66693
 Alpha virt. eigenvalues --    2.69064   2.74592   2.75477   2.78366   2.81202
 Alpha virt. eigenvalues --    2.85522   2.90450   2.92594   2.98792   3.00636
 Alpha virt. eigenvalues --    3.01503   3.73865   3.77286   3.77415   4.02330
 Alpha virt. eigenvalues --    4.06851   4.08156   4.18165   4.22296   4.23173
 Alpha virt. eigenvalues --    4.24845   4.27551   4.30105   4.33240   4.40782
 Alpha virt. eigenvalues --    4.41231   4.46621   4.47656   4.47887   4.48525
 Alpha virt. eigenvalues --    4.55054   4.59093   4.72835   4.74048   4.84002
 Alpha virt. eigenvalues --    4.88080   5.01689   5.09173   5.15471   5.16707
 Alpha virt. eigenvalues --    5.22218   5.26883   5.29378   5.34418   5.40490
 Alpha virt. eigenvalues --    5.57053   5.62736   5.72124   5.75320   6.22914
 Alpha virt. eigenvalues --    6.36451   6.51138   6.56669   6.77894   6.78335
 Alpha virt. eigenvalues --    6.91427   6.97922   7.14762   7.15508   7.26811
 Alpha virt. eigenvalues --    7.28496   7.29797   7.31897   7.34876   7.36351
 Alpha virt. eigenvalues --    7.37695   7.41007   7.44683   7.53241   7.56982
 Alpha virt. eigenvalues --    7.71329   7.90401   7.91764   7.99226   8.06458
 Alpha virt. eigenvalues --    8.85009   8.87290  15.64463  16.72450
          Condensed to atoms (all electrons):
               1          2          3          4          5          6
     1  O    8.001853   0.237943   0.288011  -0.016936   0.001359   0.001284
     2  H    0.237943   0.449680   0.031000  -0.030119  -0.001417  -0.001529
     3  H    0.288011   0.031000   0.483439  -0.004024  -0.000549  -0.000554
     4  O   -0.016936  -0.030119  -0.004024   7.960854   0.272440   0.272418
     5  H    0.001359  -0.001417  -0.000549   0.272440   0.480329   0.022136
     6  H    0.001284  -0.001529  -0.000554   0.272418   0.022136   0.480917
 Mulliken charges:
               1
     1  O   -0.513515
     2  H    0.314443
     3  H    0.202677
     4  O   -0.454634
     5  H    0.225701
     6  H    0.225328
 Sum of Mulliken charges =  -0.00000
 Mulliken charges with hydrogens summed into heavy atoms:
               1
     1  O    0.003605
     4  O   -0.003605
 Electronic spatial extent (au):  <R**2>=            191.3846
 Charge=             -0.0000 electrons
 Dipole moment (field-independent basis, Debye):
    X=              2.6920    Y=             -0.0122    Z=              0.1478  Tot=              2.6961
 Quadrupole moment (field-independent basis, Debye-Ang):
   XX=            -11.1408   YY=            -11.7767   ZZ=            -12.6428
   XY=              0.4015   XZ=             -6.4881   YZ=              0.0357
 Traceless Quadrupole moment (field-independent basis, Debye-Ang):
   XX=              0.7126   YY=              0.0767   ZZ=             -0.7894
   XY=              0.4015   XZ=             -6.4881   YZ=              0.0357
 Octapole moment (field-independent basis, Debye-Ang**2):
  XXX=              8.4934  YYY=              0.1844  ZZZ=              0.7218  XYY=              6.2791
  XXY=             -0.1718  XXZ=              1.2153  XZZ=             -1.0229  YZZ=             -0.1540
  YYZ=             -0.8720  XYZ=              0.4573
 Hexadecapole moment (field-independent basis, Debye-Ang**3):
 XXXX=           -167.5713 YYYY=            -12.7690 ZZZZ=            -14.0285 XXXY=              1.3618
 XXXZ=            -25.2589 YYYX=              0.5070 YYYZ=              0.0413 ZZZX=             -4.9825
 ZZZY=              0.0255 XXYY=            -27.7478 XXZZ=            -29.5917 YYZZ=             -4.5257
 XXYZ=              0.0972 YYXZ=             -2.6453 ZZXY=             -0.0122
 N-N= 3.644859426149D+01 E-N=-4.341384249541D+02  KE= 1.518649292994D+02
 Calling FoFJK, ICntrl=  10002127 FMM=F ISym2X=0 I1Cent= 0 IOpClX= 0 NMat=1 NMatS=1 NMatT=0.
 ***** Axes restored to original set *****
 -------------------------------------------------------------------
 Center     Atomic                   Forces (Hartrees/Bohr)
 Number     Number              X              Y              Z
 -------------------------------------------------------------------
      1        8           0.002157913   -0.000324011    0.004699920
      2        1          -0.003737358    0.000053500   -0.000782764
      3        1           0.001762954    0.000257677   -0.003920706
      4        8           0.003072272    0.000321255   -0.004325431
      5        1          -0.001582348   -0.003227160    0.001983524
      6        1          -0.001673433    0.002918739    0.002345457
 -------------------------------------------------------------------
 Cartesian Forces:  Max     0.004699920 RMS     0.002602406

 GradGradGradGradGradGradGradGradGradGradGradGradGradGradGradGradGradGrad
 Berny optimization.
 FormGI is forming the generalized inverse of G from B-inverse, IUseBI=4.
 Internal  Forces:  Max     0.004306341 RMS     0.002207719
 Search for a local minimum.
 Step number   1 out of a maximum of   24
 All quantities printed in internal units (Hartrees-Bohrs-Radians)
 Mixed Optimization -- RFO/linear search
 Second derivative matrix not updated -- first step.
 The second derivative matrix:
                          R1        R2        R3        R4        R5
           R1           0.52803
           R2           0.00000   0.54445
           R3           0.00000   0.00000   0.04673
           R4           0.00000   0.00000   0.00000   0.54070
           R5           0.00000   0.00000   0.00000   0.00000   0.54077
           A1           0.00000   0.00000   0.00000   0.00000   0.00000
           A2           0.00000   0.00000   0.00000   0.00000   0.00000
           A3           0.00000   0.00000   0.00000   0.00000   0.00000
           A4           0.00000   0.00000   0.00000   0.00000   0.00000
           A5           0.00000   0.00000   0.00000   0.00000   0.00000
           A6           0.00000   0.00000   0.00000   0.00000   0.00000
           D1           0.00000   0.00000   0.00000   0.00000   0.00000
           D2           0.00000   0.00000   0.00000   0.00000   0.00000
           D3           0.00000   0.00000   0.00000   0.00000   0.00000
                          A1        A2        A3        A4        A5
           A1           0.16000
           A2           0.00000   0.16000
           A3           0.00000   0.00000   0.16000
           A4           0.00000   0.00000   0.00000   0.16000
           A5           0.00000   0.00000   0.00000   0.00000   0.00230
           A6           0.00000   0.00000   0.00000   0.00000   0.00000
           D1           0.00000   0.00000   0.00000   0.00000   0.00000
           D2           0.00000   0.00000   0.00000   0.00000   0.00000
           D3           0.00000   0.00000   0.00000   0.00000   0.00000
                          A6        D1        D2        D3
           A6           0.00230
           D1           0.00000   0.00230
           D2           0.00000   0.00000   0.00230
           D3           0.00000   0.00000   0.00000   0.01470
 ITU=  0
     Eigenvalues ---    0.00230   0.00230   0.00230   0.04673   0.05133
     Eigenvalues ---    0.12718   0.16000   0.16000   0.52801   0.54070
     Eigenvalues ---    0.54077   0.54445
 RFO step:  Lambda=-1.28676099D-04 EMin= 2.30000000D-03
 Linear search not attempted -- first point.
 Iteration  1 RMS(Cart)=  0.00759245 RMS(Int)=  0.00002695
 Iteration  2 RMS(Cart)=  0.00003679 RMS(Int)=  0.00000100
 Iteration  3 RMS(Cart)=  0.00000000 RMS(Int)=  0.00000100
 Variable       Old X    -DE/DX   Delta X   Delta X   Delta X     New X
                                 (Linear)    (Quad)   (Total)
    R1        1.83838  -0.00400   0.00000  -0.00757  -0.00757   1.83081
    R2        1.82328  -0.00431   0.00000  -0.00791  -0.00791   1.81538
    R3        3.68740  -0.00018   0.00000  -0.00391  -0.00391   3.68349
    R4        1.82668  -0.00410   0.00000  -0.00758  -0.00758   1.81910
    R5        1.82662  -0.00409   0.00000  -0.00757  -0.00757   1.81905
    A1        1.81980   0.00008   0.00000   0.00048   0.00048   1.82028
    A2        1.92524  -0.00005   0.00000   0.00010   0.00010   1.92534
    A3        1.93924  -0.00011   0.00000  -0.00034  -0.00034   1.93890
    A4        1.81818   0.00028   0.00000   0.00272   0.00272   1.82090
    A5        3.29383  -0.00000   0.00000  -0.01149  -0.01149   3.28234
    A6        3.15316   0.00000   0.00000  -0.00011  -0.00011   3.15306
    D1       -2.15570   0.00015   0.00000   0.00270   0.00270  -2.15300
    D2        2.15101  -0.00015   0.00000  -0.00273  -0.00273   2.14828
    D3       -2.08238  -0.00000   0.00000  -0.00119  -0.00119  -2.08357
         Item               Value     Threshold  Converged?
 Maximum Force            0.004306     0.000450     NO 
 RMS     Force            0.002208     0.000300     NO 
 Maximum Displacement     0.018978     0.001800     NO 
 RMS     Displacement     0.007602     0.001200     NO 
 Predicted change in Energy=-6.436517D-05
 GradGradGradGradGradGradGradGradGradGradGradGradGradGradGradGradGradGrad

                          Input orientation:                          
 ---------------------------------------------------------------------
 Center     Atomic      Atomic             Coordinates (Angstroms)
 Number     Number       Type             X           Y           Z
 ---------------------------------------------------------------------
      1          8           0       -1.515413    0.007761   -0.121175
      2          1           0       -0.561245   -0.006820    0.046075
      3          1           0       -1.910294   -0.049570    0.752690
      4          8           0        1.386883   -0.006960    0.111222
      5          1           0        1.735491    0.783821   -0.312791
      6          1           0        1.750654   -0.733843   -0.404443
 ---------------------------------------------------------------------
                    Distance matrix (angstroms):
                    1          2          3          4          5
     1  O    0.000000
     2  H    0.968825   0.000000
     3  H    0.960656   1.523505   0.000000
     4  O    2.911622   1.949217   3.359267   0.000000
     5  H    3.347740   2.455381   3.888643   0.962627   0.000000
     6  H    3.361162   2.465037   3.899966   0.962600   1.520504
                    6
     6  H    0.000000
 Stoichiometry    H4O2
 Framework group  C1[X(H4O2)]
 Deg. of freedom    12
 Full point group                 C1      NOp   1
 Largest Abelian subgroup         C1      NOp   1
 Largest concise Abelian subgroup C1      NOp   1
                         Standard orientation:                         
 ---------------------------------------------------------------------
 Center     Atomic      Atomic             Coordinates (Angstroms)
 Number     Number       Type             X           Y           Z
 ---------------------------------------------------------------------
      1          8           0       -1.514698    0.007546   -0.121700
      2          1           0       -0.560576   -0.006664    0.045846
      3          1           0       -1.909819   -0.047495    0.752205
      4          8           0        1.387534   -0.006763    0.111519
      5          1           0        1.736309    0.782895   -0.314447
      6          1           0        1.751397   -0.735002   -0.402163
 ---------------------------------------------------------------------
 Rotational constants (GHZ):         215.7980680           6.4099891           6.4085147
 Standard basis: Aug-CC-pVTZ (5D, 7F)
 There are   210 symmetry adapted cartesian basis functions of A   symmetry.
 There are   184 symmetry adapted basis functions of A   symmetry.
   184 basis functions,   252 primitive gaussians,   210 cartesian basis functions
    10 alpha electrons       10 beta electrons
       nuclear repulsion energy        36.5573745404 Hartrees.
 NAtoms=    6 NActive=    6 NUniq=    6 SFac= 1.00D+00 NAtFMM=   60 NAOKFM=F Big=F
 Integral buffers will be    131072 words long.
 Raffenetti 1 integral format.
 Two-electron integral symmetry is turned on.
 One-electron integrals computed using PRISM.
 NBasis=   184 RedAO= T EigKep=  2.30D-04  NBF=   184
 NBsUse=   184 1.00D-06 EigRej= -1.00D+00 NBFU=   184
 Initial guess from the checkpoint file:  "/gscratch/scrubbed/gds001/Gau-10587.chk"
 B after Tr=     0.000000    0.000000    0.000000
         Rot=    0.999999    0.001323   -0.000119   -0.000000 Ang=   0.15 deg.
 Keep R1 ints in memory in canonical form, NReq=158655449.
 Requested convergence on RMS density matrix=1.00D-08 within 128 cycles.
 Requested convergence on MAX density matrix=1.00D-06.
 Requested convergence on             energy=1.00D-06.
 No special actions if energy rises.
 SCF Done:  E(RHF) =  -152.126044371     A.U. after    8 cycles
            NFock=  8  Conv=0.83D-08     -V/T= 2.0015
 ExpMin= 2.53D-02 ExpMax= 1.53D+04 ExpMxC= 5.22D+02 IAcc=3 IRadAn=         5 AccDes= 0.00D+00
 HarFok:  IExCor=  205 AccDes= 0.00D+00 IRadAn=         5 IDoV=-2 UseB2=F ITyADJ=14
 ICtDFT= 12500011 ScaDFX=  1.000000  1.000000  1.000000  1.000000
 Range of M.O.s used for correlation:     3   184
 NBasis=   184 NAE=    10 NBE=    10 NFC=     2 NFV=     0
 NROrb=    182 NOA=     8 NOB=     8 NVA=   174 NVB=   174

 **** Warning!!: The largest alpha MO coefficient is  0.20127510D+02

 Fully direct method using O(ONN) memory.
 JobTyp=1 Pass  1:  I=   3 to  10 NPSUse= 28 ParTrn=T ParDer=T DoDerP=T.
 Spin components of T(2) and E(2):
     alpha-alpha T2 =       0.1648050551D-01 E2=     -0.6592901393D-01
     alpha-beta  T2 =       0.9469635163D-01 E2=     -0.4083354958D+00
     beta-beta   T2 =       0.1648050551D-01 E2=     -0.6592901393D-01
 ANorm=    0.1061912126D+01
 E2 =    -0.5401935237D+00 EUMP2 =    -0.15266623789492D+03
          IDoAtm=111111
          Differentiating once with respect to electric field.
                with respect to dipole field.
          Differentiating once with respect to nuclear coordinates.
 Keep R1 ints in memory in canonical form, NReq=158658621.
          There are     1 degrees of freedom in the 1st order CPHF.  IDoFFX=0 NUNeed=     1.
 LinEq1:  Iter=  0 NonCon=     1 RMS=3.35D-03 Max=4.69D-02 NDo=     1
 AX will form     1 AO Fock derivatives at one time.
 LinEq1:  Iter=  1 NonCon=     1 RMS=4.24D-04 Max=4.53D-03 NDo=     1
 LinEq1:  Iter=  2 NonCon=     1 RMS=1.37D-04 Max=1.63D-03 NDo=     1
 LinEq1:  Iter=  3 NonCon=     1 RMS=4.15D-05 Max=3.41D-04 NDo=     1
 LinEq1:  Iter=  4 NonCon=     1 RMS=5.56D-06 Max=4.00D-05 NDo=     1
 LinEq1:  Iter=  5 NonCon=     1 RMS=1.09D-06 Max=8.11D-06 NDo=     1
 LinEq1:  Iter=  6 NonCon=     1 RMS=2.35D-07 Max=2.32D-06 NDo=     1
 LinEq1:  Iter=  7 NonCon=     1 RMS=1.04D-07 Max=1.16D-06 NDo=     1
 LinEq1:  Iter=  8 NonCon=     1 RMS=1.57D-08 Max=1.09D-07 NDo=     1
 LinEq1:  Iter=  9 NonCon=     1 RMS=2.67D-09 Max=2.34D-08 NDo=     1
 LinEq1:  Iter= 10 NonCon=     1 RMS=5.43D-10 Max=4.37D-09 NDo=     1
 LinEq1:  Iter= 11 NonCon=     0 RMS=7.38D-11 Max=6.67D-10 NDo=     1
 Linear equations converged to 1.000D-10 1.000D-09 after    11 iterations.
 End of Minotr F.D. properties file   721 does not exist.
 End of Minotr F.D. properties file   722 does not exist.
 End of Minotr F.D. properties file   788 does not exist.
 Calling FoFJK, ICntrl=  10002127 FMM=F ISym2X=0 I1Cent= 0 IOpClX= 0 NMat=1 NMatS=1 NMatT=0.
 ***** Axes restored to original set *****
 -------------------------------------------------------------------
 Center     Atomic                   Forces (Hartrees/Bohr)
 Number     Number              X              Y              Z
 -------------------------------------------------------------------
      1        8           0.000328535   -0.000033087    0.000446464
      2        1          -0.000123528    0.000003149   -0.000179252
      3        1          -0.000147880    0.000015736   -0.000226727
      4        8           0.000300683    0.000062652   -0.000616711
      5        1          -0.000164909   -0.000036418    0.000291147
      6        1          -0.000192902   -0.000012032    0.000285079
 -------------------------------------------------------------------
 Cartesian Forces:  Max     0.000616711 RMS     0.000251204

 GradGradGradGradGradGradGradGradGradGradGradGradGradGradGradGradGradGrad
 Berny optimization.
 Using GEDIIS/GDIIS optimizer.
 FormGI is forming the generalized inverse of G from B-inverse, IUseBI=4.
 Internal  Forces:  Max     0.000414344 RMS     0.000187559
 Search for a local minimum.
 Step number   2 out of a maximum of   24
 All quantities printed in internal units (Hartrees-Bohrs-Radians)
 Mixed Optimization -- En-DIIS/RFO-DIIS
 Update second derivatives using D2CorX and points    1    2
 DE= -6.81D-05 DEPred=-6.44D-05 R= 1.06D+00
 TightC=F SS=  1.41D+00  RLast= 2.01D-02 DXNew= 5.0454D-01 6.0432D-02
 Trust test= 1.06D+00 RLast= 2.01D-02 DXMaxT set to 3.00D-01
 The second derivative matrix:
                          R1        R2        R3        R4        R5
           R1           0.52139
           R2          -0.00447   0.54259
           R3          -0.00180  -0.00185   0.04660
           R4          -0.00670  -0.00446  -0.00184   0.53395
           R5          -0.00665  -0.00441  -0.00184  -0.00670   0.53411
           A1           0.01288   0.01411   0.00046   0.01321   0.01320
           A2           0.00176   0.00192   0.00006   0.00180   0.00180
           A3          -0.00135  -0.00145  -0.00007  -0.00139  -0.00138
           A4           0.01428   0.01540   0.00064   0.01464   0.01462
           A5           0.00240   0.00265   0.00007   0.00246   0.00246
           A6          -0.00005  -0.00005  -0.00000  -0.00005  -0.00005
           D1           0.00018   0.00020   0.00001   0.00019   0.00019
           D2          -0.00015  -0.00017  -0.00001  -0.00016  -0.00016
           D3          -0.00205  -0.00224  -0.00007  -0.00210  -0.00210
                          A1        A2        A3        A4        A5
           A1           0.16089
           A2           0.00010   0.16001
           A3           0.00006   0.00001   0.15998
           A4          -0.00019  -0.00004   0.00019   0.15854
           A5           0.00030   0.00004  -0.00000   0.00011   0.00238
           A6          -0.00000  -0.00000  -0.00000   0.00000  -0.00000
           D1          -0.00000  -0.00000   0.00000  -0.00002   0.00000
           D2           0.00001   0.00000  -0.00000   0.00002  -0.00000
           D3          -0.00012  -0.00001  -0.00001   0.00005  -0.00004
                          A6        D1        D2        D3
           A6           0.00230
           D1           0.00000   0.00230
           D2          -0.00000   0.00000   0.00230
           D3           0.00000   0.00000  -0.00000   0.01471
 ITU=  1  0
 Use linear search instead of GDIIS.
     Eigenvalues ---    0.00230   0.00230   0.00233   0.04654   0.05062
     Eigenvalues ---    0.12539   0.15878   0.16008   0.51573   0.53409
     Eigenvalues ---    0.54074   0.54514
 RFO step:  Lambda=-5.85077679D-06 EMin= 2.29999214D-03
 Quartic linear search produced a step of  0.05686.
 Iteration  1 RMS(Cart)=  0.01523436 RMS(Int)=  0.00021424
 Iteration  2 RMS(Cart)=  0.00028247 RMS(Int)=  0.00000922
 Iteration  3 RMS(Cart)=  0.00000000 RMS(Int)=  0.00000922
 Variable       Old X    -DE/DX   Delta X   Delta X   Delta X     New X
                                 (Linear)    (Quad)   (Total)
    R1        1.83081  -0.00021  -0.00043  -0.00034  -0.00077   1.83004
    R2        1.81538  -0.00015  -0.00045  -0.00019  -0.00064   1.81474
    R3        3.68349  -0.00006  -0.00022  -0.00125  -0.00148   3.68201
    R4        1.81910  -0.00022  -0.00043  -0.00033  -0.00076   1.81834
    R5        1.81905  -0.00022  -0.00043  -0.00033  -0.00076   1.81829
    A1        1.82028   0.00041   0.00003   0.00273   0.00276   1.82304
    A2        1.92534  -0.00001   0.00001   0.00053   0.00052   1.92586
    A3        1.93890  -0.00010  -0.00002   0.00003   0.00001   1.93891
    A4        1.82090   0.00030   0.00015   0.00320   0.00334   1.82424
    A5        3.28234   0.00010  -0.00065   0.03533   0.03468   3.31702
    A6        3.15306  -0.00000  -0.00001  -0.00069  -0.00070   3.15236
    D1       -2.15300   0.00014   0.00015  -0.00112  -0.00095  -2.15394
    D2        2.14828  -0.00014  -0.00016   0.00154   0.00136   2.14964
    D3       -2.08357  -0.00005  -0.00007  -0.00212  -0.00218  -2.08575
         Item               Value     Threshold  Converged?
 Maximum Force            0.000414     0.000450     YES
 RMS     Force            0.000188     0.000300     YES
 Maximum Displacement     0.040441     0.001800     NO 
 RMS     Displacement     0.015217     0.001200     NO 
 Predicted change in Energy=-3.036676D-06
 GradGradGradGradGradGradGradGradGradGradGradGradGradGradGradGradGradGrad

                          Input orientation:                          
 ---------------------------------------------------------------------
 Center     Atomic      Atomic             Coordinates (Angstroms)
 Number     Number       Type             X           Y           Z
 ---------------------------------------------------------------------
      1          8           0       -1.506840    0.007498   -0.121265
      2          1           0       -0.557117   -0.007910    0.067476
      3          1           0       -1.923704   -0.048948    0.742013
      4          8           0        1.390871   -0.006721    0.109226
      5          1           0        1.734118    0.784729   -0.316991
      6          1           0        1.748749   -0.734260   -0.408881
 ---------------------------------------------------------------------
                    Distance matrix (angstroms):
                    1          2          3          4          5
     1  O    0.000000
     2  H    0.968418   0.000000
     3  H    0.960319   1.524547   0.000000
     4  O    2.906898   1.948436   3.374702   0.000000
     5  H    3.338593   2.454761   3.898227   0.962223   0.000000
     6  H    3.351385   2.464045   3.909107   0.962197   1.521836
                    6
     6  H    0.000000
 Stoichiometry    H4O2
 Framework group  C1[X(H4O2)]
 Deg. of freedom    12
 Full point group                 C1      NOp   1
 Largest Abelian subgroup         C1      NOp   1
 Largest concise Abelian subgroup C1      NOp   1
                         Standard orientation:                         
 ---------------------------------------------------------------------
 Center     Atomic      Atomic             Coordinates (Angstroms)
 Number     Number       Type             X           Y           Z
 ---------------------------------------------------------------------
      1          8           0       -1.510403    0.006383   -0.122575
      2          1           0       -0.560917   -0.006949    0.067510
      3          1           0       -1.928343   -0.039504    0.740809
      4          8           0        1.387018   -0.005691    0.111645
      5          1           0        1.730979    0.780458   -0.323710
      6          1           0        1.745360   -0.739536   -0.397164
 ---------------------------------------------------------------------
 Rotational constants (GHZ):         216.5198404           6.4260821           6.4250458
 Standard basis: Aug-CC-pVTZ (5D, 7F)
 There are   210 symmetry adapted cartesian basis functions of A   symmetry.
 There are   184 symmetry adapted basis functions of A   symmetry.
   184 basis functions,   252 primitive gaussians,   210 cartesian basis functions
    10 alpha electrons       10 beta electrons
       nuclear repulsion energy        36.5845416940 Hartrees.
 NAtoms=    6 NActive=    6 NUniq=    6 SFac= 1.00D+00 NAtFMM=   60 NAOKFM=F Big=F
 Integral buffers will be    131072 words long.
 Raffenetti 1 integral format.
 Two-electron integral symmetry is turned on.
 One-electron integrals computed using PRISM.
 NBasis=   184 RedAO= T EigKep=  2.29D-04  NBF=   184
 NBsUse=   184 1.00D-06 EigRej= -1.00D+00 NBFU=   184
 Initial guess from the checkpoint file:  "/gscratch/scrubbed/gds001/Gau-10587.chk"
 B after Tr=    -0.000000    0.000000   -0.000000
         Rot=    0.999988    0.004837    0.000321    0.000030 Ang=   0.56 deg.
 ExpMin= 2.53D-02 ExpMax= 1.53D+04 ExpMxC= 5.22D+02 IAcc=3 IRadAn=         5 AccDes= 0.00D+00
 Harris functional with IExCor=  205 and IRadAn=       5 diagonalized for initial guess.
 HarFok:  IExCor=  205 AccDes= 0.00D+00 IRadAn=         5 IDoV= 1 UseB2=F ITyADJ=14
 ICtDFT=  3500011 ScaDFX=  1.000000  1.000000  1.000000  1.000000
 FoFCou: FMM=F IPFlag=           0 FMFlag=      100000 FMFlg1=           0
         NFxFlg=           0 DoJE=T BraDBF=F KetDBF=T FulRan=T
         wScrn=  0.000000 ICntrl=       500 IOpCl=  0 I1Cent=   200000004 NGrid=           0
         NMat0=    1 NMatS0=      1 NMatT0=    0 NMatD0=    1 NMtDS0=    0 NMtDT0=    0
 Petite list used in FoFCou.
 Keep R1 ints in memory in canonical form, NReq=158655537.
 Requested convergence on RMS density matrix=1.00D-08 within 128 cycles.
 Requested convergence on MAX density matrix=1.00D-06.
 Requested convergence on             energy=1.00D-06.
 No special actions if energy rises.
 SCF Done:  E(RHF) =  -152.126118102     A.U. after    8 cycles
            NFock=  8  Conv=0.96D-08     -V/T= 2.0015
 ExpMin= 2.53D-02 ExpMax= 1.53D+04 ExpMxC= 5.22D+02 IAcc=3 IRadAn=         5 AccDes= 0.00D+00
 HarFok:  IExCor=  205 AccDes= 0.00D+00 IRadAn=         5 IDoV=-2 UseB2=F ITyADJ=14
 ICtDFT= 12500011 ScaDFX=  1.000000  1.000000  1.000000  1.000000
 Range of M.O.s used for correlation:     3   184
 NBasis=   184 NAE=    10 NBE=    10 NFC=     2 NFV=     0
 NROrb=    182 NOA=     8 NOB=     8 NVA=   174 NVB=   174

 **** Warning!!: The largest alpha MO coefficient is  0.20226874D+02

 Fully direct method using O(ONN) memory.
 JobTyp=1 Pass  1:  I=   3 to  10 NPSUse= 28 ParTrn=T ParDer=T DoDerP=T.
 Spin components of T(2) and E(2):
     alpha-alpha T2 =       0.1647327690D-01 E2=     -0.6592121739D-01
     alpha-beta  T2 =       0.9464883724D-01 E2=     -0.4082760019D+00
     beta-beta   T2 =       0.1647327690D-01 E2=     -0.6592121739D-01
 ANorm=    0.1061882946D+01
 E2 =    -0.5401184367D+00 EUMP2 =    -0.15266623653911D+03
          IDoAtm=111111
          Differentiating once with respect to electric field.
                with respect to dipole field.
          Differentiating once with respect to nuclear coordinates.
 Keep R1 ints in memory in canonical form, NReq=158658678.
          There are     1 degrees of freedom in the 1st order CPHF.  IDoFFX=0 NUNeed=     1.
 LinEq1:  Iter=  0 NonCon=     1 RMS=3.34D-03 Max=4.66D-02 NDo=     1
 AX will form     1 AO Fock derivatives at one time.
 LinEq1:  Iter=  1 NonCon=     1 RMS=4.24D-04 Max=4.52D-03 NDo=     1
 LinEq1:  Iter=  2 NonCon=     1 RMS=1.37D-04 Max=1.62D-03 NDo=     1
 LinEq1:  Iter=  3 NonCon=     1 RMS=4.15D-05 Max=3.53D-04 NDo=     1
 LinEq1:  Iter=  4 NonCon=     1 RMS=5.56D-06 Max=3.97D-05 NDo=     1
 LinEq1:  Iter=  5 NonCon=     1 RMS=1.09D-06 Max=8.17D-06 NDo=     1
 LinEq1:  Iter=  6 NonCon=     1 RMS=2.40D-07 Max=2.40D-06 NDo=     1
 LinEq1:  Iter=  7 NonCon=     1 RMS=1.06D-07 Max=1.18D-06 NDo=     1
 LinEq1:  Iter=  8 NonCon=     1 RMS=1.58D-08 Max=1.10D-07 NDo=     1
 LinEq1:  Iter=  9 NonCon=     1 RMS=2.77D-09 Max=2.41D-08 NDo=     1
 LinEq1:  Iter= 10 NonCon=     1 RMS=5.60D-10 Max=4.61D-09 NDo=     1
 LinEq1:  Iter= 11 NonCon=     0 RMS=7.54D-11 Max=6.52D-10 NDo=     1
 Linear equations converged to 1.000D-10 1.000D-09 after    11 iterations.
 End of Minotr F.D. properties file   721 does not exist.
 End of Minotr F.D. properties file   722 does not exist.
 End of Minotr F.D. properties file   788 does not exist.
 Calling FoFJK, ICntrl=  10002127 FMM=F ISym2X=0 I1Cent= 0 IOpClX= 0 NMat=1 NMatS=1 NMatT=0.
 ***** Axes restored to original set *****
 -------------------------------------------------------------------
 Center     Atomic                   Forces (Hartrees/Bohr)
 Number     Number              X              Y              Z
 -------------------------------------------------------------------
      1        8          -0.000044341   -0.000009271    0.000159466
      2        1           0.000250091    0.000005585   -0.000312345
      3        1          -0.000177690   -0.000004351    0.000073646
      4        8          -0.000050688    0.000013373    0.000148283
      5        1           0.000024834    0.000045185   -0.000028770
      6        1          -0.000002206   -0.000050521   -0.000040280
 -------------------------------------------------------------------
 Cartesian Forces:  Max     0.000312345 RMS     0.000119498

 GradGradGradGradGradGradGradGradGradGradGradGradGradGradGradGradGradGrad
 Berny optimization.
 Using GEDIIS/GDIIS optimizer.
 FormGI is forming the generalized inverse of G from B-inverse, IUseBI=4.
 Internal  Forces:  Max     0.000263377 RMS     0.000114446
 Search for a local minimum.
 Step number   3 out of a maximum of   24
 All quantities printed in internal units (Hartrees-Bohrs-Radians)
 Mixed Optimization -- En-DIIS/RFO-DIIS
 Swapping is turned off.
 Update second derivatives using D2CorX and points    1    2    3
 DE=  1.36D-06 DEPred=-3.04D-06 R=-4.46D-01
 Trust test=-4.46D-01 RLast= 3.51D-02 DXMaxT set to 1.50D-01
 The second derivative matrix:
                          R1        R2        R3        R4        R5
           R1           0.50912
           R2          -0.01700   0.52988
           R3          -0.00524  -0.00516   0.04611
           R4          -0.02446  -0.02207  -0.00559   0.51143
           R5          -0.02435  -0.02196  -0.00557  -0.02915   0.51174
           A1           0.03584   0.03602   0.00330   0.03712   0.03704
           A2           0.00884   0.00860   0.00075   0.00867   0.00866
           A3           0.00247   0.00208   0.00014   0.00189   0.00188
           A4           0.03830   0.03849   0.00404   0.04075   0.04065
           A5          -0.00856  -0.00732  -0.00013  -0.00595  -0.00594
           A6          -0.00009  -0.00010  -0.00001  -0.00010  -0.00010
           D1          -0.00597  -0.00548  -0.00029  -0.00501  -0.00500
           D2           0.00594   0.00546   0.00029   0.00501   0.00500
           D3          -0.00045  -0.00081  -0.00011  -0.00103  -0.00103
                          A1        A2        A3        A4        A5
           A1           0.14518
           A2          -0.00327   0.15950
           A3          -0.00048   0.00020   0.16038
           A4          -0.01984  -0.00473  -0.00116   0.13500
           A5          -0.00103  -0.00155  -0.00187   0.00127   0.01005
           A6           0.00005   0.00001   0.00001   0.00006  -0.00002
           D1           0.00067  -0.00038  -0.00070   0.00195   0.00317
           D2          -0.00069   0.00036   0.00069  -0.00196  -0.00312
           D3           0.00053   0.00038   0.00037   0.00031  -0.00153
                          A6        D1        D2        D3
           A6           0.00230
           D1          -0.00001   0.00352
           D2           0.00001  -0.00120   0.00347
           D3           0.00000  -0.00064   0.00063   0.01499
 ITU= -1  1  0
     Eigenvalues ---    0.00230   0.00230   0.00786   0.04228   0.04857
     Eigenvalues ---    0.10107   0.14470   0.16031   0.46754   0.53192
     Eigenvalues ---    0.54073   0.54564
 En-DIIS/RFO-DIIS/Sim-DIIS IScMMF=       -3 using points:     3    2
 RFO step:  Lambda=-8.78455098D-06.
 DidBck=T Rises=T En-DIIS coefs:    0.45490    0.54510
 Iteration  1 RMS(Cart)=  0.01323605 RMS(Int)=  0.00015888
 Iteration  2 RMS(Cart)=  0.00022415 RMS(Int)=  0.00000592
 Iteration  3 RMS(Cart)=  0.00000000 RMS(Int)=  0.00000592
 Variable       Old X    -DE/DX   Delta X   Delta X   Delta X     New X
                                 (Linear)    (Quad)   (Total)
    R1        1.83004   0.00017   0.00042  -0.00089  -0.00047   1.82957
    R2        1.81474   0.00014   0.00035  -0.00078  -0.00044   1.81430
    R3        3.68201  -0.00003   0.00080  -0.00196  -0.00115   3.68086
    R4        1.81834   0.00006   0.00042  -0.00098  -0.00056   1.81777
    R5        1.81829   0.00006   0.00041  -0.00098  -0.00056   1.81773
    A1        1.82304   0.00023  -0.00150   0.00363   0.00213   1.82516
    A2        1.92586   0.00001  -0.00029   0.00056   0.00027   1.92613
    A3        1.93891  -0.00002  -0.00001  -0.00015  -0.00015   1.93875
    A4        1.82424  -0.00001  -0.00182   0.00361   0.00178   1.82602
    A5        3.31702  -0.00026  -0.01890  -0.01293  -0.03183   3.28519
    A6        3.15236   0.00000   0.00038  -0.00071  -0.00033   3.15203
    D1       -2.15394   0.00001   0.00052   0.00359   0.00412  -2.14983
    D2        2.14964  -0.00002  -0.00074  -0.00345  -0.00421   2.14544
    D3       -2.08575   0.00003   0.00119  -0.00217  -0.00097  -2.08672
         Item               Value     Threshold  Converged?
 Maximum Force            0.000263     0.000450     YES
 RMS     Force            0.000114     0.000300     YES
 Maximum Displacement     0.036830     0.001800     NO 
 RMS     Displacement     0.013249     0.001200     NO 
 Predicted change in Energy=-4.398931D-06
 GradGradGradGradGradGradGradGradGradGradGradGradGradGradGradGradGradGrad

                          Input orientation:                          
 ---------------------------------------------------------------------
 Center     Atomic      Atomic             Coordinates (Angstroms)
 Number     Number       Type             X           Y           Z
 ---------------------------------------------------------------------
      1          8           0       -1.513126    0.007364   -0.120027
      2          1           0       -0.559751   -0.006701    0.047986
      3          1           0       -1.912813   -0.049533    0.751054
      4          8           0        1.387111   -0.006654    0.109265
      5          1           0        1.735186    0.784743   -0.312440
      6          1           0        1.749469   -0.734830   -0.404261
 ---------------------------------------------------------------------
                    Distance matrix (angstroms):
                    1          2          3          4          5
     1  O    0.000000
     2  H    0.968168   0.000000
     3  H    0.960088   1.525423   0.000000
     4  O    2.909320   1.947826   3.362028   0.000000
     5  H    3.345575   2.454185   3.890364   0.961925   0.000000
     6  H    3.358001   2.463168   3.900858   0.961900   1.522412
                    6
     6  H    0.000000
 Stoichiometry    H4O2
 Framework group  C1[X(H4O2)]
 Deg. of freedom    12
 Full point group                 C1      NOp   1
 Largest Abelian subgroup         C1      NOp   1
 Largest concise Abelian subgroup C1      NOp   1
                         Standard orientation:                         
 ---------------------------------------------------------------------
 Center     Atomic      Atomic             Coordinates (Angstroms)
 Number     Number       Type             X           Y           Z
 ---------------------------------------------------------------------
      1          8           0       -1.513188    0.006321   -0.121606
      2          1           0       -0.560005   -0.005933    0.047628
      3          1           0       -1.913858   -0.039807    0.749660
      4          8           0        1.386788   -0.005642    0.111070
      5          1           0        1.735547    0.780445   -0.319899
      6          1           0        1.749518   -0.740142   -0.393101
 ---------------------------------------------------------------------
 Rotational constants (GHZ):         216.3764271           6.4182202           6.4172015
 Standard basis: Aug-CC-pVTZ (5D, 7F)
 There are   210 symmetry adapted cartesian basis functions of A   symmetry.
 There are   184 symmetry adapted basis functions of A   symmetry.
   184 basis functions,   252 primitive gaussians,   210 cartesian basis functions
    10 alpha electrons       10 beta electrons
       nuclear repulsion energy        36.5803745740 Hartrees.
 NAtoms=    6 NActive=    6 NUniq=    6 SFac= 1.00D+00 NAtFMM=   60 NAOKFM=F Big=F
 Integral buffers will be    131072 words long.
 Raffenetti 1 integral format.
 Two-electron integral symmetry is turned on.
 One-electron integrals computed using PRISM.
 NBasis=   184 RedAO= T EigKep=  2.30D-04  NBF=   184
 NBsUse=   184 1.00D-06 EigRej= -1.00D+00 NBFU=   184
 Initial guess from the checkpoint file:  "/gscratch/scrubbed/gds001/Gau-10587.chk"
 B after Tr=    -0.000000   -0.000000   -0.000000
         Rot=    1.000000    0.000082   -0.000229   -0.000005 Ang=   0.03 deg.
 ExpMin= 2.53D-02 ExpMax= 1.53D+04 ExpMxC= 5.22D+02 IAcc=3 IRadAn=         5 AccDes= 0.00D+00
 Harris functional with IExCor=  205 and IRadAn=       5 diagonalized for initial guess.
 HarFok:  IExCor=  205 AccDes= 0.00D+00 IRadAn=         5 IDoV= 1 UseB2=F ITyADJ=14
 ICtDFT=  3500011 ScaDFX=  1.000000  1.000000  1.000000  1.000000
 FoFCou: FMM=F IPFlag=           0 FMFlag=      100000 FMFlg1=           0
         NFxFlg=           0 DoJE=T BraDBF=F KetDBF=T FulRan=T
         wScrn=  0.000000 ICntrl=       500 IOpCl=  0 I1Cent=   200000004 NGrid=           0
         NMat0=    1 NMatS0=      1 NMatT0=    0 NMatD0=    1 NMtDS0=    0 NMtDT0=    0
 Petite list used in FoFCou.
 Keep R1 ints in memory in canonical form, NReq=158655405.
 Requested convergence on RMS density matrix=1.00D-08 within 128 cycles.
 Requested convergence on MAX density matrix=1.00D-06.
 Requested convergence on             energy=1.00D-06.
 No special actions if energy rises.
 SCF Done:  E(RHF) =  -152.126186059     A.U. after    8 cycles
            NFock=  8  Conv=0.84D-08     -V/T= 2.0015
 ExpMin= 2.53D-02 ExpMax= 1.53D+04 ExpMxC= 5.22D+02 IAcc=3 IRadAn=         5 AccDes= 0.00D+00
 HarFok:  IExCor=  205 AccDes= 0.00D+00 IRadAn=         5 IDoV=-2 UseB2=F ITyADJ=14
 ICtDFT= 12500011 ScaDFX=  1.000000  1.000000  1.000000  1.000000
 Range of M.O.s used for correlation:     3   184
 NBasis=   184 NAE=    10 NBE=    10 NFC=     2 NFV=     0
 NROrb=    182 NOA=     8 NOB=     8 NVA=   174 NVB=   174

 **** Warning!!: The largest alpha MO coefficient is  0.20101458D+02

 Fully direct method using O(ONN) memory.
 JobTyp=1 Pass  1:  I=   3 to  10 NPSUse= 28 ParTrn=T ParDer=T DoDerP=T.
 Spin components of T(2) and E(2):
     alpha-alpha T2 =       0.1646683732D-01 E2=     -0.6591269132D-01
     alpha-beta  T2 =       0.9461036861D-01 E2=     -0.4082277713D+00
     beta-beta   T2 =       0.1646683732D-01 E2=     -0.6591269132D-01
 ANorm=    0.1061858768D+01
 E2 =    -0.5400531539D+00 EUMP2 =    -0.15266623921257D+03
          IDoAtm=111111
          Differentiating once with respect to electric field.
                with respect to dipole field.
          Differentiating once with respect to nuclear coordinates.
 Keep R1 ints in memory in canonical form, NReq=158658577.
          There are     1 degrees of freedom in the 1st order CPHF.  IDoFFX=0 NUNeed=     1.
 LinEq1:  Iter=  0 NonCon=     1 RMS=3.34D-03 Max=4.69D-02 NDo=     1
 AX will form     1 AO Fock derivatives at one time.
 LinEq1:  Iter=  1 NonCon=     1 RMS=4.23D-04 Max=4.52D-03 NDo=     1
 LinEq1:  Iter=  2 NonCon=     1 RMS=1.37D-04 Max=1.62D-03 NDo=     1
 LinEq1:  Iter=  3 NonCon=     1 RMS=4.14D-05 Max=3.42D-04 NDo=     1
 LinEq1:  Iter=  4 NonCon=     1 RMS=5.54D-06 Max=4.00D-05 NDo=     1
 LinEq1:  Iter=  5 NonCon=     1 RMS=1.09D-06 Max=8.16D-06 NDo=     1
 LinEq1:  Iter=  6 NonCon=     1 RMS=2.38D-07 Max=2.36D-06 NDo=     1
 LinEq1:  Iter=  7 NonCon=     1 RMS=1.05D-07 Max=1.17D-06 NDo=     1
 LinEq1:  Iter=  8 NonCon=     1 RMS=1.57D-08 Max=1.09D-07 NDo=     1
 LinEq1:  Iter=  9 NonCon=     1 RMS=2.70D-09 Max=2.34D-08 NDo=     1
 LinEq1:  Iter= 10 NonCon=     1 RMS=5.47D-10 Max=4.39D-09 NDo=     1
 LinEq1:  Iter= 11 NonCon=     0 RMS=7.42D-11 Max=6.59D-10 NDo=     1
 Linear equations converged to 1.000D-10 1.000D-09 after    11 iterations.
 End of Minotr F.D. properties file   721 does not exist.
 End of Minotr F.D. properties file   722 does not exist.
 End of Minotr F.D. properties file   788 does not exist.
 Calling FoFJK, ICntrl=  10002127 FMM=F ISym2X=0 I1Cent= 0 IOpClX= 0 NMat=1 NMatS=1 NMatT=0.
 ***** Axes restored to original set *****
 -------------------------------------------------------------------
 Center     Atomic                   Forces (Hartrees/Bohr)
 Number     Number              X              Y              Z
 -------------------------------------------------------------------
      1        8          -0.000279199    0.000034070   -0.000509412
      2        1           0.000318331   -0.000028034    0.000244258
      3        1          -0.000003961   -0.000020111    0.000301798
      4        8          -0.000458557   -0.000008329    0.000415939
      5        1           0.000223534    0.000183951   -0.000212615
      6        1           0.000199852   -0.000161546   -0.000239968
 -------------------------------------------------------------------
 Cartesian Forces:  Max     0.000509412 RMS     0.000261181

 GradGradGradGradGradGradGradGradGradGradGradGradGradGradGradGradGradGrad
 Berny optimization.
 Using GEDIIS/GDIIS optimizer.
 FormGI is forming the generalized inverse of G from B-inverse, IUseBI=4.
 Internal  Forces:  Max     0.000325688 RMS     0.000186837
 Search for a local minimum.
 Step number   4 out of a maximum of   24
 All quantities printed in internal units (Hartrees-Bohrs-Radians)
 Mixed Optimization -- En-DIIS/RFO-DIIS
 Swapping is turned off.
 Update second derivatives using D2CorX and points    1    2    3    4
 DE= -2.67D-06 DEPred=-4.40D-06 R= 6.08D-01
 TightC=F SS=  1.41D+00  RLast= 3.25D-02 DXNew= 2.5227D-01 9.7634D-02
 Trust test= 6.08D-01 RLast= 3.25D-02 DXMaxT set to 1.50D-01
 The second derivative matrix:
                          R1        R2        R3        R4        R5
           R1           0.51640
           R2          -0.01504   0.52678
           R3          -0.00721  -0.00687   0.04555
           R4          -0.01530  -0.01835  -0.00804   0.52237
           R5          -0.01518  -0.01823  -0.00801  -0.01819   0.52271
           A1           0.00788   0.01037   0.00699   0.00910   0.00898
           A2           0.01656   0.01425   0.00124   0.01778   0.01774
           A3           0.00659   0.00468  -0.00010   0.00662   0.00661
           A4           0.02057   0.02086   0.00724   0.02392   0.02378
           A5          -0.00362  -0.00250  -0.00061  -0.00093  -0.00091
           A6          -0.00011  -0.00011  -0.00002  -0.00013  -0.00013
           D1          -0.01263  -0.01004  -0.00015  -0.01265  -0.01263
           D2           0.01264   0.01005   0.00015   0.01269   0.01267
           D3          -0.00229  -0.00266  -0.00028  -0.00308  -0.00307
                          A1        A2        A3        A4        A5
           A1           0.15702
           A2          -0.01869   0.16169
           A3          -0.00952   0.00276   0.16247
           A4          -0.02214  -0.01512  -0.00623   0.12559
           A5          -0.00235   0.00041  -0.00086   0.00152   0.01044
           A6           0.00013   0.00002   0.00000   0.00013  -0.00003
           D1           0.01398  -0.00375  -0.00362   0.00973   0.00164
           D2          -0.01403   0.00374   0.00362  -0.00976  -0.00158
           D3           0.00175   0.00044   0.00028   0.00138  -0.00181
                          A6        D1        D2        D3
           A6           0.00230
           D1          -0.00001   0.00756
           D2           0.00001  -0.00524   0.00753
           D3           0.00000  -0.00056   0.00055   0.01499
 ITU=  1 -1  1  0
     Eigenvalues ---    0.00230   0.00230   0.00958   0.04195   0.05004
     Eigenvalues ---    0.12553   0.15265   0.17026   0.47493   0.53186
     Eigenvalues ---    0.54073   0.54381
 En-DIIS/RFO-DIIS/Sim-DIIS IScMMF=       -3 using points:     4    3    2
 RFO step:  Lambda=-1.92119459D-06.
 DidBck=T Rises=F RFO-DIIS coefs:    0.59649    0.19307    0.21043
 Iteration  1 RMS(Cart)=  0.00220558 RMS(Int)=  0.00000494
 Iteration  2 RMS(Cart)=  0.00000670 RMS(Int)=  0.00000179
 Iteration  3 RMS(Cart)=  0.00000000 RMS(Int)=  0.00000179
 Variable       Old X    -DE/DX   Delta X   Delta X   Delta X     New X
                                 (Linear)    (Quad)   (Total)
    R1        1.82957   0.00031   0.00035   0.00035   0.00071   1.83028
    R2        1.81430   0.00028   0.00031   0.00033   0.00064   1.81494
    R3        3.68086  -0.00004   0.00078  -0.00061   0.00017   3.68102
    R4        1.81777   0.00033   0.00039   0.00032   0.00071   1.81849
    R5        1.81773   0.00033   0.00039   0.00033   0.00071   1.81844
    A1        1.82516  -0.00022  -0.00144  -0.00003  -0.00147   1.82369
    A2        1.92613   0.00011  -0.00022   0.00036   0.00015   1.92628
    A3        1.93875   0.00005   0.00006   0.00009   0.00015   1.93891
    A4        1.82602  -0.00016  -0.00142  -0.00020  -0.00161   1.82440
    A5        3.28519   0.00005   0.00555  -0.00000   0.00554   3.29073
    A6        3.15203  -0.00000   0.00028  -0.00018   0.00010   3.15213
    D1       -2.14983  -0.00006  -0.00146   0.00003  -0.00143  -2.15126
    D2        2.14544   0.00006   0.00141   0.00002   0.00144   2.14688
    D3       -2.08672  -0.00002   0.00085  -0.00018   0.00067  -2.08605
         Item               Value     Threshold  Converged?
 Maximum Force            0.000326     0.000450     YES
 RMS     Force            0.000187     0.000300     YES
 Maximum Displacement     0.006321     0.001800     NO 
 RMS     Displacement     0.002205     0.001200     NO 
 Predicted change in Energy=-9.601279D-07
 GradGradGradGradGradGradGradGradGradGradGradGradGradGradGradGradGradGrad

                          Input orientation:                          
 ---------------------------------------------------------------------
 Center     Atomic      Atomic             Coordinates (Angstroms)
 Number     Number       Type             X           Y           Z
 ---------------------------------------------------------------------
      1          8           0       -1.512467    0.007410   -0.120582
      2          1           0       -0.559411   -0.006921    0.051331
      3          1           0       -1.914533   -0.049453    0.749778
      4          8           0        1.387629   -0.006682    0.109674
      5          1           0        1.735278    0.784627   -0.313404
      6          1           0        1.749580   -0.734593   -0.405219
 ---------------------------------------------------------------------
                    Distance matrix (angstroms):
                    1          2          3          4          5
     1  O    0.000000
     2  H    0.968542   0.000000
     3  H    0.960426   1.525120   0.000000
     4  O    2.909256   1.947914   3.363902   0.000000
     5  H    3.345010   2.454624   3.891936   0.962302   0.000000
     6  H    3.357459   2.463612   3.902455   0.962277   1.522059
                    6
     6  H    0.000000
 Stoichiometry    H4O2
 Framework group  C1[X(H4O2)]
 Deg. of freedom    12
 Full point group                 C1      NOp   1
 Largest Abelian subgroup         C1      NOp   1
 Largest concise Abelian subgroup C1      NOp   1
                         Standard orientation:                         
 ---------------------------------------------------------------------
 Center     Atomic      Atomic             Coordinates (Angstroms)
 Number     Number       Type             X           Y           Z
 ---------------------------------------------------------------------
      1          8           0       -1.512960    0.006463   -0.121857
      2          1           0       -0.560072   -0.006178    0.051112
      3          1           0       -1.915866   -0.040545    0.748703
      4          8           0        1.386912   -0.005769    0.111299
      5          1           0        1.735167    0.780664   -0.320287
      6          1           0        1.749162   -0.739492   -0.395061
 ---------------------------------------------------------------------
 Rotational constants (GHZ):         216.2287105           6.4181485           6.4171052
 Standard basis: Aug-CC-pVTZ (5D, 7F)
 There are   210 symmetry adapted cartesian basis functions of A   symmetry.
 There are   184 symmetry adapted basis functions of A   symmetry.
   184 basis functions,   252 primitive gaussians,   210 cartesian basis functions
    10 alpha electrons       10 beta electrons
       nuclear repulsion energy        36.5735268398 Hartrees.
 NAtoms=    6 NActive=    6 NUniq=    6 SFac= 1.00D+00 NAtFMM=   60 NAOKFM=F Big=F
 Integral buffers will be    131072 words long.
 Raffenetti 1 integral format.
 Two-electron integral symmetry is turned on.
 One-electron integrals computed using PRISM.
 NBasis=   184 RedAO= T EigKep=  2.30D-04  NBF=   184
 NBsUse=   184 1.00D-06 EigRej= -1.00D+00 NBFU=   184
 Initial guess from the checkpoint file:  "/gscratch/scrubbed/gds001/Gau-10587.chk"
 B after Tr=    -0.000000   -0.000000   -0.000000
         Rot=    1.000000   -0.000520    0.000030    0.000001 Ang=  -0.06 deg.
 Keep R1 ints in memory in canonical form, NReq=158655493.
 Requested convergence on RMS density matrix=1.00D-08 within 128 cycles.
 Requested convergence on MAX density matrix=1.00D-06.
 Requested convergence on             energy=1.00D-06.
 No special actions if energy rises.
 SCF Done:  E(RHF) =  -152.126114467     A.U. after    7 cycles
            NFock=  7  Conv=0.45D-08     -V/T= 2.0015
 ExpMin= 2.53D-02 ExpMax= 1.53D+04 ExpMxC= 5.22D+02 IAcc=3 IRadAn=         5 AccDes= 0.00D+00
 HarFok:  IExCor=  205 AccDes= 0.00D+00 IRadAn=         5 IDoV=-2 UseB2=F ITyADJ=14
 ICtDFT= 12500011 ScaDFX=  1.000000  1.000000  1.000000  1.000000
 Range of M.O.s used for correlation:     3   184
 NBasis=   184 NAE=    10 NBE=    10 NFC=     2 NFV=     0
 NROrb=    182 NOA=     8 NOB=     8 NVA=   174 NVB=   174

 **** Warning!!: The largest alpha MO coefficient is  0.20128738D+02

 Fully direct method using O(ONN) memory.
 JobTyp=1 Pass  1:  I=   3 to  10 NPSUse= 28 ParTrn=T ParDer=T DoDerP=T.
 Spin components of T(2) and E(2):
     alpha-alpha T2 =       0.1647407449D-01 E2=     -0.6592163047D-01
     alpha-beta  T2 =       0.9465504249D-01 E2=     -0.4082824517D+00
     beta-beta   T2 =       0.1647407449D-01 E2=     -0.6592163047D-01
 ANorm=    0.1061886619D+01
 E2 =    -0.5401257126D+00 EUMP2 =    -0.15266624017975D+03
          IDoAtm=111111
          Differentiating once with respect to electric field.
                with respect to dipole field.
          Differentiating once with respect to nuclear coordinates.
 Keep R1 ints in memory in canonical form, NReq=158658577.
          There are     1 degrees of freedom in the 1st order CPHF.  IDoFFX=0 NUNeed=     1.
 LinEq1:  Iter=  0 NonCon=     1 RMS=3.34D-03 Max=4.68D-02 NDo=     1
 AX will form     1 AO Fock derivatives at one time.
 LinEq1:  Iter=  1 NonCon=     1 RMS=4.24D-04 Max=4.53D-03 NDo=     1
 LinEq1:  Iter=  2 NonCon=     1 RMS=1.37D-04 Max=1.63D-03 NDo=     1
 LinEq1:  Iter=  3 NonCon=     1 RMS=4.15D-05 Max=3.44D-04 NDo=     1
 LinEq1:  Iter=  4 NonCon=     1 RMS=5.55D-06 Max=3.99D-05 NDo=     1
 LinEq1:  Iter=  5 NonCon=     1 RMS=1.09D-06 Max=8.15D-06 NDo=     1
 LinEq1:  Iter=  6 NonCon=     1 RMS=2.38D-07 Max=2.36D-06 NDo=     1
 LinEq1:  Iter=  7 NonCon=     1 RMS=1.05D-07 Max=1.17D-06 NDo=     1
 LinEq1:  Iter=  8 NonCon=     1 RMS=1.57D-08 Max=1.09D-07 NDo=     1
 LinEq1:  Iter=  9 NonCon=     1 RMS=2.71D-09 Max=2.36D-08 NDo=     1
 LinEq1:  Iter= 10 NonCon=     1 RMS=5.50D-10 Max=4.44D-09 NDo=     1
 LinEq1:  Iter= 11 NonCon=     0 RMS=7.45D-11 Max=6.61D-10 NDo=     1
 Linear equations converged to 1.000D-10 1.000D-09 after    11 iterations.
 End of Minotr F.D. properties file   721 does not exist.
 End of Minotr F.D. properties file   722 does not exist.
 End of Minotr F.D. properties file   788 does not exist.
 Calling FoFJK, ICntrl=  10002127 FMM=F ISym2X=0 I1Cent= 0 IOpClX= 0 NMat=1 NMatS=1 NMatT=0.
 ***** Axes restored to original set *****
 -------------------------------------------------------------------
 Center     Atomic                   Forces (Hartrees/Bohr)
 Number     Number              X              Y              Z
 -------------------------------------------------------------------
      1        8          -0.000014385   -0.000000786    0.000001088
      2        1           0.000039333   -0.000012321    0.000022771
      3        1           0.000013199    0.000000626   -0.000009839
      4        8          -0.000087623    0.000021696   -0.000021208
      5        1           0.000038164   -0.000022458    0.000005782
      6        1           0.000011312    0.000013243    0.000001406
 -------------------------------------------------------------------
 Cartesian Forces:  Max     0.000087623 RMS     0.000027483

 GradGradGradGradGradGradGradGradGradGradGradGradGradGradGradGradGradGrad
 Berny optimization.
 Using GEDIIS/GDIIS optimizer.
 FormGI is forming the generalized inverse of G from B-inverse, IUseBI=4.
 Internal  Forces:  Max     0.000062953 RMS     0.000022199
 Search for a local minimum.
 Step number   5 out of a maximum of   24
 All quantities printed in internal units (Hartrees-Bohrs-Radians)
 Mixed Optimization -- En-DIIS/RFO-DIIS
 Swapping is turned off.
 Update second derivatives using D2CorX and points    1    2    3    4    5
 DE= -9.67D-07 DEPred=-9.60D-07 R= 1.01D+00
 Trust test= 1.01D+00 RLast= 6.49D-03 DXMaxT set to 1.50D-01
 The second derivative matrix:
                          R1        R2        R3        R4        R5
           R1           0.52316
           R2          -0.00124   0.54803
           R3           0.00566   0.00567   0.04354
           R4          -0.00476  -0.00082   0.00427   0.53649
           R5          -0.00487  -0.00092   0.00433  -0.00429   0.53639
           A1           0.01364   0.01667   0.00654   0.01507   0.01496
           A2          -0.01134  -0.01298   0.00609  -0.00872  -0.00883
           A3          -0.00318  -0.00522   0.00143  -0.00269  -0.00272
           A4           0.01416   0.01337   0.00663   0.01776   0.01764
           A5          -0.00206  -0.00074  -0.00041   0.00061   0.00061
           A6           0.00011   0.00011  -0.00006   0.00008   0.00008
           D1          -0.00186   0.00154  -0.00123  -0.00233  -0.00230
           D2           0.00181  -0.00157   0.00124   0.00231   0.00228
           D3          -0.00032  -0.00076  -0.00068  -0.00123  -0.00122
                          A1        A2        A3        A4        A5
           A1           0.15696
           A2          -0.01886   0.15024
           A3          -0.01078  -0.00071   0.16162
           A4          -0.02632  -0.01503  -0.00680   0.12025
           A5          -0.00167   0.00021  -0.00083   0.00233   0.01034
           A6           0.00011   0.00012   0.00004   0.00012  -0.00002
           D1           0.01737  -0.00118  -0.00318   0.01188   0.00127
           D2          -0.01742   0.00114   0.00316  -0.01190  -0.00121
           D3           0.00178   0.00143   0.00063   0.00155  -0.00187
                          A6        D1        D2        D3
           A6           0.00230
           D1          -0.00004   0.00731
           D2           0.00004  -0.00499   0.00727
           D3          -0.00001  -0.00092   0.00091   0.01492
 ITU=  0  1 -1  1  0
     Eigenvalues ---    0.00230   0.00230   0.00965   0.04073   0.05015
     Eigenvalues ---    0.12441   0.15122   0.15896   0.52272   0.53681
     Eigenvalues ---    0.54073   0.54976
 En-DIIS/RFO-DIIS/Sim-DIIS IScMMF=       -3 using points:     5    4    3    2
 RFO step:  Lambda=-7.63297436D-08.
 DIIS inversion failure, remove point   4.
 RFO-DIIS uses    3 points instead of    4
 DidBck=F Rises=F RFO-DIIS coefs:    0.93740    0.05184    0.01076    0.00000
 Iteration  1 RMS(Cart)=  0.00028061 RMS(Int)=  0.00000011
 Iteration  2 RMS(Cart)=  0.00000005 RMS(Int)=  0.00000008
 Variable       Old X    -DE/DX   Delta X   Delta X   Delta X     New X
                                 (Linear)    (Quad)   (Total)
    R1        1.83028   0.00000  -0.00004   0.00007   0.00003   1.83031
    R2        1.81494  -0.00001  -0.00004   0.00003  -0.00000   1.81494
    R3        3.68102  -0.00004   0.00000  -0.00094  -0.00094   3.68008
    R4        1.81849  -0.00001  -0.00004   0.00004   0.00001   1.81849
    R5        1.81844  -0.00001  -0.00004   0.00005   0.00001   1.81845
    A1        1.82369  -0.00001   0.00007  -0.00009  -0.00002   1.82367
    A2        1.92628   0.00006  -0.00001   0.00051   0.00050   1.92677
    A3        1.93891  -0.00000  -0.00001   0.00011   0.00010   1.93901
    A4        1.82440  -0.00003   0.00008  -0.00014  -0.00006   1.82435
    A5        3.29073   0.00000  -0.00000   0.00001   0.00000   3.29073
    A6        3.15213  -0.00000  -0.00000  -0.00034  -0.00034   3.15179
    D1       -2.15126   0.00000   0.00005   0.00014   0.00018  -2.15108
    D2        2.14688  -0.00000  -0.00004  -0.00003  -0.00007   2.14680
    D3       -2.08605  -0.00002  -0.00003  -0.00031  -0.00034  -2.08639
         Item               Value     Threshold  Converged?
 Maximum Force            0.000063     0.000450     YES
 RMS     Force            0.000022     0.000300     YES
 Maximum Displacement     0.000628     0.001800     YES
 RMS     Displacement     0.000281     0.001200     YES
 Predicted change in Energy=-3.816168D-08
 Optimization completed.
    -- Stationary point found.
                           ----------------------------
                           !   Optimized Parameters   !
                           ! (Angstroms and Degrees)  !
 --------------------------                            --------------------------
 ! Name  Definition              Value          Derivative Info.                !
 --------------------------------------------------------------------------------
 ! R1    R(1,2)                  0.9685         -DE/DX =    0.0                 !
 ! R2    R(1,3)                  0.9604         -DE/DX =    0.0                 !
 ! R3    R(2,4)                  1.9479         -DE/DX =    0.0                 !
 ! R4    R(4,5)                  0.9623         -DE/DX =    0.0                 !
 ! R5    R(4,6)                  0.9623         -DE/DX =    0.0                 !
 ! A1    A(2,1,3)              104.49           -DE/DX =    0.0                 !
 ! A2    A(2,4,5)              110.3674         -DE/DX =    0.0001              !
 ! A3    A(2,4,6)              111.0911         -DE/DX =    0.0                 !
 ! A4    A(5,4,6)              104.5306         -DE/DX =    0.0                 !
 ! A5    L(1,2,4,3,-1)         188.545          -DE/DX =    0.0                 !
 ! A6    L(1,2,4,3,-2)         180.6036         -DE/DX =    0.0                 !
 ! D1    D(3,1,4,5)           -123.2583         -DE/DX =    0.0                 !
 ! D2    D(3,1,4,6)            123.007          -DE/DX =    0.0                 !
 ! D3    D(2,4,5,6)           -119.522          -DE/DX =    0.0                 !
 --------------------------------------------------------------------------------
 GradGradGradGradGradGradGradGradGradGradGradGradGradGradGradGradGradGrad

                          Input orientation:                          
 ---------------------------------------------------------------------
 Center     Atomic      Atomic             Coordinates (Angstroms)
 Number     Number       Type             X           Y           Z
 ---------------------------------------------------------------------
      1          8           0       -1.512467    0.007410   -0.120582
      2          1           0       -0.559411   -0.006921    0.051331
      3          1           0       -1.914533   -0.049453    0.749778
      4          8           0        1.387629   -0.006682    0.109674
      5          1           0        1.735278    0.784627   -0.313404
      6          1           0        1.749580   -0.734593   -0.405219
 ---------------------------------------------------------------------
                    Distance matrix (angstroms):
                    1          2          3          4          5
     1  O    0.000000
     2  H    0.968542   0.000000
     3  H    0.960426   1.525120   0.000000
     4  O    2.909256   1.947914   3.363902   0.000000
     5  H    3.345010   2.454624   3.891936   0.962302   0.000000
     6  H    3.357459   2.463612   3.902455   0.962277   1.522059
                    6
     6  H    0.000000
 Stoichiometry    H4O2
 Framework group  C1[X(H4O2)]
 Deg. of freedom    12
 Full point group                 C1      NOp   1
 Largest Abelian subgroup         C1      NOp   1
 Largest concise Abelian subgroup C1      NOp   1
                         Standard orientation:                         
 ---------------------------------------------------------------------
 Center     Atomic      Atomic             Coordinates (Angstroms)
 Number     Number       Type             X           Y           Z
 ---------------------------------------------------------------------
      1          8           0       -1.512960    0.006463   -0.121857
      2          1           0       -0.560072   -0.006178    0.051112
      3          1           0       -1.915866   -0.040545    0.748703
      4          8           0        1.386912   -0.005769    0.111299
      5          1           0        1.735167    0.780664   -0.320287
      6          1           0        1.749162   -0.739492   -0.395061
 ---------------------------------------------------------------------
 Rotational constants (GHZ):         216.2287105           6.4181485           6.4171052

 **********************************************************************

            Population analysis using the SCF density.

 **********************************************************************

 Orbital symmetries:
       Occupied  (A) (A) (A) (A) (A) (A) (A) (A) (A) (A)
       Virtual   (A) (A) (A) (A) (A) (A) (A) (A) (A) (A) (A) (A)
                 (A) (A) (A) (A) (A) (A) (A) (A) (A) (A) (A) (A)
                 (A) (A) (A) (A) (A) (A) (A) (A) (A) (A) (A) (A)
                 (A) (A) (A) (A) (A) (A) (A) (A) (A) (A) (A) (A)
                 (A) (A) (A) (A) (A) (A) (A) (A) (A) (A) (A) (A)
                 (A) (A) (A) (A) (A) (A) (A) (A) (A) (A) (A) (A)
                 (A) (A) (A) (A) (A) (A) (A) (A) (A) (A) (A) (A)
                 (A) (A) (A) (A) (A) (A) (A) (A) (A) (A) (A) (A)
                 (A) (A) (A) (A) (A) (A) (A) (A) (A) (A) (A) (A)
                 (A) (A) (A) (A) (A) (A) (A) (A) (A) (A) (A) (A)
                 (A) (A) (A) (A) (A) (A) (A) (A) (A) (A) (A) (A)
                 (A) (A) (A) (A) (A) (A) (A) (A) (A) (A) (A) (A)
                 (A) (A) (A) (A) (A) (A) (A) (A) (A) (A) (A) (A)
                 (A) (A) (A) (A) (A) (A) (A) (A) (A) (A) (A) (A)
                 (A) (A) (A) (A) (A) (A)
 The electronic state is 1-A.
 Alpha  occ. eigenvalues --  -20.59260 -20.53625  -1.37862  -1.32079  -0.74055
 Alpha  occ. eigenvalues --   -0.69294  -0.61387  -0.55879  -0.53073  -0.48104
 Alpha virt. eigenvalues --    0.02292   0.04560   0.04674   0.07635   0.12136
 Alpha virt. eigenvalues --    0.14244   0.16416   0.16967   0.17752   0.18656
[...]
 .00024226,0.00001034,-0.00022995,0.06486123,-0.00005548,-0.00045062,0.
 00000329,0.00009572,0.00113394,0.00000397,-0.00001554,0.00008578,-0.00
 001092,-0.01041880,-0.33604057,0.00049632,-0.00000100,-0.00034587,-0.0
 0129049,0.00001039,0.00095111,0.00018909,-0.00000745,0.00015749,0.2165
 4700,-0.01567746,-0.06325090,0.00027214,-0.00013328,0.00003025,-0.0002
 3687,0.00026631,0.00028888,0.00002814,0.00001205,-0.00005993,-0.033727
 85,0.09932322,-0.10081630,0.03084539,0.00001308,0.00018519,-0.00006970
 ,0.00000990,-0.00041344,0.00023842,0.00003315,0.00000080,-0.00000918,0
 .08836189,0.18372508,-0.10397297,-0.09352625,-0.17605620,-0.00028957,-
 0.00018404,0.00019694,0.00069621,0.00067204,-0.00053566,-0.00005117,-0
 .00006987,-0.00004690,-0.10165930,-0.11942880,0.01752075,0.09287587,0.
 11171372,-0.01548207,0.00026002,0.00012253,0.00003354,-0.00022565,-0.0
 0030456,0.00025855,0.00003031,-0.00000227,-0.00005925,-0.02875988,-0.0
 8892912,-0.11512563,0.00281904,0.00510824,0.00842796,0.02587616,0.0000
 4867,0.00015753,0.00006124,-0.00011934,-0.00029383,-0.00019353,-0.0000
 2353,-0.00001338,0.00001470,-0.07796894,0.15154637,0.11964849,-0.00594
 206,-0.00744143,0.00729695,0.08400520,-0.14395527,-0.00027283,0.000176
 10,0.00022366,0.00067318,-0.00063256,-0.00064119,-0.00005255,0.0000746
 9,-0.00003457,-0.11449385,0.13510991,0.04496744,0.00768122,-0.00790029
 ,-0.00165307,0.10646483,-0.12682785,-0.04286228,-0.06461745,-0.0016631
 7,0.01680049,0.02663652,0.00384834,-0.04577752,0.07335714,-0.00126403,
 0.01495148,-0.07297646,-0.00141939,-0.00799800,0.00089841,0.00117030,0
 .00815695,0.01765771,0.00089886,-0.01941432,-0.01353181,-0.00095902,0.
 02009555,-0.00633915,0.00290864,-0.04126587,0.00235050,0.00024245,-0.0
 0389395,0.00392250,0.00307303,-0.00901021,-0.00475144,0.00008210,-0.00
 068194,0.00004886,-0.00315688,0.00973235,-0.04410231,-0.00475315,0.065
 09349,-0.00110732,0.00004962,-0.00109372,0.04521020,0.00471239,-0.0640
 8377,-0.00168721,0.00005507,-0.00074485,-0.00420992,-0.00003691,0.0001
 8619,0.00016362,-0.00001016,0.00015089,0.06420900,-0.00003873,-0.00004
 258,0.00001724,0.00010267,0.00081250,-0.00002645,-0.00000103,0.0000186
 1,-0.00000874,-0.01209112,-0.31666903,0.00039401,0.00002302,-0.0004335
 5,-0.00171382,-0.00003555,0.00138830,0.00007320,-0.00000669,0.00010950
 ,0.20563862,-0.01149006,-0.05903743,-0.00035914,-0.00016661,0.00020489
 ,0.00073965,0.00055799,-0.00017960,-0.00004924,-0.00002598,-0.00007834
 ,-0.03180158,0.09471829,-0.09660348,0.02847338,0.00021734,0.00013383,-
 0.00009473,-0.00037089,-0.00014408,0.00006131,-0.00002303,-0.00002903,
 -0.00001511,0.08455401,0.17511601,-0.09940691,-0.08933368,-0.16812882,
 -0.00028918,-0.00006853,0.00025751,0.00068822,0.00001457,-0.00048816,-
 0.00006470,0.00000742,-0.00001380,-0.09768452,-0.11370829,0.01625091,0
 .08937880,0.10684625,-0.01419735,-0.00035418,0.00013010,0.00021782,0.0
 0073908,-0.00051444,-0.00023854,-0.00004823,0.00003789,-0.00007312,-0.
 02667390,-0.08269006,-0.10778853,0.00299692,0.00495626,0.00797138,0.02
 334031,-0.00016908,0.00011646,0.00008218,0.00027985,-0.00014543,-0.000
 02356,0.00002985,-0.00002978,0.00001499,-0.07247089,0.14076448,0.11091
 618,-0.00575000,-0.00694791,0.00690859,0.07808027,-0.13375782,-0.00029
 674,0.00005147,0.00027437,0.00071325,0.00003198,-0.00048764,-0.0000588
 9,-0.00001055,-0.00001170,-0.10754634,0.12521630,0.04172228,0.00727773
 ,-0.00739081,-0.00180912,0.09991099,-0.11789838,-0.03968820,-0.3275653
 7,-0.01264979,0.10224972,0.20393141,0.02974620,-0.33812781,0.37615823,
 -0.00611794,0.07524732,-0.38750646,-0.00731487,-0.03948911,0.00315242,
 0.00611727,0.04179777,0.09170269,0.00317199,-0.10294844,-0.07371566,-0
 .00332708,0.10722829,-0.04799599,0.01872612,-0.27866697,0.01372196,0.0
 0137374,-0.02059153,0.03309369,0.01991063,-0.06219085,-0.03297691,0.00
 012863,-0.00402908,0.00026361,-0.02007249,0.06631459,-0.29480401,-0.03
 299839,0.44282165,-0.00342326,0.00028680,-0.00767748,0.29884240,0.0327
 6507,-0.43586248,-0.00089622,0.00013933,-0.00188645,0.00042643,-0.0003
 9140,0.00590578,0.00121650,0.00000484,-0.00014485,0.04085389,0.0000308
 8,-0.00101002,0.00005126,-0.00007519,0.00238254,-0.00003308,-0.0000230
 7,-0.00000868,-0.00004724,-0.00851765,-0.23631899,-0.00076619,0.000067
 97,-0.00194236,0.00198298,-0.00007452,0.00328077,0.00032558,-0.0000494
 8,0.00075889,0.14548577,-0.00700067,-0.04846963,0.00015827,-0.00023805
 ,0.00068455,-0.00140630,0.00067439,-0.00163620,-0.00002381,-0.00010268
 ,-0.00024418,-0.02234658,0.06756515,-0.06993548,0.02162979,-0.00026561
 ,0.00024074,-0.00008568,-0.00025892,-0.00037361,0.00016395,0.00007929,
 -0.00004816,0.00002576,0.06140799,0.13090835,-0.07578087,-0.06416128,-
 0.12564614,-0.00005519,-0.00022011,0.00008152,-0.00005128,0.00053043,0
 .00010208,0.00004914,0.00001095,-0.00001922,-0.07141647,-0.08696824,0.
 01322939,0.06593566,0.08130876,-0.01182882,0.00014108,0.00014034,0.000
 69013,-0.00139387,-0.00045912,-0.00166509,-0.00001235,0.00013108,-0.00
 022610,-0.01925403,-0.05898013,-0.07709266,0.00198863,0.00319853,0.005
 53814,0.01853052,0.00028876,0.00019950,0.00011271,0.00020615,-0.000288
 51,-0.00023939,-0.00008359,-0.00003783,-0.00003200,-0.05264310,0.10404
 677,0.08283757,-0.00373753,-0.00508119,0.00533821,0.05596931,-0.098838
 76,-0.00000871,0.00023234,0.00011542,-0.00004010,-0.00056805,0.0000147
 7,0.00004136,-0.00001325,-0.00002135,-0.07794379,0.09399797,0.03314294
 ,0.00519566,-0.00563192,-0.00156495,0.07275558,-0.08801710,-0.03168683
 ,-1.12425906,0.02080881,0.40388918,-0.24337095,0.02282065,0.06626476,1
 .09391190,-0.01841399,0.20848119,-1.09187481,-0.02063683,-0.38265300,-
 0.02155612,0.01886284,0.37397435,0.24338204,-0.02171672,-0.06318907,-0
 .21409604,0.02121640,0.06071295,0.03196479,-0.00246553,0.03536411,0.00
 483109,0.00192908,-0.03053354,-0.03671064,-0.00015683,-0.01936420,-0.0
 0115207,-0.00036395,-0.00334381,-0.00004104,0.00051834,0.02246637,-0.0
 0041170,-0.00100732,-0.00284400,0.00509198,-0.00019319,-0.00102835,-0.
 00466597,0.00117335,0.00391967,-0.00168022,0.00006619,-0.00026861,-0.0
 0144516,-0.00022387,0.00209882,-0.00042878,0.00000758,-0.00012361,0.02
 546003,0.00000597,-0.00219973,-0.00011156,0.00010154,0.01282982,0.0006
 2654,0.00001158,0.00038012,0.00002539,-0.00108091,-0.12979094,0.000029
 25,-0.00010102,-0.00048468,-0.00201528,0.00059354,0.00309372,-0.000151
 29,0.00002215,0.00004287,0.03996454,-0.00529214,-0.03546342,0.00004421
 ,-0.00103636,-0.00016810,-0.00273739,0.00447166,-0.00013575,0.00017486
 ,0.00014528,0.00006522,-0.01169205,0.03479509,-0.01650276,0.01709363,-
 0.00027091,0.00016647,-0.00025672,-0.00016346,-0.00040666,0.00027583,0
 .00013660,-0.00006966,0.00000818,0.03827371,0.06507049,-0.03615684,-0.
 03813397,-0.07056049,0.00017012,0.00013887,0.00012082,0.00128313,0.000
 66386,0.00027612,0.00000184,-0.00002060,-0.00004705,-0.01821305,-0.040
 66194,0.01145275,0.01713981,0.03757244,-0.01063855,0.00001839,0.001040
 87,-0.00003765,-0.00268563,-0.00440287,-0.00071552,0.00016868,-0.00015
 040,0.00004408,-0.01021380,-0.03383327,-0.02132446,-0.00288327,0.00015
 804,-0.00038185,0.01559562,0.00024980,0.00016127,0.00025583,-0.0000229
 8,-0.00040070,-0.00036101,-0.00013006,-0.00006882,-0.00000641,-0.03704
 269,0.05371026,0.04093431,-0.00024169,0.00579984,0.00230738,0.03718763
 ,-0.05920184,0.00020125,-0.00013446,0.00013216,0.00125502,-0.00072449,
 0.00013463,-0.00001515,0.00001821,-0.00004313,-0.02345809,0.04541373,0
 .02135874,-0.00039842,-0.00144289,-0.00116410,0.02241540,-0.04313010,-
 0.02041829,-0.02947698,0.00055040,0.00008847,-0.00719561,0.00231799,-0
 .03418877,0.03227995,-0.00081460,0.01092839,-0.03183516,-0.00132888,0.
 00001914,-0.00021491,0.00095908,0.00002401,0.01879671,-0.00023815,0.00
 263299,-0.01306968,0.00006473,-0.00020201,-0.00178439,0.00027265,-0.00
 396643,-0.00130415,0.00033040,-0.00499977,0.00306471,0.00078947,-0.000
 09165,-0.00211437,-0.00019517,-0.00008809,0.00016382,-0.00059441,0.000
 19221,-0.01175224,-0.00209055,0.03172880,0.00292790,0.00014199,-0.0023
 3385,0.00885571,0.00195729,-0.02950269,-0.00178909,0.00001723,-0.00022
 111,0.00347610,0.00001949,-0.00033463,0.00027251,0.00000054,-0.0000046
 2,-0.23681939,-0.00003874,-0.00006279,-0.00000866,0.00017082,0.0008706
 6,0.00013961,0.00000502,-0.00009154,-0.00002049,-0.01826130,-0.4915649
 2,0.00015872,0.00000635,-0.00007828,-0.00183704,0.00010928,-0.00105021
 ,-0.00011645,-0.00002101,0.00021940,0.34095372,-0.00085734,-0.42340887
 ,0.00038794,0.00014275,0.00024108,-0.00130926,-0.00012353,-0.00020707,
 -0.00012708,-0.00009301,-0.00001952,0.11328636,0.27158151,-0.15151884,
 -0.09418863,0.00009882,0.00002993,-0.00008796,-0.00007926,-0.00041605,
 -0.00004283,0.00004674,0.00003644,0.00000279,0.18628172,0.28448715,-0.
 23017135,-0.22741050,-0.27023799,-0.00000222,-0.00010431,-0.00006250,0
 .00052590,0.00013380,0.00048969,0.00011787,0.00004724,-0.00005314,-0.1
 5623719,-0.34341694,0.17729890,0.12917020,0.28554557,-0.14669685,0.000
 38258,-0.00016842,0.00021368,-0.00130750,0.00014344,-0.00018555,-0.000
 12160,0.00009258,-0.00000722,0.12157351,-0.25345730,-0.18764011,-0.018
 04933,0.04106248,0.02642544,-0.10247766,-0.00007107,0.00001690,0.00010
 790,-0.00004087,-0.00040967,-0.00008717,-0.00006040,0.00004263,0.00000
 898,-0.16805768,0.20636143,0.23093406,-0.04409721,-0.01389948,0.057794
 64,0.21232722,-0.19211181,-0.00000535,0.00010867,-0.00003226,0.0005245
 3,-0.00023488,0.00046339,0.00010907,-0.00003298,-0.00005852,-0.1841561
 7,0.34416382,0.24701907,0.02233416,-0.05524622,-0.03097609,0.16119376,
 -0.28875840,-0.21641560,-0.58119338,0.00945370,0.01952831,-0.11365847,
 0.04026055,-0.57622165,0.61665584,-0.01338028,0.17113338,-0.59698515,-
 0.02320775,-0.01670239,-0.00265527,0.01727930,0.01480452,0.31864503,-0
 .00310137,0.01555780,-0.23082172,0.00011980,0.02304964,-0.02934697,0.0
 0412580,-0.06086322,-0.02522861,0.00597639,-0.08808021,0.05364424,0.01
 364837,-0.00232368,-0.03750080,-0.00363827,0.00115413,0.00309098,-0.01
 012158,0.00101714,-0.20346588,-0.03706637,0.55965676,0.05595947,0.0026
 5333,-0.04085365,0.14923434,0.03436808,-0.51829622,-0.00654554,-0.0002
 1390,0.00365854,0.00789667,-0.00017774,0.00226073,0.00090098,0.0001229
 5,-0.00188875,-0.01820212,0.00010304,-0.00047230,-0.00012793,-0.000277
 19,0.00094855,-0.00000546,0.00002139,0.00014074,0.00004243,-0.00082867
 ,-0.02968196,-0.00162887,-0.00012364,0.00146490,0.00460364,-0.00002221
 ,0.00103184,-0.00034953,0.00004447,-0.00051860,0.01496778,-0.00008960,
 -0.02431870,0.00023178,-0.00009846,-0.00014712,-0.00117810,0.00041806,
 -0.00099814,0.00001075,-0.00001673,0.00008207,0.00773326,0.01464001,-0
 .00782151,-0.00577925,0.00039465,0.00001855,-0.00052854,-0.00106636,-0
 .00009482,0.00016877,-0.00010591,-0.00001059,0.00025912,0.01110670,0.0
 1663662,-0.01219233,-0.01253502,-0.01584931,0.00008165,0.00000609,-0.0
 0026877,-0.00051809,-0.00035886,0.00060415,0.00002334,-0.00001024,0.00
 002279,-0.00869276,-0.01792775,0.00935684,0.00753297,0.01522729,-0.008
 11884,0.00019826,0.00011315,-0.00012312,-0.00116065,-0.00028826,-0.001
 00568,0.00001961,0.00000527,0.00007875,0.00821677,-0.01365859,-0.00977
 150,-0.00101845,0.00220594,0.00157289,-0.00625556,-0.00039200,-0.00004
 851,0.00055199,0.00108280,-0.00011000,-0.00027273,0.00010392,0.0000222
 5,-0.00025658,-0.01000934,0.01242835,0.01238332,-0.00240787,-0.0007004
 4,0.00306346,0.01162249,-0.01159166,0.00002654,0.00002474,-0.00018906,
 -0.00035668,0.00026321,0.00061023,0.00003528,0.00000750,-0.00001106,-0
 .01030554,0.01810831,0.01298373,0.00135173,-0.00293430,-0.00159618,0.0
 0924866,-0.01546946,-0.01179767,5.58326498,-0.08535026,-1.30367850,0.9
 7095243,-0.05882927,-0.46968228,-5.51772458,0.10126563,-1.21788592,5.4
 8131111,0.10555078,1.19915489,0.02257387,-0.10085878,-1.21302252,-1.28
 053901,0.02277412,0.91703591,1.21090872,-0.02457933,-0.90127356,-0.048
 00315,-0.01596535,0.24623584,-0.00120379,-0.00451883,0.06912880,0.0515
 0732,-0.02016307,0.10317250,0.03622147,-0.00054775,0.02643312,0.002060
 12,0.02049690,-0.12977371,0.30912806,0.03603471,-0.44833008,0.00941858
 ,0.00225814,-0.00747583,-0.31545298,-0.03829950,0.45588891,-0.01473782
 ,0.00000877,0.00095731,0.02692672,0.00023442,-0.00502463,-0.00175833,0
 .00018135,-0.00261689,0.00072516,-0.00010717,0.00186745,0.00005490,0.0
 0026811,-0.01437528,-0.00052695,-0.00001601,0.00013698,0.00000266,0.00
 008913,0.05099303,0.00196806,0.00004084,0.00117673,-0.00626637,-0.0004
 8580,-0.00670655,0.00025179,0.00001133,-0.00004333,-0.00336698,0.00253
 747,0.00729567,-0.00140406,0.00067367,-0.00009009,0.00535431,-0.004607
 98,0.00251258,-0.00027203,-0.00002870,-0.00024230,-0.00544625,-0.00475
 469,0.00330150,0.00060220,0.00162673,-0.00028270,0.00014562,-0.0060659
 1,0.00094328,-0.00014724,0.00008657,0.00001162,0.00004977,-0.00680223,
 -0.02146179,0.01461935,0.00990218,0.02099180,-0.00065165,0.00010476,-0
 .00008572,0.00152259,-0.00091645,-0.00086059,-0.00007540,-0.00000647,-
 0.00001683,0.00455584,0.01571415,0.00108095,-0.00505370,-0.01470834,-0
 .00095721,-0.00139537,-0.00063245,-0.00016956,0.00533622,0.00420040,0.
 00301353,-0.00027002,0.00006127,-0.00023447,-0.00570947,0.00452064,0.0
 0411201,0.00116582,0.00125266,-0.00029768,0.00087281,-0.00155700,-0.00
 023365,-0.00016659,0.00593871,0.00086651,0.00041928,-0.00008328,0.0000
 1949,-0.00004577,0.00628855,-0.01716040,-0.01672319,-0.00118447,-0.000
 20221,-0.00018766,-0.00940251,0.01671026,-0.00085789,-0.00012516,-0.00
 011459,0.00230240,0.00114957,-0.00071938,-0.00008806,0.00001305,-0.000
 02285,0.00549535,-0.01778223,-0.00280349,-0.00042798,0.00004084,0.0008
 3939,-0.00642383,0.01670393,0.00282092,0.04202494,-0.00013858,-0.01346
 730,-0.00046975,-0.00160338,0.01048416,-0.04265561,0.00076850,-0.00921
 886,0.04491154,0.00082933,0.00928512,0.00019261,-0.00080151,-0.0107873
 1,-0.01007315,0.00019583,0.00679196,0.00962103,-0.00024387,-0.00737974
 ,-0.00051955,-0.00060879,0.00937230,-0.00046327,-0.00005007,0.00076751
 ,0.00097851,-0.00068131,0.00451773,0.00141826,0.00001896,0.00033217,0.
 00001562,0.00066433,-0.00484085,0.01045253,0.00141436,-0.01707212,-0.0
 0025289,0.00001996,0.00002991,-0.01022040,-0.00143107,0.01699933,0.001
 02310,-0.00005670,0.00083365,-0.00019648,0.00005795,-0.00082138,-0.000
 21629,0.00001311,-0.00019765,-0.25443370,0.00001259,-0.00002885,-0.000
 01234,-0.00002752,-0.00068532,-0.00000830,0.00000317,0.00004933,0.0000
 0249,0.05659317,3.61539547,-0.00014761,-0.00001839,0.00024281,0.000293
 41,0.00000839,-0.00072688,-0.00005434,0.00000172,0.00000015,-1.4338844
 9,0.16185614,0.57990728,0.00007210,0.00004311,-0.00026024,-0.00082096,
 -0.00022036,0.00024274,0.00011197,0.00001752,0.00011214,0.14864357,-1.
 18466908,0.63520160,-0.18140140,-0.00067967,-0.00015229,0.00003229,0.0
 0145358,0.00095195,-0.00010129,0.00000866,-0.00002350,-0.00011605,-1.1
 3284787,-2.01511508,1.37889557,1.15780885,2.05617322,0.00008074,0.0000
 2245,-0.00022053,-0.00014182,-0.00027582,0.00061792,0.00006881,0.00001
 128,0.00001576,0.63781741,1.44946033,-0.10904458,-0.63864076,-1.409457
 20,0.07693902,0.00005503,-0.00000755,-0.00025711,-0.00077523,0.0001846
 6,0.00026325,0.00010863,-0.00003262,0.00010628,0.10517981,1.12808766,0
 .79859143,0.03339472,-0.02574356,0.00081563,-0.13796297,0.00065763,-0.
 00015443,-0.00002743,-0.00141202,0.00090338,0.00014200,-0.00001730,-0.
 00003488,0.00011031,1.07624033,-1.59961555,-1.54074343,0.02701996,-0.0
 4183430,-0.03976105,-1.10248860,1.64073578,0.00015724,-0.00001087,-0.0
 0022631,-0.00030087,0.00029873,0.00066682,0.00006612,-0.00001581,0.000
 02697,0.79625246,-1.61129833,-0.47037877,0.00334452,0.03074668,0.03169
 240,-0.79951947,1.58027960,0.43821889,0.55009040,0.16689559,-1.4557431
 9,-2.59275101,-0.41743391,4.89036507,-0.61753862,0.01321752,-0.1642118
 5,0.63022069,0.01414181,0.14504445,0.00437176,-0.01423923,-0.14732011,
 -0.17801970,0.00440913,0.08718687,0.17847523,-0.00272037,-0.11477551,0
 .06890969,-0.18003592,2.75567083,-0.01872186,0.00013696,-0.00086895,-0
 .04860729,-0.18099213,1.31034230,0.41306353,0.00098482,0.00444870,-0.0
 0162258,0.17987043,-1.31481455,2.77002848,0.41302683,-4.97790889,-0.01
 369039,-0.00158696,0.02873165,-2.75432630,-0.41147255,4.94960267,-0.00
 082950,-0.00008938,0.00138595,0.00460392,0.00000854,-0.00026089,-0.001
 70556,0.00014825,-0.00212266,0.00021835,-0.00004670,0.00068458,0.00001
 129,0.00004356,-0.00248828,-0.00010923,0.00003151,-0.00021368,0.000024
 68,-0.00005659,0.00513197,0.00091114,0.00000387,0.00059636,-0.00091161
 ,-0.00010552,-0.00088824,-0.00055524,0.00003133,-0.00064718,-0.0000284
 9,0.00032676,0.00087286,-0.00032031,0.00014996,-0.00004392,0.00071607,
 -0.00066328,0.00029927,0.00006703,-0.00010016,0.00005663,-0.00113489,0
 .00000641,0.00026252,0.00052998,0.00033388,-0.00016780,0.00004299,-0.0
 0075941,0.00016853,-0.00012312,-0.00007041,0.00010980,0.00011041,-0.00
 055842,-0.00169885,0.00119972,0.00082507,0.00165548,-0.00006300,-0.000
 03415,-0.00012203,0.00012088,-0.00006504,-0.00014039,0.00003596,0.0000
 3344,0.00012356,0.00045670,0.00132345,0.00020529,-0.00048781,-0.001231
 16,-0.00020276,-0.00031166,-0.00013776,-0.00005000,0.00071980,0.000615
 20,0.00037504,0.00005798,0.00008879,0.00005425,-0.00115231,0.00002181,
 0.00032169,0.00014213,0.00022929,-0.00006273,0.00054407,-0.00033244,-0
 .00016033,-0.00005566,0.00075275,0.00014671,0.00016617,0.00006743,0.00
 012744,-0.00010241,0.00054760,-0.00141573,-0.00145615,-0.00021801,-0.0
 0006717,-0.00002654,-0.00081733,0.00136907,-0.00010591,0.00002823,-0.0
 0011742,0.00021774,0.00010613,-0.00011439,0.00004371,-0.00003317,0.000
 09820,0.00056939,-0.00157695,-0.00013909,-0.00008668,0.00000116,0.0001
 3633,-0.00063824,0.00147460,0.00013636,0.00019791,-0.00001346,0.000274
 80,0.00016051,0.00001962,-0.00003821,-0.00003636,0.00001030,-0.0001592
 6,-0.00061488,0.00000481,-0.00019929,-0.00000027,0.00001451,0.00011277
 ,0.00003010,0.00000004,-0.00019720,-0.00036378,-0.00001994,0.00052658,
 -0.00008045,-0.00000504,0.00008265,0.00011702,-0.00000206,0.00000269,-
 0.00007339,0.00000566,-0.00017530,-0.00001385,-0.00001313,0.00010852,0
 .00000881,0.00000217,0.00011198,-0.00009394,-0.00001475,0.00006682,0.0
 0018601,0.00000983,-0.00006988,-0.00001657,0.00000571,0.00002242,0.000
 48625,-0.00003918,0.00053142,0.00052902,0.00002778,-0.00027484,-0.0000
 7074,0.00001551,-0.00023617,-0.27386923,0.00004552,0.00057238,-0.00001
 168,-0.00012059,-0.00163933,-0.00002866,0.00001642,-0.00010555,0.00000
 816,0.05540928,3.56199998,-0.00064036,-0.00001964,0.00088909,0.0019867
 0,-0.00001336,-0.00150623,-0.00029099,0.00000783,-0.00021148,-1.631958
 39,0.16927256,0.67052195,-0.00027897,-0.00003774,-0.00031532,-0.000006
 58,-0.00005258,0.00030075,0.00005630,0.00008446,0.00008677,0.15911783,
 -1.24792882,0.72410119,-0.15833636,-0.00011359,-0.00026625,0.00009063,
 0.00047322,0.00085881,-0.00001631,-0.00004604,0.00003741,-0.00007702,-
 1.25112661,-1.99408680,1.53041080,1.24915507,1.98959008,0.00027284,0.0
 0043531,-0.00033016,-0.00080290,-0.00087197,0.00056706,0.00010932,-0.0
 0002701,0.00009154,0.72444841,1.52758070,-0.13813770,-0.71889668,-1.52
 886211,0.13525866,-0.00028838,0.00008511,-0.00030001,0.00001178,0.0000
 0755,0.00030507,0.00005127,-0.00009467,0.00007390,0.11380689,1.1925782
 0,0.90680185,-0.00055222,0.00165795,-0.00513098,-0.11302934,0.00007107
 ,-0.00020635,-0.00008445,-0.00036432,0.00075852,0.00005606,0.00003456,
 0.00002294,0.00006806,1.19571323,-1.56674068,-1.69965818,-0.00122039,0
 .00386675,0.00174509,-1.19423415,1.56229881,0.00027085,-0.00042058,-0.
 00039038,-0.00084676,0.00089571,0.00067968,0.00011290,0.00001852,0.000
 10058,0.90748957,-1.69682107,-0.53155563,-0.00527671,-0.00154600,0.002
 55060,-0.90174984,1.69787343,0.52861515\\@


 I LOVE THOSE WHO LONG FOR THE IMPOSSIBLE.

                                 -- GOETHE
 Job cpu time:       1 days  8 hours 22 minutes  5.8 seconds.
 Elapsed time:       0 days  1 hours 10 minutes 53.5 seconds.
 File lengths (MBytes):  RWF=   3376 Int=      0 D2E=      0 Chk=     48 Scr=      8
 Normal termination of Gaussian 16 at Tue Nov 30 12:42:43 2021.
