 Entering Gaussian System, Link 0=g16
 Input=h2o_nme3_mp2_avtz_opt_anharm.gjf
 Output=h2o_nme3_mp2_avtz_opt_anharm.log
 Initial command:
 /sw/contrib/gaussian/g16/A03/g16/l1.exe "/gscratch/scrubbed/gds001/Gau-3795.inp" -scrdir="/gscratch/scrubbed/gds001/"
 Entering Link 1 = /sw/contrib/gaussian/g16/A03/g16/l1.exe PID=      3797.
  
 Copyright (c) 1988,1990,1992,1993,1995,1998,2003,2009,2016,
            Gaussian, Inc.  All Rights Reserved.
  
 This is part of the Gaussian(R) 16 program.  It is based on
 the Gaussian(R) 09 system (copyright 2009, Gaussian, Inc.),
 the Gaussian(R) 03 system (copyright 2003, Gaussian, Inc.),
 the Gaussian(R) 98 system (copyright 1998, Gaussian, Inc.),
 the Gaussian(R) 94 system (copyright 1995, Gaussian, Inc.),
 the Gaussian 92(TM) system (copyright 1992, Gaussian, Inc.),
 the Gaussian 90(TM) system (copyright 1990, Gaussian, Inc.),
 the Gaussian 88(TM) system (copyright 1988, Gaussian, Inc.),
 the Gaussian 86(TM) system (copyright 1986, Carnegie Mellon
 University), and the Gaussian 82(TM) system (copyright 1983,
 Carnegie Mellon University). Gaussian is a federally registered
 trademark of Gaussian, Inc.
  
 This software contains proprietary and confidential information,
 including trade secrets, belonging to Gaussian, Inc.
  
 This software is provided under written license and may be
 used, copied, transmitted, or stored only in accord with that
 written license.
  
 The following legend is applicable only to US Government
 contracts under FAR:
  
                    RESTRICTED RIGHTS LEGEND
  
 Use, reproduction and disclosure by the US Government is
 subject to restrictions as set forth in subparagraphs (a)
 and (c) of the Commercial Computer Software - Restricted
 Rights clause in FAR 52.227-19.
  
 Gaussian, Inc.
 340 Quinnipiac St., Bldg. 40, Wallingford CT 06492
  
  
 ---------------------------------------------------------------
 Warning -- This program may not be used in any manner that
 competes with the business of Gaussian, Inc. or will provide
 assistance to any competitor of Gaussian, Inc.  The licensee
 of this program is prohibited from giving any competitor of
 Gaussian, Inc. access to this program.  By using this program,
 the user acknowledges that Gaussian, Inc. is engaged in the
 business of creating and licensing software in the field of
 computational chemistry and represents and warrants to the
 licensee that it is not a competitor of Gaussian, Inc. and that
 it will not use this program in any manner prohibited above.
 ---------------------------------------------------------------
  

 Cite this work as:
 Gaussian 16, Revision A.03,
 M. J. Frisch, G. W. Trucks, H. B. Schlegel, G. E. Scuseria, 
 M. A. Robb, J. R. Cheeseman, G. Scalmani, V. Barone, 
 G. A. Petersson, H. Nakatsuji, X. Li, M. Caricato, A. V. Marenich, 
 J. Bloino, B. G. Janesko, R. Gomperts, B. Mennucci, H. P. Hratchian, 
 J. V. Ortiz, A. F. Izmaylov, J. L. Sonnenberg, D. Williams-Young, 
 F. Ding, F. Lipparini, F. Egidi, J. Goings, B. Peng, A. Petrone, 
 T. Henderson, D. Ranasinghe, V. G. Zakrzewski, J. Gao, N. Rega, 
 G. Zheng, W. Liang, M. Hada, M. Ehara, K. Toyota, R. Fukuda, 
 J. Hasegawa, M. Ishida, T. Nakajima, Y. Honda, O. Kitao, H. Nakai, 
 T. Vreven, K. Throssell, J. A. Montgomery, Jr., J. E. Peralta, 
 F. Ogliaro, M. J. Bearpark, J. J. Heyd, E. N. Brothers, K. N. Kudin, 
 V. N. Staroverov, T. A. Keith, R. Kobayashi, J. Normand, 
 K. Raghavachari, A. P. Rendell, J. C. Burant, S. S. Iyengar, 
 J. Tomasi, M. Cossi, J. M. Millam, M. Klene, C. Adamo, R. Cammi, 
 J. W. Ochterski, R. L. Martin, K. Morokuma, O. Farkas, 
 J. B. Foresman, and D. J. Fox, Gaussian, Inc., Wallingford CT, 2016.
 
 ******************************************
 Gaussian 16:  ES64L-G16RevA.03 25-Dec-2016
                20-Dec-2021 
 ******************************************
 %nprocshared=28
 Will use up to   28 processors via shared memory.
 %mem=41GB
 ----------------------------------------------
 # MP2/aug-cc-pVTZ opt freq=(vibrot,anharmonic)
 ----------------------------------------------
 1/18=20,19=15,38=1,80=1/1,3;
 2/9=110,12=2,17=6,18=5,40=1/2;
 3/5=16,6=1,7=10,11=9,25=1,30=1,71=1/1,2,3;
 4//1;
 5/5=2,38=5/2;
 8/6=4,10=1/1;
 9/15=2,16=-3/6;
 10/5=1/2;
 6/7=2,8=2,9=2,10=2/1;
 7/12=2/1,2,3,16;
 1/18=20,19=15,80=1/3(2);
 2/9=110/2;
 99//99;
 2/9=110/2;
 3/5=16,6=1,7=10,11=9,25=1,30=1,71=1/1,2,3;
 4/5=5,16=3,69=1/1;
 5/5=2,38=5/2;
 8/6=4,10=1/1;
 9/15=2,16=-3/6;
 10/5=1/2;
 7/12=2/1,2,3,16;
 1/18=20,19=15,80=1/3(-8);
 2/9=110/2;
 6/7=2,8=2,9=2,10=2/1;
 99//99;
 ----
 bleh
 ----
 Symbolic Z-matrix:
 Charge =  0 Multiplicity = 1
 O                     2.491    -0.00924  -0.15853 
 H                     2.86047   0.2246   -1.01858 
 H                     1.51311   0.01806  -0.28784 
 N                    -0.33079   0.00468  -0.05406 
 C                    -0.72687   1.35709   0.35012 
 C                    -0.42468  -0.90865   1.09055 
 C                    -1.18148  -0.46823  -1.14891 
 H                    -1.77563   1.38941   0.71699 
 H                    -0.63402   2.03983  -0.50817 
 H                    -0.05994   1.70886   1.15131 
 H                    -1.46077  -0.96728   1.48794 
 H                     0.24524  -0.56055   1.89088 
 H                    -0.10457  -1.91532   0.78286 
 H                    -2.25154  -0.51799  -0.85131 
 H                    -1.0896    0.21319  -2.00848 
 H                    -0.85701  -1.47292  -1.45955 
 
 Add virtual bond connecting atoms N4         and H3         Dist= 3.51D+00.

 GradGradGradGradGradGradGradGradGradGradGradGradGradGradGradGradGradGrad
 Berny optimization.
 Initialization pass.
                           ----------------------------
                           !    Initial Parameters    !
                           ! (Angstroms and Degrees)  !
 --------------------------                            --------------------------
 ! Name  Definition              Value          Derivative Info.                !
 --------------------------------------------------------------------------------
 ! R1    R(1,2)                  0.9648         estimate D2E/DX2                !
 ! R2    R(1,3)                  0.9868         estimate D2E/DX2                !
 ! R3    R(3,4)                  1.8587         estimate D2E/DX2                !
 ! R4    R(4,5)                  1.466          estimate D2E/DX2                !
 ! R5    R(4,6)                  1.4673         estimate D2E/DX2                !
 ! R6    R(4,7)                  1.4649         estimate D2E/DX2                !
 ! R7    R(5,8)                  1.1115         estimate D2E/DX2                !
 ! R8    R(5,9)                  1.1006         estimate D2E/DX2                !
 ! R9    R(5,10)                 1.1002         estimate D2E/DX2                !
 ! R10   R(6,11)                 1.1112         estimate D2E/DX2                !
 ! R11   R(6,12)                 1.1002         estimate D2E/DX2                !
 ! R12   R(6,13)                 1.1002         estimate D2E/DX2                !
 ! R13   R(7,14)                 1.1118         estimate D2E/DX2                !
 ! R14   R(7,15)                 1.1007         estimate D2E/DX2                !
 ! R15   R(7,16)                 1.1005         estimate D2E/DX2                !
 ! A1    A(2,1,3)              104.8316         estimate D2E/DX2                !
 ! A2    A(3,4,5)              107.221          estimate D2E/DX2                !
 ! A3    A(3,4,6)               99.5594         estimate D2E/DX2                !
 ! A4    A(3,4,7)              118.9732         estimate D2E/DX2                !
 ! A5    A(5,4,6)              109.9898         estimate D2E/DX2                !
 ! A6    A(5,4,7)              110.301          estimate D2E/DX2                !
 ! A7    A(6,4,7)              110.1756         estimate D2E/DX2                !
 ! A8    A(4,5,8)              111.884          estimate D2E/DX2                !
 ! A9    A(4,5,9)              109.5392         estimate D2E/DX2                !
 ! A10   A(4,5,10)             109.3862         estimate D2E/DX2                !
 ! A11   A(8,5,9)              108.5988         estimate D2E/DX2                !
 ! A12   A(8,5,10)             108.8023         estimate D2E/DX2                !
 ! A13   A(9,5,10)             108.5665         estimate D2E/DX2                !
 ! A14   A(4,6,11)             111.8054         estimate D2E/DX2                !
 ! A15   A(4,6,12)             109.3619         estimate D2E/DX2                !
 ! A16   A(4,6,13)             109.4353         estimate D2E/DX2                !
 ! A17   A(11,6,12)            108.9216         estimate D2E/DX2                !
 ! A18   A(11,6,13)            108.845          estimate D2E/DX2                !
 ! A19   A(12,6,13)            108.4061         estimate D2E/DX2                !
 ! A20   A(4,7,14)             111.9198         estimate D2E/DX2                !
 ! A21   A(4,7,15)             109.592          estimate D2E/DX2                !
 ! A22   A(4,7,16)             109.539          estimate D2E/DX2                !
 ! A23   A(14,7,15)            108.4863         estimate D2E/DX2                !
 ! A24   A(14,7,16)            108.5693         estimate D2E/DX2                !
 ! A25   A(15,7,16)            108.6693         estimate D2E/DX2                !
 ! A26   L(1,3,4,12,-1)        165.2353         estimate D2E/DX2                !
 ! A27   L(1,3,4,12,-2)        177.7705         estimate D2E/DX2                !
 ! D1    D(2,1,4,5)            -90.5012         estimate D2E/DX2                !
 ! D2    D(2,1,4,6)            156.8662         estimate D2E/DX2                !
 ! D3    D(2,1,4,7)             38.5401         estimate D2E/DX2                !
 ! D4    D(3,4,5,8)           -167.9935         estimate D2E/DX2                !
 ! D5    D(3,4,5,9)             71.5251         estimate D2E/DX2                !
 ! D6    D(3,4,5,10)           -47.3596         estimate D2E/DX2                !
 ! D7    D(6,4,5,8)            -60.6703         estimate D2E/DX2                !
 ! D8    D(6,4,5,9)            178.8484         estimate D2E/DX2                !
 ! D9    D(6,4,5,10)            59.9636         estimate D2E/DX2                !
 ! D10   D(7,4,5,8)             61.0577         estimate D2E/DX2                !
 ! D11   D(7,4,5,9)            -59.4237         estimate D2E/DX2                !
 ! D12   D(7,4,5,10)          -178.3084         estimate D2E/DX2                !
 ! D13   D(3,4,6,11)           172.9424         estimate D2E/DX2                !
 ! D14   D(3,4,6,12)            52.2257         estimate D2E/DX2                !
 ! D15   D(3,4,6,13)           -66.3876         estimate D2E/DX2                !
 ! D16   D(5,4,6,11)            60.5631         estimate D2E/DX2                !
 ! D17   D(5,4,6,12)           -60.1536         estimate D2E/DX2                !
 ! D18   D(5,4,6,13)          -178.7669         estimate D2E/DX2                !
 ! D19   D(7,4,6,11)           -61.2395         estimate D2E/DX2                !
 ! D20   D(7,4,6,12)           178.0438         estimate D2E/DX2                !
 ! D21   D(7,4,6,13)            59.4305         estimate D2E/DX2                !
 ! D22   D(3,4,7,14)           174.5698         estimate D2E/DX2                !
 ! D23   D(3,4,7,15)           -65.0314         estimate D2E/DX2                !
 ! D24   D(3,4,7,16)            54.1024         estimate D2E/DX2                !
 ! D25   D(5,4,7,14)           -60.9824         estimate D2E/DX2                !
 ! D26   D(5,4,7,15)            59.4164         estimate D2E/DX2                !
 ! D27   D(5,4,7,16)           178.5502         estimate D2E/DX2                !
 ! D28   D(6,4,7,14)            60.6354         estimate D2E/DX2                !
 ! D29   D(6,4,7,15)          -178.9658         estimate D2E/DX2                !
 ! D30   D(6,4,7,16)           -59.8319         estimate D2E/DX2                !
 --------------------------------------------------------------------------------
 Trust Radius=3.00D-01 FncErr=1.00D-07 GrdErr=1.00D-07 EigMax=2.50D+02 EigMin=1.00D-04
 Number of steps in this run=     82 maximum allowed number of steps=    100.
 GradGradGradGradGradGradGradGradGradGradGradGradGradGradGradGradGradGrad

                          Input orientation:                          
 ---------------------------------------------------------------------
 Center     Atomic      Atomic             Coordinates (Angstroms)
 Number     Number       Type             X           Y           Z
 ---------------------------------------------------------------------
      1          8           0        2.490999   -0.009239   -0.158529
      2          1           0        2.860471    0.224595   -1.018583
      3          1           0        1.513109    0.018056   -0.287837
      4          7           0       -0.330788    0.004679   -0.054055
      5          6           0       -0.726874    1.357092    0.350122
      6          6           0       -0.424680   -0.908651    1.090546
      7          6           0       -1.181481   -0.468225   -1.148907
      8          1           0       -1.775631    1.389410    0.716991
      9          1           0       -0.634023    2.039830   -0.508168
     10          1           0       -0.059940    1.708855    1.151312
     11          1           0       -1.460771   -0.967279    1.487938
     12          1           0        0.245237   -0.560554    1.890875
     13          1           0       -0.104568   -1.915317    0.782863
     14          1           0       -2.251537   -0.517992   -0.851311
     15          1           0       -1.089600    0.213185   -2.008485
     16          1           0       -0.857011   -1.472922   -1.459545
 ---------------------------------------------------------------------
                    Distance matrix (angstroms):
                    1          2          3          4          5
     1  O    0.000000
     2  H    0.964822   0.000000
     3  H    0.986780   1.546620   0.000000
     4  N    2.823755   3.341079   1.858706   0.000000
     5  C    3.532746   4.003117   2.686547   1.466037   0.000000
     6  C    3.297016   4.065082   2.552205   1.467344   2.402736
     7  C    3.831270   4.102970   2.870318   1.464929   2.405314
     8  H    4.574591   5.085514   3.702175   2.144659   1.111543
     9  H    3.753224   3.970780   2.957413   2.107133   1.100643
    10  H    3.342876   3.929411   2.721109   2.104872   1.100202
    11  H    4.386933   5.135790   3.601142   2.144599   2.689969
    12  H    3.089895   3.990094   2.586325   2.105717   2.645049
    13  H    3.355044   4.076259   2.738833   2.106654   3.359046
    14  H    4.819795   5.168369   3.844140   2.144313   2.698885
    15  H    4.036397   4.072235   3.126148   2.106909   2.646341
    16  H    3.878683   4.110436   3.035356   2.106091   3.361668
                    6          7          8          9         10
     6  C    0.000000
     7  C    2.404552   0.000000
     8  H    2.691783   2.699148   0.000000
     9  H    3.360543   2.645864   1.796477   0.000000
    10  H    2.643495   3.359842   1.798409   1.786894   0.000000
    11  H    1.111235   2.698149   2.499496   3.702790   3.039299
    12  H    1.100221   3.359215   3.043726   3.645614   2.406305
    13  H    1.100235   2.643020   3.703783   4.194076   3.643126
    14  H    2.694593   1.111782   2.514804   3.045743   3.711124
    15  H    3.362236   1.100743   3.046697   2.407308   3.644385
    16  H    2.647315   1.100542   3.711350   3.646131   4.192326
                   11         12         13         14         15
    11  H    0.000000
    12  H    1.799513   0.000000
    13  H    1.798664   1.784779   0.000000
    14  H    2.509832   3.708811   3.038506   0.000000
    15  H    3.708940   4.193503   3.645879   1.795486   0.000000
    16  H    3.050878   3.643169   2.406300   1.796258   1.788404
                   16
    16  H    0.000000
 Stoichiometry    C3H11NO
 Framework group  C1[X(C3H11NO)]
 Deg. of freedom    42
 Full point group                 C1      NOp   1
 Largest Abelian subgroup         C1      NOp   1
 Largest concise Abelian subgroup C1      NOp   1
                         Standard orientation:                         
 ---------------------------------------------------------------------
 Center     Atomic      Atomic             Coordinates (Angstroms)
 Number     Number       Type             X           Y           Z
 ---------------------------------------------------------------------
      1          8           0       -2.490999   -0.009239    0.158529
      2          1           0       -2.860471    0.224595    1.018583
      3          1           0       -1.513109    0.018056    0.287837
      4          7           0        0.330788    0.004679    0.054055
      5          6           0        0.726874    1.357092   -0.350122
      6          6           0        0.424680   -0.908651   -1.090546
      7          6           0        1.181481   -0.468225    1.148907
      8          1           0        1.775631    1.389410   -0.716991
      9          1           0        0.634023    2.039830    0.508168
     10          1           0        0.059940    1.708855   -1.151312
     11          1           0        1.460771   -0.967279   -1.487938
     12          1           0       -0.245237   -0.560554   -1.890875
     13          1           0        0.104568   -1.915317   -0.782863
     14          1           0        2.251537   -0.517992    0.851311
     15          1           0        1.089600    0.213185    2.008485
     16          1           0        0.857011   -1.472922    1.459545
 ---------------------------------------------------------------------
 Rotational constants (GHZ):           5.0594444           2.5532283           2.5202536
 Standard basis: Aug-CC-pVTZ (5D, 7F)
 There are   550 symmetry adapted cartesian basis functions of A   symmetry.
 There are   483 symmetry adapted basis functions of A   symmetry.
   483 basis functions,   657 primitive gaussians,   550 cartesian basis functions
    22 alpha electrons       22 beta electrons
       nuclear repulsion energy       200.4970589206 Hartrees.
 NAtoms=   16 NActive=   16 NUniq=   16 SFac= 1.00D+00 NAtFMM=   60 NAOKFM=F Big=F
 Integral buffers will be    131072 words long.
 Raffenetti 1 integral format.
 Two-electron integral symmetry is turned on.
 One-electron integrals computed using PRISM.
 NBasis=   483 RedAO= T EigKep=  3.91D-06  NBF=   483
 NBsUse=   483 1.00D-06 EigRej= -1.00D+00 NBFU=   483
 ExpMin= 2.53D-02 ExpMax= 1.53D+04 ExpMxC= 5.22D+02 IAcc=3 IRadAn=         5 AccDes= 0.00D+00
 Harris functional with IExCor=  205 and IRadAn=       5 diagonalized for initial guess.
 HarFok:  IExCor=  205 AccDes= 0.00D+00 IRadAn=         5 IDoV= 1 UseB2=F ITyADJ=14
 ICtDFT=  3500011 ScaDFX=  1.000000  1.000000  1.000000  1.000000
 FoFCou: FMM=F IPFlag=           0 FMFlag=      100000 FMFlg1=           0
         NFxFlg=           0 DoJE=T BraDBF=F KetDBF=T FulRan=T
         wScrn=  0.000000 ICntrl=       500 IOpCl=  0 I1Cent=   200000004 NGrid=           0
         NMat0=    1 NMatS0=      1 NMatT0=    0 NMatD0=    1 NMtDS0=    0 NMtDT0=    0
 Petite list used in FoFCou.
 Requested convergence on RMS density matrix=1.00D-08 within 128 cycles.
 Requested convergence on MAX density matrix=1.00D-06.
 Requested convergence on             energy=1.00D-06.
 No special actions if energy rises.
 Initial convergence to 1.0D-05 achieved.  Increase integral accuracy.
 SCF Done:  E(RHF) =  -249.398378873     A.U. after   12 cycles
            NFock= 12  Conv=0.32D-08     -V/T= 2.0021
 ExpMin= 2.53D-02 ExpMax= 1.53D+04 ExpMxC= 5.22D+02 IAcc=3 IRadAn=         5 AccDes= 0.00D+00
 HarFok:  IExCor=  205 AccDes= 0.00D+00 IRadAn=         5 IDoV=-2 UseB2=F ITyADJ=14
 ICtDFT= 12500011 ScaDFX=  1.000000  1.000000  1.000000  1.000000
 Range of M.O.s used for correlation:     6   483
 NBasis=   483 NAE=    22 NBE=    22 NFC=     5 NFV=     0
 NROrb=    478 NOA=    17 NOB=    17 NVA=   461 NVB=   461

 **** Warning!!: The largest alpha MO coefficient is  0.12497775D+03

 Disk-based method using ON**2 memory for 17 occupieds at a time.
 Estimated scratch disk usage=  5168360260 words.
 Actual    scratch disk usage=  4866894660 words.
 JobTyp=1 Pass  1:  I=   6 to  22 NPSUse= 28 ParTrn=T ParDer=T DoDerP=T.
 (rs|ai) integrals will be sorted in core.
 Spin components of T(2) and E(2):
     alpha-alpha T2 =       0.3615849506D-01 E2=     -0.1190724590D+00
     alpha-beta  T2 =       0.2249018840D+00 E2=     -0.8061101874D+00
     beta-beta   T2 =       0.3615849506D-01 E2=     -0.1190724590D+00
 ANorm=    0.1138955168D+01
 E2 =    -0.1044255105D+01 EUMP2 =    -0.25044263397864D+03
          IDoAtm=1111111111111111
          Differentiating once with respect to electric field.
                with respect to dipole field.
          Differentiating once with respect to nuclear coordinates.
          There are     1 degrees of freedom in the 1st order CPHF.  IDoFFX=0 NUNeed=     1.
 LinEq1:  Iter=  0 NonCon=     1 RMS=2.02D-03 Max=3.19D-02 NDo=     1
 AX will form     1 AO Fock derivatives at one time.
 LinEq1:  Iter=  1 NonCon=     1 RMS=4.48D-04 Max=6.74D-03 NDo=     1
 LinEq1:  Iter=  2 NonCon=     1 RMS=1.40D-04 Max=1.98D-03 NDo=     1
 LinEq1:  Iter=  3 NonCon=     1 RMS=2.98D-05 Max=4.22D-04 NDo=     1
 LinEq1:  Iter=  4 NonCon=     1 RMS=1.10D-05 Max=1.23D-04 NDo=     1
 LinEq1:  Iter=  5 NonCon=     1 RMS=3.09D-06 Max=6.55D-05 NDo=     1
 LinEq1:  Iter=  6 NonCon=     1 RMS=7.75D-07 Max=1.23D-05 NDo=     1
 LinEq1:  Iter=  7 NonCon=     1 RMS=2.05D-07 Max=3.51D-06 NDo=     1
 LinEq1:  Iter=  8 NonCon=     1 RMS=7.89D-08 Max=1.28D-06 NDo=     1
 LinEq1:  Iter=  9 NonCon=     1 RMS=2.26D-08 Max=3.03D-07 NDo=     1
 LinEq1:  Iter= 10 NonCon=     1 RMS=4.00D-09 Max=5.28D-08 NDo=     1
 LinEq1:  Iter= 11 NonCon=     1 RMS=7.18D-10 Max=8.65D-09 NDo=     1
 LinEq1:  Iter= 12 NonCon=     1 RMS=2.01D-10 Max=2.98D-09 NDo=     1
 LinEq1:  Iter= 13 NonCon=     0 RMS=5.66D-11 Max=9.52D-10 NDo=     1
 Linear equations converged to 1.000D-10 1.000D-09 after    13 iterations.
 End of Minotr F.D. properties file   721 does not exist.
 End of Minotr F.D. properties file   722 does not exist.
 End of Minotr F.D. properties file   788 does not exist.

 **********************************************************************

            Population analysis using the SCF density.

 **********************************************************************

 Orbital symmetries:
       Occupied  (A) (A) (A) (A) (A) (A) (A) (A) (A) (A) (A) (A)
                 (A) (A) (A) (A) (A) (A) (A) (A) (A) (A)
       Virtual   (A) (A) (A) (A) (A) (A) (A) (A) (A) (A) (A) (A)
                 (A) (A) (A) (A) (A) (A) (A) (A) (A) (A) (A) (A)
                 (A) (A) (A) (A) (A) (A) (A) (A) (A) (A) (A) (A)
                 (A) (A) (A) (A) (A) (A) (A) (A) (A) (A) (A) (A)
                 (A) (A) (A) (A) (A) (A) (A) (A) (A) (A) (A) (A)
                 (A) (A) (A) (A) (A) (A) (A) (A) (A) (A) (A) (A)
                 (A) (A) (A) (A) (A) (A) (A) (A) (A) (A) (A) (A)
                 (A) (A) (A) (A) (A) (A) (A) (A) (A) (A) (A) (A)
                 (A) (A) (A) (A) (A) (A) (A) (A) (A) (A) (A) (A)
                 (A) (A) (A) (A) (A) (A) (A) (A) (A) (A) (A) (A)
                 (A) (A) (A) (A) (A) (A) (A) (A) (A) (A) (A) (A)
                 (A) (A) (A) (A) (A) (A) (A) (A) (A) (A) (A) (A)
                 (A) (A) (A) (A) (A) (A) (A) (A) (A) (A) (A) (A)
                 (A) (A) (A) (A) (A) (A) (A) (A) (A) (A) (A) (A)
                 (A) (A) (A) (A) (A) (A) (A) (A) (A) (A) (A) (A)
                 (A) (A) (A) (A) (A) (A) (A) (A) (A) (A) (A) (A)
                 (A) (A) (A) (A) (A) (A) (A) (A) (A) (A) (A) (A)
                 (A) (A) (A) (A) (A) (A) (A) (A) (A) (A) (A) (A)
                 (A) (A) (A) (A) (A) (A) (A) (A) (A) (A) (A) (A)
                 (A) (A) (A) (A) (A) (A) (A) (A) (A) (A) (A) (A)
                 (A) (A) (A) (A) (A) (A) (A) (A) (A) (A) (A) (A)
                 (A) (A) (A) (A) (A) (A) (A) (A) (A) (A) (A) (A)
                 (A) (A) (A) (A) (A) (A) (A) (A) (A) (A) (A) (A)
                 (A) (A) (A) (A) (A) (A) (A) (A) (A) (A) (A) (A)
                 (A) (A) (A) (A) (A) (A) (A) (A) (A) (A) (A) (A)
                 (A) (A) (A) (A) (A) (A) (A) (A) (A) (A) (A) (A)
                 (A) (A) (A) (A) (A) (A) (A) (A) (A) (A) (A) (A)
                 (A) (A) (A) (A) (A) (A) (A) (A) (A) (A) (A) (A)
                 (A) (A) (A) (A) (A) (A) (A) (A) (A) (A) (A) (A)
                 (A) (A) (A) (A) (A) (A) (A) (A) (A) (A) (A) (A)
                 (A) (A) (A) (A) (A) (A) (A) (A) (A) (A) (A) (A)
                 (A) (A) (A) (A) (A) (A) (A) (A) (A) (A) (A) (A)
                 (A) (A) (A) (A) (A) (A) (A) (A) (A) (A) (A) (A)
                 (A) (A) (A) (A) (A) (A) (A) (A) (A) (A) (A) (A)
                 (A) (A) (A) (A) (A) (A) (A) (A) (A) (A) (A) (A)
                 (A) (A) (A) (A) (A) (A) (A) (A) (A) (A) (A) (A)
                 (A) (A) (A) (A) (A) (A) (A) (A) (A) (A) (A) (A)
                 (A) (A) (A) (A) (A) (A) (A) (A) (A) (A) (A) (A)
                 (A) (A) (A) (A) (A)
 The electronic state is 1-A.
 Alpha  occ. eigenvalues --  -20.52348 -15.56934 -11.25767 -11.25538 -11.25282
 Alpha  occ. eigenvalues --   -1.30513  -1.23673  -0.95833  -0.95587  -0.81816
 Alpha  occ. eigenvalues --   -0.68894  -0.64162  -0.63711  -0.63522  -0.55484
 Alpha  occ. eigenvalues --   -0.55349  -0.54462  -0.52583  -0.50951  -0.50936
 Alpha  occ. eigenvalues --   -0.46818  -0.38043
 Alpha virt. eigenvalues --    0.02602   0.03706   0.03909   0.04250   0.05724
 Alpha virt. eigenvalues --    0.05825   0.05894   0.06279   0.06412   0.08046
 Alpha virt. eigenvalues --    0.09760   0.11769   0.11962   0.12479   0.12888
 Alpha virt. eigenvalues --    0.13058   0.13165   0.13921   0.15106   0.16205
 Alpha virt. eigenvalues --    0.17390   0.17536   0.17886   0.18263   0.18650
 Alpha virt. eigenvalues --    0.18755   0.20064   0.20913   0.22693   0.23260
 Alpha virt. eigenvalues --    0.24440   0.25569   0.25813   0.27500   0.28120
 Alpha virt. eigenvalues --    0.28641   0.29550   0.30228   0.31415   0.32665
 Alpha virt. eigenvalues --    0.33275   0.34114   0.34942   0.35627   0.36094
 Alpha virt. eigenvalues --    0.36491   0.36719   0.37432   0.37990   0.38122
 Alpha virt. eigenvalues --    0.38592   0.39028   0.39557   0.39744   0.39981
 Alpha virt. eigenvalues --    0.40643   0.40991   0.41070   0.43116   0.43890
 Alpha virt. eigenvalues --    0.44008   0.44879   0.45376   0.45590   0.46050
 Alpha virt. eigenvalues --    0.46489   0.47250   0.47492   0.48501   0.49154
 Alpha virt. eigenvalues --    0.50174   0.50582   0.50915   0.51650   0.52033
 Alpha virt. eigenvalues --    0.52651   0.53808   0.53967   0.54463   0.55678
 Alpha virt. eigenvalues --    0.56903   0.57130   0.57723   0.60441   0.61043
 Alpha virt. eigenvalues --    0.61569   0.63350   0.63985   0.64520   0.65258
 Alpha virt. eigenvalues --    0.65854   0.66684   0.67261   0.68906   0.69984
 Alpha virt. eigenvalues --    0.74248   0.74729   0.76363   0.76632   0.77945
 Alpha virt. eigenvalues --    0.78146   0.78666   0.79373   0.80332   0.80697
 Alpha virt. eigenvalues --    0.81926   0.82436   0.82904   0.84020   0.85716
 Alpha virt. eigenvalues --    0.86692   0.87279   0.87415   0.87951   0.90058
 Alpha virt. eigenvalues --    0.90965   0.91298   0.92073   0.92964   0.93243
 Alpha virt. eigenvalues --    0.94288   0.94371   0.94803   0.94890   0.96566
 Alpha virt. eigenvalues --    0.97423   0.98140   0.98851   0.99660   1.00178
 Alpha virt. eigenvalues --    1.02267   1.02567   1.03074   1.03628   1.05020
 Alpha virt. eigenvalues --    1.05415   1.05788   1.08280   1.10188   1.11058
 Alpha virt. eigenvalues --    1.11784   1.12590   1.12831   1.13747   1.14984
 Alpha virt. eigenvalues --    1.16634   1.17744   1.18522   1.19594   1.19618
 Alpha virt. eigenvalues --    1.20094   1.21213   1.22540   1.22821   1.23177
 Alpha virt. eigenvalues --    1.24302   1.24725   1.26006   1.26915   1.27424
 Alpha virt. eigenvalues --    1.28463   1.30290   1.31358   1.32530   1.33909
 Alpha virt. eigenvalues --    1.34965   1.36618   1.37361   1.38447   1.39889
 Alpha virt. eigenvalues --    1.41038   1.41516   1.42244   1.43422   1.43716
 Alpha virt. eigenvalues --    1.45030   1.45963   1.49247   1.49720   1.51240
 Alpha virt. eigenvalues --    1.52116   1.53115   1.53528   1.53755   1.54568
 Alpha virt. eigenvalues --    1.55995   1.57628   1.58569   1.59885   1.61276
 Alpha virt. eigenvalues --    1.61502   1.61917   1.63816   1.64289   1.65683
 Alpha virt. eigenvalues --    1.67200   1.67657   1.68779   1.70019   1.70815
 Alpha virt. eigenvalues --    1.71775   1.72346   1.73248   1.73866   1.75676
 Alpha virt. eigenvalues --    1.76159   1.77032   1.77761   1.79682   1.80426
 Alpha virt. eigenvalues --    1.81426   1.82796   1.84441   1.86270   1.88661
 Alpha virt. eigenvalues --    1.90012   1.90346   1.90768   1.94132   1.95344
 Alpha virt. eigenvalues --    1.96630   1.97229   1.98337   2.00378   2.01547
 Alpha virt. eigenvalues --    2.04162   2.05138   2.06904   2.08635   2.10645
 Alpha virt. eigenvalues --    2.11699   2.13919   2.15151   2.17536   2.17834
 Alpha virt. eigenvalues --    2.17976   2.18725   2.20043   2.23920   2.24648
 Alpha virt. eigenvalues --    2.25625   2.25804   2.26397   2.29468   2.33097
 Alpha virt. eigenvalues --    2.33899   2.34960   2.36434   2.37079   2.39916
 Alpha virt. eigenvalues --    2.43925   2.45642   2.46081   2.46409   2.47923
 Alpha virt. eigenvalues --    2.50604   2.52205   2.54827   2.55885   2.57074
 Alpha virt. eigenvalues --    2.57744   2.61549   2.62747   2.66990   2.69239
 Alpha virt. eigenvalues --    2.69302   2.71510   2.73257   2.76851   2.80062
 Alpha virt. eigenvalues --    2.83519   2.88117   2.91513   2.96869   2.99193
 Alpha virt. eigenvalues --    3.02905   3.05462   3.13230   3.14704   3.16898
 Alpha virt. eigenvalues --    3.20250   3.23096   3.40014   3.42068   3.44181
 Alpha virt. eigenvalues --    3.47057   3.47654   3.53160   3.55843   3.58233
 Alpha virt. eigenvalues --    3.59454   3.61555   3.62415   3.65196   3.66113
 Alpha virt. eigenvalues --    3.67898   3.68863   3.74917   3.75148   3.77343
 Alpha virt. eigenvalues --    3.77581   3.77939   3.79035   3.84662   3.86159
 Alpha virt. eigenvalues --    3.86813   3.87108   3.87869   3.90388   3.91218
 Alpha virt. eigenvalues --    3.91726   3.92558   3.93617   3.94058   3.95081
 Alpha virt. eigenvalues --    3.98617   3.99445   3.99961   4.00426   4.01812
 Alpha virt. eigenvalues --    4.05396   4.09030   4.09834   4.10515   4.12764
 Alpha virt. eigenvalues --    4.15909   4.19242   4.19805   4.20461   4.22938
 Alpha virt. eigenvalues --    4.23664   4.25496   4.26545   4.27819   4.28623
 Alpha virt. eigenvalues --    4.29458   4.30462   4.31397   4.33372   4.35066
 Alpha virt. eigenvalues --    4.37493   4.38537   4.39359   4.43345   4.44370
 Alpha virt. eigenvalues --    4.46749   4.48184   4.48887   4.52172   4.54078
 Alpha virt. eigenvalues --    4.55171   4.58157   4.60513   4.63046   4.63453
 Alpha virt. eigenvalues --    4.64563   4.66199   4.68667   4.69502   4.71259
 Alpha virt. eigenvalues --    4.74488   4.77321   4.79416   4.79807   4.80517
 Alpha virt. eigenvalues --    4.83176   4.85861   4.86355   4.87393   4.89505
 Alpha virt. eigenvalues --    4.92444   4.92880   4.97207   5.01646   5.03446
 Alpha virt. eigenvalues --    5.03910   5.05948   5.08697   5.10766   5.12073
 Alpha virt. eigenvalues --    5.12614   5.14212   5.16805   5.18285   5.22438
 Alpha virt. eigenvalues --    5.24356   5.25601   5.27205   5.29770   5.32860
 Alpha virt. eigenvalues --    5.33641   5.35177   5.36208   5.37055   5.38957
 Alpha virt. eigenvalues --    5.42880   5.44892   5.47577   5.48562   5.50726
 Alpha virt. eigenvalues --    5.53658   5.60206   5.61236   5.61479   5.61987
 Alpha virt. eigenvalues --    5.64366   5.67774   5.68509   5.71684   5.78054
 Alpha virt. eigenvalues --    5.83071   5.83790   5.85127   5.87815   5.88884
 Alpha virt. eigenvalues --    5.94489   5.96196   6.00519   6.03813   6.05634
 Alpha virt. eigenvalues --    6.06674   6.11023   6.15244   6.15893   6.26865
 Alpha virt. eigenvalues --    6.27110   6.29336   6.34659   6.35951   6.41661
 Alpha virt. eigenvalues --    6.51496   6.58705   6.66297   6.75327   6.76217
 Alpha virt. eigenvalues --    6.81819   6.83158   6.84392   6.88099   6.89509
 Alpha virt. eigenvalues --    6.91077   6.95901   6.96400   6.96917   6.99022
 Alpha virt. eigenvalues --    7.09851   7.23319   7.36008   7.44568   7.46546
 Alpha virt. eigenvalues --    7.56212   7.69003   7.94526   8.08958   8.16257
 Alpha virt. eigenvalues --    8.91601  16.58002  17.38490  18.25143  18.30711
 Alpha virt. eigenvalues --   18.85627
          Condensed to atoms (all electrons):
               1          2          3          4          5          6
     1  O    8.160753   0.281918   0.138966   0.046481  -0.008441  -0.011869
     2  H    0.281918   0.545309   0.024636   0.005008  -0.002088  -0.000669
     3  H    0.138966   0.024636   0.436112   0.057111  -0.026297  -0.005590
     4  N    0.046481   0.005008   0.057111   6.454390   0.114288   0.182476
     5  C   -0.008441  -0.002088  -0.026297   0.114288   5.731058  -0.012771
     6  C   -0.011869  -0.000669  -0.005590   0.182476  -0.012771   5.645987
     7  C   -0.004131  -0.005563  -0.063322   0.141912  -0.055765  -0.025858
     8  H   -0.001599   0.000097  -0.000844  -0.067531   0.439360   0.006749
     9  H   -0.002802  -0.001592   0.004050  -0.029220   0.410599  -0.001938
    10  H    0.007126   0.000006   0.005169   0.018008   0.374254   0.004311
    11  H   -0.001781   0.000234   0.001306  -0.045276   0.000657   0.416793
    12  H    0.000603  -0.000080   0.006141   0.000714   0.008234   0.389548
    13  H   -0.001583  -0.000882   0.003005  -0.020531  -0.000387   0.399770
    14  H    0.000435  -0.000334  -0.003818  -0.079221  -0.002270   0.004901
    15  H   -0.000814  -0.000208   0.002769  -0.008290   0.009116  -0.004323
    16  H   -0.002801  -0.000508   0.004343   0.005388  -0.011687   0.008661
               7          8          9         10         11         12
     1  O   -0.004131  -0.001599  -0.002802   0.007126  -0.001781   0.000603
     2  H   -0.005563   0.000097  -0.001592   0.000006   0.000234  -0.000080
     3  H   -0.063322  -0.000844   0.004050   0.005169   0.001306   0.006141
     4  N    0.141912  -0.067531  -0.029220   0.018008  -0.045276   0.000714
     5  C   -0.055765   0.439360   0.410599   0.374254   0.000657   0.008234
     6  C   -0.025858   0.006749  -0.001938   0.004311   0.416793   0.389548
     7  C    5.719825  -0.006630  -0.006064  -0.006870   0.010847  -0.011027
     8  H   -0.006630   0.307378   0.019749   0.006026   0.003163   0.001910
     9  H   -0.006064   0.019749   0.281884   0.014437   0.000525   0.000354
    10  H   -0.006870   0.006026   0.014437   0.275719   0.000757   0.004287
    11  H    0.010847   0.003163   0.000525   0.000757   0.301667   0.011165
    12  H   -0.011027   0.001910   0.000354   0.004287   0.011165   0.264481
    13  H   -0.003211   0.001425  -0.000165  -0.000136   0.016611   0.019915
    14  H    0.428147   0.003882   0.000900   0.000209   0.006048   0.000113
    15  H    0.396209   0.000542   0.006322  -0.000228   0.000240  -0.001306
    16  H    0.396535  -0.001278  -0.000288  -0.000800   0.000961   0.000675
              13         14         15         16
     1  O   -0.001583   0.000435  -0.000814  -0.002801
     2  H   -0.000882  -0.000334  -0.000208  -0.000508
     3  H    0.003005  -0.003818   0.002769   0.004343
     4  N   -0.020531  -0.079221  -0.008290   0.005388
     5  C   -0.000387  -0.002270   0.009116  -0.011687
     6  C    0.399770   0.004901  -0.004323   0.008661
     7  C   -0.003211   0.428147   0.396209   0.396535
     8  H    0.001425   0.003882   0.000542  -0.001278
     9  H   -0.000165   0.000900   0.006322  -0.000288
    10  H   -0.000136   0.000209  -0.000228  -0.000800
    11  H    0.016611   0.006048   0.000240   0.000961
    12  H    0.019915   0.000113  -0.001306   0.000675
    13  H    0.266635   0.001685   0.000770   0.003032
    14  H    0.001685   0.312924   0.012526   0.012181
    15  H    0.000770   0.012526   0.275133   0.019206
    16  H    0.003032   0.012181   0.019206   0.269128
 Mulliken charges:
               1
     1  O   -0.600462
     2  H    0.154715
     3  H    0.416263
     4  N    0.224294
     5  C   -0.967859
     6  C   -0.996178
     7  C   -0.905035
     8  H    0.287601
     9  H    0.303250
    10  H    0.297727
    11  H    0.276083
    12  H    0.304273
    13  H    0.314046
    14  H    0.301693
    15  H    0.292337
    16  H    0.297252
 Sum of Mulliken charges =  -0.00000
 Mulliken charges with hydrogens summed into heavy atoms:
               1
     1  O   -0.029483
     4  N    0.224294
     5  C   -0.079281
     6  C   -0.101776
     7  C   -0.013753
 Electronic spatial extent (au):  <R**2>=            622.6023
 Charge=             -0.0000 electrons
 Dipole moment (field-independent basis, Debye):
    X=              2.7078    Y=              0.3724    Z=              1.1371  Tot=              2.9604
 Quadrupole moment (field-independent basis, Debye-Ang):
   XX=            -39.8972   YY=            -33.3775   ZZ=            -31.3376
   XY=             -1.2085   XZ=             -3.5765   YZ=              0.5539
 Traceless Quadrupole moment (field-independent basis, Debye-Ang):
   XX=             -5.0265   YY=              1.4933   ZZ=              3.5332
   XY=             -1.2085   XZ=             -3.5765   YZ=              0.5539
 Octapole moment (field-independent basis, Debye-Ang**2):
  XXX=              2.6854  YYY=             -0.5328  ZZZ=              3.8409  XYY=             -1.9510
  XXY=              3.8392  XXZ=             12.8121  XZZ=             -8.4278  YZZ=              1.2096
  YYZ=              1.1615  XYZ=             -1.4609
 Hexadecapole moment (field-independent basis, Debye-Ang**3):
 XXXX=           -435.3141 YYYY=           -195.6329 ZZZZ=           -186.5971 XXXY=            -12.0806
 XXXZ=            -44.3616 YYYX=              0.1689 YYYZ=             -0.0617 ZZZX=             -6.2661
 ZZZY=              1.8239 XXYY=           -109.4751 XXZZ=            -87.3536 YYZZ=            -63.3657
 XXYZ=              4.5965 YYXZ=             -0.1455 ZZXY=             -1.9660
 N-N= 2.004970589206D+02 E-N=-9.851001367676D+02  KE= 2.488733555115D+02
 Calling FoFJK, ICntrl=  10002127 FMM=F ISym2X=0 I1Cent= 0 IOpClX= 0 NMat=1 NMatS=1 NMatT=0.
 ***** Axes restored to original set *****
 -------------------------------------------------------------------
 Center     Atomic                   Forces (Hartrees/Bohr)
 Number     Number              X              Y              Z
 -------------------------------------------------------------------
      1        8          -0.001758466    0.001028606   -0.004275676
      2        1          -0.001519544   -0.000965646    0.003692524
      3        1           0.003101442   -0.000090951    0.000737997
      4        7          -0.004944148   -0.000120290    0.001664577
      5        6          -0.000262811    0.001813675    0.000272395
      6        6           0.000253310   -0.001269471    0.001307879
      7        6          -0.000808929   -0.000571043   -0.001572715
      8        1           0.006769115   -0.000595199   -0.002402302
      9        1          -0.000692961   -0.004735109    0.005655877
     10        1          -0.004385594   -0.002559286   -0.005318940
     11        1           0.006554965    0.000652808   -0.002830153
     12        1          -0.004447409   -0.002133028   -0.005449311
     13        1          -0.002204105    0.006813984    0.001889546
     14        1           0.007050143    0.000431755   -0.001602779
     15        1          -0.000587400   -0.004448628    0.005922913
     16        1          -0.002117608    0.006747823    0.002308169
 -------------------------------------------------------------------
 Cartesian Forces:  Max     0.007050143 RMS     0.003449641

 GradGradGradGradGradGradGradGradGradGradGradGradGradGradGradGradGradGrad
 Berny optimization.
 FormGI is forming the generalized inverse of G from B-inverse, IUseBI=4.
 Internal  Forces:  Max     0.007435999 RMS     0.002982965
 Search for a local minimum.
 Step number   1 out of a maximum of   82
 All quantities printed in internal units (Hartrees-Bohrs-Radians)
 Mixed Optimization -- RFO/linear search
 Second derivative matrix not updated -- first step.
 ITU=  0
     Eigenvalues ---    0.00230   0.00230   0.00230   0.00801   0.00818
     Eigenvalues ---    0.00833   0.03763   0.04226   0.05493   0.05667
     Eigenvalues ---    0.05812   0.05818   0.05824   0.06074   0.06088
     Eigenvalues ---    0.06095   0.13796   0.14984   0.16000   0.16000
     Eigenvalues ---    0.16000   0.16000   0.16000   0.16000   0.16000
     Eigenvalues ---    0.16000   0.16000   0.16001   0.32412   0.32437
     Eigenvalues ---    0.32470   0.33600   0.33611   0.33622   0.33656
     Eigenvalues ---    0.33657   0.33660   0.36060   0.36219   0.36354
     Eigenvalues ---    0.50083   0.54449
 RFO step:  Lambda=-1.88023867D-03 EMin= 2.30000000D-03
 Linear search not attempted -- first point.
 Iteration  1 RMS(Cart)=  0.01782053 RMS(Int)=  0.00018974
 Iteration  2 RMS(Cart)=  0.00028237 RMS(Int)=  0.00001629
 Iteration  3 RMS(Cart)=  0.00000010 RMS(Int)=  0.00001629
 Variable       Old X    -DE/DX   Delta X   Delta X   Delta X     New X
                                 (Linear)    (Quad)   (Total)
    R1        1.82325  -0.00411   0.00000  -0.00752  -0.00752   1.81573
    R2        1.86474  -0.00333   0.00000  -0.00662  -0.00661   1.85813
    R3        3.51245  -0.00019   0.00000  -0.00343  -0.00343   3.50902
    R4        2.77041  -0.00649   0.00000  -0.01781  -0.01781   2.75260
    R5        2.77288  -0.00650   0.00000  -0.01794  -0.01794   2.75494
    R6        2.76832  -0.00653   0.00000  -0.01787  -0.01787   2.75045
    R7        2.10051  -0.00720   0.00000  -0.02206  -0.02206   2.07845
    R8        2.07991  -0.00741   0.00000  -0.02191  -0.02191   2.05800
    R9        2.07908  -0.00735   0.00000  -0.02172  -0.02172   2.05736
   R10        2.09993  -0.00716   0.00000  -0.02192  -0.02192   2.07801
   R11        2.07912  -0.00735   0.00000  -0.02172  -0.02172   2.05740
   R12        2.07914  -0.00740   0.00000  -0.02188  -0.02188   2.05727
   R13        2.10096  -0.00723   0.00000  -0.02219  -0.02219   2.07877
   R14        2.08010  -0.00743   0.00000  -0.02198  -0.02198   2.05812
   R15        2.07972  -0.00744   0.00000  -0.02199  -0.02199   2.05773
    A1        1.82966   0.00010   0.00000   0.00064   0.00064   1.83030
    A2        1.87136   0.00014   0.00000   0.00305   0.00305   1.87441
    A3        1.73764   0.00006   0.00000   0.00166   0.00166   1.73930
    A4        2.07647   0.00016   0.00000   0.00331   0.00331   2.07978
    A5        1.91968  -0.00008   0.00000  -0.00266  -0.00270   1.91699
    A6        1.92512  -0.00016   0.00000  -0.00265  -0.00263   1.92248
    A7        1.92293  -0.00010   0.00000  -0.00268  -0.00270   1.92023
    A8        1.95274  -0.00052   0.00000  -0.00368  -0.00368   1.94906
    A9        1.91182  -0.00006   0.00000  -0.00012  -0.00012   1.91170
   A10        1.90915  -0.00017   0.00000  -0.00092  -0.00092   1.90823
   A11        1.89541   0.00026   0.00000   0.00130   0.00130   1.89671
   A12        1.89896   0.00029   0.00000   0.00127   0.00127   1.90022
   A13        1.89484   0.00023   0.00000   0.00235   0.00235   1.89719
   A14        1.95137  -0.00054   0.00000  -0.00370  -0.00371   1.94767
   A15        1.90873  -0.00016   0.00000  -0.00085  -0.00085   1.90787
   A16        1.91001  -0.00010   0.00000  -0.00038  -0.00038   1.90963
   A17        1.90104   0.00031   0.00000   0.00151   0.00151   1.90255
   A18        1.89970   0.00029   0.00000   0.00146   0.00146   1.90116
   A19        1.89204   0.00022   0.00000   0.00216   0.00216   1.89420
   A20        1.95337  -0.00049   0.00000  -0.00348  -0.00349   1.94988
   A21        1.91274  -0.00009   0.00000  -0.00031  -0.00031   1.91243
   A22        1.91182  -0.00015   0.00000  -0.00076  -0.00076   1.91106
   A23        1.89344   0.00026   0.00000   0.00123   0.00123   1.89467
   A24        1.89489   0.00027   0.00000   0.00110   0.00110   1.89599
   A25        1.89664   0.00024   0.00000   0.00241   0.00241   1.89905
   A26        2.88390   0.00015   0.00000   0.03579   0.03577   2.91967
   A27        3.10268   0.00010   0.00000   0.02453   0.02454   3.12722
    D1       -1.57954   0.00003   0.00000   0.00664   0.00673  -1.57281
    D2        2.73783   0.00001   0.00000   0.00346   0.00343   2.74126
    D3        0.67265   0.00002   0.00000   0.00439   0.00433   0.67698
    D4       -2.93204   0.00007   0.00000   0.00322   0.00323  -2.92881
    D5        1.24835   0.00012   0.00000   0.00405   0.00406   1.25241
    D6       -0.82658  -0.00002   0.00000   0.00182   0.00183  -0.82475
    D7       -1.05890   0.00016   0.00000   0.00542   0.00542  -1.05348
    D8        3.12149   0.00021   0.00000   0.00625   0.00624   3.12774
    D9        1.04656   0.00007   0.00000   0.00402   0.00401   1.05057
   D10        1.06566  -0.00013   0.00000  -0.00143  -0.00144   1.06422
   D11       -1.03714  -0.00007   0.00000  -0.00060  -0.00061  -1.03775
   D12       -3.11207  -0.00021   0.00000  -0.00284  -0.00284  -3.11491
   D13        3.01841  -0.00002   0.00000  -0.00146  -0.00146   3.01696
   D14        0.91151   0.00005   0.00000  -0.00038  -0.00039   0.91112
   D15       -1.15868  -0.00007   0.00000  -0.00228  -0.00228  -1.16096
   D16        1.05703  -0.00018   0.00000  -0.00474  -0.00473   1.05230
   D17       -1.04988  -0.00011   0.00000  -0.00367  -0.00366  -1.05354
   D18       -3.12007  -0.00023   0.00000  -0.00556  -0.00555  -3.12562
   D19       -1.06883   0.00015   0.00000   0.00208   0.00207  -1.06676
   D20        3.10745   0.00021   0.00000   0.00315   0.00314   3.11059
   D21        1.03726   0.00009   0.00000   0.00126   0.00125   1.03851
   D22        3.04682  -0.00004   0.00000  -0.00101  -0.00102   3.04580
   D23       -1.13501  -0.00010   0.00000  -0.00193  -0.00194  -1.13695
   D24        0.94427   0.00005   0.00000   0.00037   0.00036   0.94463
   D25       -1.06434   0.00014   0.00000   0.00358   0.00359  -1.06075
   D26        1.03701   0.00008   0.00000   0.00266   0.00267   1.03968
   D27        3.11629   0.00023   0.00000   0.00496   0.00497   3.12126
   D28        1.05829  -0.00013   0.00000  -0.00327  -0.00327   1.05502
   D29       -3.12354  -0.00019   0.00000  -0.00419  -0.00419  -3.12773
   D30       -1.04426  -0.00005   0.00000  -0.00189  -0.00189  -1.04615
         Item               Value     Threshold  Converged?
 Maximum Force            0.007436     0.000450     NO 
 RMS     Force            0.002983     0.000300     NO 
 Maximum Displacement     0.046368     0.001800     NO 
 RMS     Displacement     0.017796     0.001200     NO 
 Predicted change in Energy=-9.473885D-04
 GradGradGradGradGradGradGradGradGradGradGradGradGradGradGradGradGradGrad

                          Input orientation:                          
 ---------------------------------------------------------------------
 Center     Atomic      Atomic             Coordinates (Angstroms)
 Number     Number       Type             X           Y           Z
 ---------------------------------------------------------------------
      1          8           0        2.493773   -0.017901   -0.175600
      2          1           0        2.835934    0.220091   -1.041340
      3          1           0        1.515942    0.021210   -0.271283
      4          7           0       -0.327635    0.006266   -0.049806
      5          6           0       -0.728958    1.347832    0.351261
      6          6           0       -0.430022   -0.901187    1.086583
      7          6           0       -1.169192   -0.463855   -1.140299
      8          1           0       -1.768724    1.370830    0.709132
      9          1           0       -0.637214    2.024284   -0.497278
     10          1           0       -0.074392    1.696736    1.148192
     11          1           0       -1.459288   -0.955232    1.469845
     12          1           0        0.227296   -0.556401    1.883067
     13          1           0       -0.113230   -1.897689    0.783594
     14          1           0       -2.227935   -0.512354   -0.845681
     15          1           0       -1.076419    0.211197   -1.989920
     16          1           0       -0.847025   -1.458305   -1.445239
 ---------------------------------------------------------------------
                    Distance matrix (angstroms):
                    1          2          3          4          5
     1  O    0.000000
     2  H    0.960843   0.000000
     3  H    0.983280   1.541078   0.000000
     4  N    2.824314   3.322203   1.856893   0.000000
     5  C    3.539605   3.989937   2.680869   1.456611   0.000000
     6  C    3.304826   4.056081   2.545858   1.457852   2.384983
     7  C    3.814030   4.064309   2.863637   1.455474   2.387628
     8  H    4.569486   5.058778   3.683981   2.124797   1.099870
     9  H    3.751943   3.951439   2.949484   2.090088   1.089047
    10  H    3.359743   3.929952   2.711356   2.087348   1.088710
    11  H    4.383237   5.112374   3.582870   2.124725   2.662464
    12  H    3.108860   3.995008   2.575940   2.088191   2.624301
    13  H    3.354119   4.063612   2.729311   2.089394   3.331582
    14  H    4.794581   5.120305   3.825079   2.124505   2.672057
    15  H    4.011298   4.025716   3.116110   2.089669   2.625604
    16  H    3.853268   4.067473   3.025021   2.088532   3.334030
                    6          7          8          9         10
     6  C    0.000000
     7  C    2.386762   0.000000
     8  H    2.663955   2.673183   0.000000
     9  H    3.333156   2.624369   1.778410   0.000000
    10  H    2.622874   3.332256   1.780379   1.769641   0.000000
    11  H    1.099635   2.671789   2.466780   3.663727   3.009041
    12  H    1.088729   3.331589   3.012713   3.615710   2.389075
    13  H    1.088658   2.621507   3.664618   4.158974   3.613077
    14  H    2.667832   1.100040   2.484895   3.014351   3.673330
    15  H    3.334682   1.089110   3.018098   2.389176   3.613672
    16  H    2.625718   1.088904   3.673534   3.615395   4.156577
                   11         12         13         14         15
    11  H    0.000000
    12  H    1.781680   0.000000
    13  H    1.780741   1.767442   0.000000
    14  H    2.479641   3.670990   3.007601   0.000000
    15  H    3.671120   4.157994   3.614902   1.777301   0.000000
    16  H    3.020872   3.611817   2.387302   1.777978   1.771028
                   16
    16  H    0.000000
 Stoichiometry    C3H11NO
 Framework group  C1[X(C3H11NO)]
 Deg. of freedom    42
 Full point group                 C1      NOp   1
 Largest Abelian subgroup         C1      NOp   1
 Largest concise Abelian subgroup C1      NOp   1
                         Standard orientation:                         
 ---------------------------------------------------------------------
 Center     Atomic      Atomic             Coordinates (Angstroms)
 Number     Number       Type             X           Y           Z
 ---------------------------------------------------------------------
      1          8           0       -2.494384   -0.008333    0.142799
      2          1           0       -2.846259    0.215101    1.008524
      3          1           0       -1.517658    0.024300    0.251336
      4          7           0        0.328458    0.004655    0.052536
      5          6           0        0.740879    1.351532   -0.318335
      6          6           0        0.440913   -0.881917   -1.099279
      7          6           0        1.154155   -0.489759    1.144408
      8          1           0        1.785135    1.376220   -0.662770
      9          1           0        0.641613    2.012466    0.541511
     10          1           0        0.097930    1.718377   -1.116666
     11          1           0        1.474636   -0.933734   -1.470671
     12          1           0       -0.204811   -0.519184   -1.897274
     13          1           0        0.115815   -1.882369   -0.818953
     14          1           0        2.216268   -0.537826    0.862108
     15          1           0        1.053840    0.169761    2.005297
     16          1           0        0.823668   -1.488170    1.426657
 ---------------------------------------------------------------------
 Rotational constants (GHZ):           5.1240661           2.5640621           2.5354433
 Standard basis: Aug-CC-pVTZ (5D, 7F)
 There are   550 symmetry adapted cartesian basis functions of A   symmetry.
 There are   483 symmetry adapted basis functions of A   symmetry.
   483 basis functions,   657 primitive gaussians,   550 cartesian basis functions
    22 alpha electrons       22 beta electrons
       nuclear repulsion energy       201.7021482432 Hartrees.
 NAtoms=   16 NActive=   16 NUniq=   16 SFac= 1.00D+00 NAtFMM=   60 NAOKFM=F Big=F
 Integral buffers will be    131072 words long.
 Raffenetti 1 integral format.
 Two-electron integral symmetry is turned on.
 One-electron integrals computed using PRISM.
 NBasis=   483 RedAO= T EigKep=  3.78D-06  NBF=   483
 NBsUse=   483 1.00D-06 EigRej= -1.00D+00 NBFU=   483
 Initial guess from the checkpoint file:  "/gscratch/scrubbed/gds001/Gau-3797.chk"
 B after Tr=     0.000000    0.000000    0.000000
         Rot=    0.999941   -0.009355    0.005204    0.001729 Ang=  -1.24 deg.
 ExpMin= 2.53D-02 ExpMax= 1.53D+04 ExpMxC= 5.22D+02 IAcc=3 IRadAn=         5 AccDes= 0.00D+00
 Harris functional with IExCor=  205 and IRadAn=       5 diagonalized for initial guess.
 HarFok:  IExCor=  205 AccDes= 0.00D+00 IRadAn=         5 IDoV= 1 UseB2=F ITyADJ=14
 ICtDFT=  3500011 ScaDFX=  1.000000  1.000000  1.000000  1.000000
 FoFCou: FMM=F IPFlag=           0 FMFlag=      100000 FMFlg1=           0
         NFxFlg=           0 DoJE=T BraDBF=F KetDBF=T FulRan=T
         wScrn=  0.000000 ICntrl=       500 IOpCl=  0 I1Cent=   200000004 NGrid=           0
         NMat0=    1 NMatS0=      1 NMatT0=    0 NMatD0=    1 NMtDS0=    0 NMtDT0=    0
 Petite list used in FoFCou.
 Requested convergence on RMS density matrix=1.00D-08 within 128 cycles.
 Requested convergence on MAX density matrix=1.00D-06.
 Requested convergence on             energy=1.00D-06.
 No special actions if energy rises.
 Initial convergence to 1.0D-05 achieved.  Increase integral accuracy.
 SCF Done:  E(RHF) =  -249.400789365     A.U. after    9 cycles
            NFock=  9  Conv=0.87D-08     -V/T= 2.0012
 ExpMin= 2.53D-02 ExpMax= 1.53D+04 ExpMxC= 5.22D+02 IAcc=3 IRadAn=         5 AccDes= 0.00D+00
 HarFok:  IExCor=  205 AccDes= 0.00D+00 IRadAn=         5 IDoV=-2 UseB2=F ITyADJ=14
 ICtDFT= 12500011 ScaDFX=  1.000000  1.000000  1.000000  1.000000
 Range of M.O.s used for correlation:     6   483
 NBasis=   483 NAE=    22 NBE=    22 NFC=     5 NFV=     0
 NROrb=    478 NOA=    17 NOB=    17 NVA=   461 NVB=   461

 **** Warning!!: The largest alpha MO coefficient is  0.12402174D+03

 Disk-based method using ON**2 memory for 17 occupieds at a time.
 Estimated scratch disk usage=  5175491506 words.
 Actual    scratch disk usage=  4873501618 words.
 JobTyp=1 Pass  1:  I=   6 to  22 NPSUse= 28 ParTrn=T ParDer=T DoDerP=T.
 (rs|ai) integrals will be sorted in core.
 Spin components of T(2) and E(2):
     alpha-alpha T2 =       0.3587688087D-01 E2=     -0.1190589841D+00
     alpha-beta  T2 =       0.2224358126D+00 E2=     -0.8046315058D+00
     beta-beta   T2 =       0.3587688087D-01 E2=     -0.1190589841D+00
 ANorm=    0.1137624531D+01
 E2 =    -0.1042749474D+01 EUMP2 =    -0.25044353883912D+03
          IDoAtm=1111111111111111
          Differentiating once with respect to electric field.
                with respect to dipole field.
          Differentiating once with respect to nuclear coordinates.
          There are     1 degrees of freedom in the 1st order CPHF.  IDoFFX=0 NUNeed=     1.
 LinEq1:  Iter=  0 NonCon=     1 RMS=2.00D-03 Max=3.17D-02 NDo=     1
 AX will form     1 AO Fock derivatives at one time.
 LinEq1:  Iter=  1 NonCon=     1 RMS=4.32D-04 Max=6.40D-03 NDo=     1
 LinEq1:  Iter=  2 NonCon=     1 RMS=1.36D-04 Max=1.91D-03 NDo=     1
 LinEq1:  Iter=  3 NonCon=     1 RMS=2.89D-05 Max=4.12D-04 NDo=     1
 LinEq1:  Iter=  4 NonCon=     1 RMS=1.07D-05 Max=1.17D-04 NDo=     1
 LinEq1:  Iter=  5 NonCon=     1 RMS=2.97D-06 Max=6.43D-05 NDo=     1
 LinEq1:  Iter=  6 NonCon=     1 RMS=7.53D-07 Max=1.18D-05 NDo=     1
 LinEq1:  Iter=  7 NonCon=     1 RMS=1.99D-07 Max=3.50D-06 NDo=     1
 LinEq1:  Iter=  8 NonCon=     1 RMS=7.65D-08 Max=1.19D-06 NDo=     1
 LinEq1:  Iter=  9 NonCon=     1 RMS=2.16D-08 Max=2.88D-07 NDo=     1
 LinEq1:  Iter= 10 NonCon=     1 RMS=3.81D-09 Max=5.14D-08 NDo=     1
 LinEq1:  Iter= 11 NonCon=     1 RMS=6.71D-10 Max=7.92D-09 NDo=     1
 LinEq1:  Iter= 12 NonCon=     1 RMS=1.86D-10 Max=2.55D-09 NDo=     1
 LinEq1:  Iter= 13 NonCon=     0 RMS=5.19D-11 Max=8.03D-10 NDo=     1
 Linear equations converged to 1.000D-10 1.000D-09 after    13 iterations.
 End of Minotr F.D. properties file   721 does not exist.
 End of Minotr F.D. properties file   722 does not exist.
 End of Minotr F.D. properties file   788 does not exist.
 Calling FoFJK, ICntrl=  10002127 FMM=F ISym2X=0 I1Cent= 0 IOpClX= 0 NMat=1 NMatS=1 NMatT=0.
 ***** Axes restored to original set *****
 -------------------------------------------------------------------
 Center     Atomic                   Forces (Hartrees/Bohr)
 Number     Number              X              Y              Z
 -------------------------------------------------------------------
      1        8          -0.000402727    0.000140920   -0.000029890
      2        1          -0.000003028   -0.000004075    0.000237870
      3        1           0.000397415   -0.000309446   -0.000448459
      4        7          -0.000879550    0.000137977    0.000525709
      5        6           0.000453967    0.000129533   -0.000225402
      6        6           0.000579880   -0.000095744   -0.000173298
      7        6           0.000569738   -0.000034613   -0.000355288
      8        1          -0.000090116    0.000040047    0.000081983
      9        1          -0.000085308    0.000259119    0.000042710
     10        1          -0.000062381    0.000320461    0.000143149
     11        1          -0.000075988   -0.000014563    0.000090976
     12        1          -0.000011821   -0.000162977    0.000325463
     13        1          -0.000010990   -0.000213091    0.000193710
     14        1          -0.000098698   -0.000004333    0.000039479
     15        1          -0.000147250   -0.000065040   -0.000228691
     16        1          -0.000133143   -0.000124172   -0.000220020
 -------------------------------------------------------------------
 Cartesian Forces:  Max     0.000879550 RMS     0.000269464

 GradGradGradGradGradGradGradGradGradGradGradGradGradGradGradGradGradGrad
 Berny optimization.
 Using GEDIIS/GDIIS optimizer.
 FormGI is forming the generalized inverse of G from B-inverse, IUseBI=4.
 Internal  Forces:  Max     0.000642120 RMS     0.000212591
 Search for a local minimum.
 Step number   2 out of a maximum of   82
 All quantities printed in internal units (Hartrees-Bohrs-Radians)
 Mixed Optimization -- En-DIIS/RFO-DIIS
 Update second derivatives using D2CorX and points    1    2
 DE= -9.05D-04 DEPred=-9.47D-04 R= 9.55D-01
 TightC=F SS=  1.41D+00  RLast= 8.81D-02 DXNew= 5.0454D-01 2.6437D-01
 Trust test= 9.55D-01 RLast= 8.81D-02 DXMaxT set to 3.00D-01
 ITU=  1  0
 Use linear search instead of GDIIS.
     Eigenvalues ---    0.00230   0.00230   0.00237   0.00801   0.00818
     Eigenvalues ---    0.00833   0.03768   0.04291   0.05493   0.05653
     Eigenvalues ---    0.05840   0.05846   0.05851   0.06076   0.06091
     Eigenvalues ---    0.06100   0.13773   0.14934   0.15945   0.16000
     Eigenvalues ---    0.16000   0.16000   0.16000   0.16000   0.16000
     Eigenvalues ---    0.16000   0.16000   0.16064   0.32292   0.32425
     Eigenvalues ---    0.32458   0.33464   0.33605   0.33619   0.33648
     Eigenvalues ---    0.33659   0.33668   0.36119   0.36298   0.37376
     Eigenvalues ---    0.49950   0.54332
 RFO step:  Lambda=-1.46434310D-04 EMin= 2.29881347D-03
 Quartic linear search produced a step of -0.04451.
 Iteration  1 RMS(Cart)=  0.06329632 RMS(Int)=  0.00498682
 Iteration  2 RMS(Cart)=  0.00730504 RMS(Int)=  0.00031103
 Iteration  3 RMS(Cart)=  0.00004969 RMS(Int)=  0.00031004
 Iteration  4 RMS(Cart)=  0.00000003 RMS(Int)=  0.00031004
 Variable       Old X    -DE/DX   Delta X   Delta X   Delta X     New X
                                 (Linear)    (Quad)   (Total)
    R1        1.81573  -0.00022   0.00033  -0.00139  -0.00106   1.81467
    R2        1.85813  -0.00039   0.00029  -0.00163  -0.00130   1.85683
    R3        3.50902   0.00002   0.00015  -0.00015  -0.00002   3.50900
    R4        2.75260   0.00064   0.00079  -0.00071   0.00008   2.75268
    R5        2.75494   0.00060   0.00080  -0.00082  -0.00001   2.75493
    R6        2.75045   0.00054   0.00080  -0.00100  -0.00020   2.75024
    R7        2.07845   0.00011   0.00098  -0.00265  -0.00166   2.07679
    R8        2.05800   0.00012   0.00098  -0.00261  -0.00164   2.05636
    R9        2.05736   0.00017   0.00097  -0.00245  -0.00148   2.05588
   R10        2.07801   0.00010   0.00098  -0.00265  -0.00168   2.07633
   R11        2.05740   0.00019   0.00097  -0.00239  -0.00144   2.05596
   R12        2.05727   0.00014   0.00097  -0.00256  -0.00159   2.05568
   R13        2.07877   0.00011   0.00099  -0.00268  -0.00170   2.07708
   R14        2.05812   0.00013   0.00098  -0.00261  -0.00163   2.05649
   R15        2.05773   0.00014   0.00098  -0.00258  -0.00160   2.05613
    A1        1.83030   0.00014  -0.00003   0.00093   0.00090   1.83120
    A2        1.87441   0.00002  -0.00014  -0.00004  -0.00013   1.87428
    A3        1.73930  -0.00010  -0.00007  -0.00160  -0.00170   1.73761
    A4        2.07978  -0.00016  -0.00015  -0.00281  -0.00301   2.07677
    A5        1.91699   0.00008   0.00012   0.00190   0.00145   1.91844
    A6        1.92248   0.00004   0.00012   0.00112   0.00174   1.92422
    A7        1.92023   0.00012   0.00012   0.00154   0.00161   1.92184
    A8        1.94906  -0.00008   0.00016  -0.00125  -0.00108   1.94798
    A9        1.91170   0.00030   0.00001   0.00188   0.00188   1.91358
   A10        1.90823   0.00040   0.00004   0.00237   0.00241   1.91064
   A11        1.89671  -0.00015  -0.00006  -0.00092  -0.00098   1.89573
   A12        1.90022  -0.00020  -0.00006  -0.00129  -0.00134   1.89888
   A13        1.89719  -0.00028  -0.00010  -0.00083  -0.00094   1.89625
   A14        1.94767  -0.00008   0.00017  -0.00126  -0.00109   1.94657
   A15        1.90787   0.00038   0.00004   0.00227   0.00233   1.91021
   A16        1.90963   0.00031   0.00002   0.00198   0.00198   1.91161
   A17        1.90255  -0.00021  -0.00007  -0.00139  -0.00146   1.90109
   A18        1.90116  -0.00015  -0.00006  -0.00090  -0.00096   1.90020
   A19        1.89420  -0.00027  -0.00010  -0.00072  -0.00083   1.89337
   A20        1.94988  -0.00015   0.00016  -0.00158  -0.00142   1.94846
   A21        1.91243   0.00032   0.00001   0.00197   0.00198   1.91441
   A22        1.91106   0.00032   0.00003   0.00192   0.00196   1.91301
   A23        1.89467  -0.00012  -0.00005  -0.00077  -0.00083   1.89384
   A24        1.89599  -0.00012  -0.00005  -0.00079  -0.00084   1.89515
   A25        1.89905  -0.00026  -0.00011  -0.00079  -0.00090   1.89815
   A26        2.91967  -0.00052  -0.00159  -0.19047  -0.19241   2.72727
   A27        3.12722  -0.00033  -0.00109  -0.12173  -0.12260   3.00462
    D1       -1.57281   0.00003  -0.00030  -0.00248  -0.00087  -1.57368
    D2        2.74126   0.00004  -0.00015   0.02239   0.02139   2.76265
    D3        0.67698   0.00004  -0.00019   0.02356   0.02230   0.69928
    D4       -2.92881  -0.00002  -0.00014   0.00096   0.00101  -2.92780
    D5        1.25241   0.00002  -0.00018   0.00166   0.00168   1.25408
    D6       -0.82475  -0.00006  -0.00008   0.00013   0.00024  -0.82451
    D7       -1.05348  -0.00009  -0.00024  -0.00007  -0.00036  -1.05384
    D8        3.12774  -0.00005  -0.00028   0.00064   0.00031   3.12804
    D9        1.05057  -0.00013  -0.00018  -0.00090  -0.00113   1.04945
   D10        1.06422   0.00014   0.00006   0.00380   0.00372   1.06794
   D11       -1.03775   0.00018   0.00003   0.00450   0.00439  -1.03336
   D12       -3.11491   0.00010   0.00013   0.00297   0.00296  -3.11195
   D13        3.01696   0.00006   0.00006   0.00109   0.00115   3.01810
   D14        0.91112   0.00012   0.00002   0.00212   0.00212   0.91324
   D15       -1.16096   0.00003   0.00010   0.00048   0.00056  -1.16040
   D16        1.05230   0.00005   0.00021   0.00124   0.00158   1.05388
   D17       -1.05354   0.00011   0.00016   0.00227   0.00256  -1.05098
   D18       -3.12562   0.00002   0.00025   0.00063   0.00100  -3.12462
   D19       -1.06676  -0.00013  -0.00009  -0.00237  -0.00257  -1.06933
   D20        3.11059  -0.00007  -0.00014  -0.00134  -0.00160   3.10899
   D21        1.03851  -0.00016  -0.00006  -0.00298  -0.00316   1.03535
   D22        3.04580  -0.00003   0.00005  -0.00076  -0.00091   3.04489
   D23       -1.13695  -0.00006   0.00009  -0.00143  -0.00154  -1.13849
   D24        0.94463   0.00001  -0.00002  -0.00003  -0.00024   0.94438
   D25       -1.06075  -0.00009  -0.00016  -0.00211  -0.00197  -1.06272
   D26        1.03968  -0.00013  -0.00012  -0.00278  -0.00260   1.03708
   D27        3.12126  -0.00006  -0.00022  -0.00138  -0.00131   3.11995
   D28        1.05502   0.00012   0.00015   0.00198   0.00203   1.05705
   D29       -3.12773   0.00008   0.00019   0.00131   0.00140  -3.12633
   D30       -1.04615   0.00015   0.00008   0.00271   0.00269  -1.04346
         Item               Value     Threshold  Converged?
 Maximum Force            0.000642     0.000450     NO 
 RMS     Force            0.000213     0.000300     YES
 Maximum Displacement     0.298907     0.001800     NO 
 RMS     Displacement     0.063652     0.001200     NO 
 Predicted change in Energy=-8.215761D-05
 GradGradGradGradGradGradGradGradGradGradGradGradGradGradGradGradGradGrad

                          Input orientation:                          
 ---------------------------------------------------------------------
 Center     Atomic      Atomic             Coordinates (Angstroms)
 Number     Number       Type             X           Y           Z
 ---------------------------------------------------------------------
      1          8           0        2.443398    0.015978   -0.087470
      2          1           0        2.924296    0.256294   -0.883165
      3          1           0        1.499118   -0.002831   -0.358525
      4          7           0       -0.336305   -0.001373   -0.077052
      5          6           0       -0.712957    1.345054    0.331744
      6          6           0       -0.406814   -0.905085    1.064722
      7          6           0       -1.213326   -0.468872   -1.140239
      8          1           0       -1.739187    1.376878    0.723683
      9          1           0       -0.645531    2.018350   -0.520466
     10          1           0       -0.031437    1.693281    1.104952
     11          1           0       -1.422669   -0.950477    1.480923
     12          1           0        0.276930   -0.564162    1.839274
     13          1           0       -0.107892   -1.904543    0.756376
     14          1           0       -2.261743   -0.508893   -0.812618
     15          1           0       -1.143672    0.201765   -1.994449
     16          1           0       -0.909297   -1.465841   -1.452462
 ---------------------------------------------------------------------
                    Distance matrix (angstroms):
                    1          2          3          4          5
     1  O    0.000000
     2  H    0.960284   0.000000
     3  H    0.982593   1.540625   0.000000
     4  N    2.779777   3.368639   1.856881   0.000000
     5  C    3.450328   3.986353   2.680772   1.456656   0.000000
     6  C    3.209301   4.029809   2.544066   1.457846   2.386233
     7  C    3.836019   4.208548   2.861054   1.455366   2.389023
     8  H    4.472588   5.058235   3.682579   2.123400   1.098989
     9  H    3.706543   3.997506   2.951426   2.090817   1.088179
    10  H    3.218700   3.841081   2.713146   2.088524   1.087926
    11  H    4.282566   5.093262   3.580285   2.123269   2.663413
    12  H    2.956770   3.885019   2.576656   2.089281   2.626334
    13  H    3.302962   4.068351   2.728002   2.090175   3.332612
    14  H    4.789538   5.242660   3.821828   2.122721   2.673092
    15  H    4.066714   4.217380   3.114876   2.090340   2.627508
    16  H    3.911465   4.241024   3.022840   2.089196   3.335126
                    6          7          8          9         10
     6  C    0.000000
     7  C    2.388011   0.000000
     8  H    2.664373   2.675356   0.000000
     9  H    3.334108   2.625411   1.776366   0.000000
    10  H    2.625650   3.333565   1.778170   1.767701   0.000000
    11  H    1.098747   2.673249   2.467829   3.663801   3.011036
    12  H    1.087965   3.332784   3.012791   3.617828   2.393819
    13  H    1.087818   2.623031   3.664686   4.160345   3.615480
    14  H    2.668732   1.099142   2.487854   3.014041   3.674358
    15  H    3.335657   1.088246   3.020558   2.391809   3.614966
    16  H    2.627385   1.088055   3.674966   3.616320   4.158252
                   11         12         13         14         15
    11  H    0.000000
    12  H    1.779408   0.000000
    13  H    1.778722   1.765610   0.000000
    14  H    2.481809   3.671573   3.008099   0.000000
    15  H    3.672018   4.159591   3.616133   1.775342   0.000000
    16  H    3.022235   3.613266   2.390330   1.776023   1.769065
                   16
    16  H    0.000000
 Stoichiometry    C3H11NO
 Framework group  C1[X(C3H11NO)]
 Deg. of freedom    42
 Full point group                 C1      NOp   1
 Largest Abelian subgroup         C1      NOp   1
 Largest concise Abelian subgroup C1      NOp   1
                         Standard orientation:                         
 ---------------------------------------------------------------------
 Center     Atomic      Atomic             Coordinates (Angstroms)
 Number     Number       Type             X           Y           Z
 ---------------------------------------------------------------------
      1          8           0       -2.445007   -0.016208    0.203089
      2          1           0       -2.893295    0.253446    1.008365
      3          1           0       -1.489277   -0.009451    0.431178
      4          7           0        0.331317    0.004762    0.066151
      5          6           0        0.667531    1.336249   -0.419593
      6          6           0        0.364693   -0.949054   -1.035864
      7          6           0        1.262793   -0.401441    1.107996
      8          1           0        1.674389    1.364462   -0.859160
      9          1           0        0.627857    2.046736    0.403674
     10          1           0       -0.053673    1.639279   -1.175649
     11          1           0        1.361328   -0.999221   -1.495696
     12          1           0       -0.358677   -0.653412   -1.792830
     13          1           0        0.096030   -1.937468   -0.669523
     14          1           0        2.295864   -0.441745    0.734829
     15          1           0        1.221026    0.306450    1.933481
     16          1           0        0.989164   -1.387263    1.478328
 ---------------------------------------------------------------------
 Rotational constants (GHZ):           5.2153042           2.6158458           2.5615734
 Standard basis: Aug-CC-pVTZ (5D, 7F)
 There are   550 symmetry adapted cartesian basis functions of A   symmetry.
 There are   483 symmetry adapted basis functions of A   symmetry.
   483 basis functions,   657 primitive gaussians,   550 cartesian basis functions
    22 alpha electrons       22 beta electrons
       nuclear repulsion energy       202.3795679576 Hartrees.
 NAtoms=   16 NActive=   16 NUniq=   16 SFac= 1.00D+00 NAtFMM=   60 NAOKFM=F Big=F
 Integral buffers will be    131072 words long.
 Raffenetti 1 integral format.
 Two-electron integral symmetry is turned on.
 One-electron integrals computed using PRISM.
 NBasis=   483 RedAO= T EigKep=  3.87D-06  NBF=   483
 NBsUse=   483 1.00D-06 EigRej= -1.00D+00 NBFU=   483
 Initial guess from the checkpoint file:  "/gscratch/scrubbed/gds001/Gau-3797.chk"
 B after Tr=     0.000000    0.000000   -0.000000
         Rot=    0.999179    0.031962   -0.023659   -0.007692 Ang=   4.64 deg.
 ExpMin= 2.53D-02 ExpMax= 1.53D+04 ExpMxC= 5.22D+02 IAcc=3 IRadAn=         5 AccDes= 0.00D+00
 Harris functional with IExCor=  205 and IRadAn=       5 diagonalized for initial guess.
 HarFok:  IExCor=  205 AccDes= 0.00D+00 IRadAn=         5 IDoV= 1 UseB2=F ITyADJ=14
 ICtDFT=  3500011 ScaDFX=  1.000000  1.000000  1.000000  1.000000
 FoFCou: FMM=F IPFlag=           0 FMFlag=      100000 FMFlg1=           0
         NFxFlg=           0 DoJE=T BraDBF=F KetDBF=T FulRan=T
         wScrn=  0.000000 ICntrl=       500 IOpCl=  0 I1Cent=   200000004 NGrid=           0
         NMat0=    1 NMatS0=      1 NMatT0=    0 NMatD0=    1 NMtDS0=    0 NMtDT0=    0
 Petite list used in FoFCou.
 Requested convergence on RMS density matrix=1.00D-08 within 128 cycles.
 Requested convergence on MAX density matrix=1.00D-06.
 Requested convergence on             energy=1.00D-06.
 No special actions if energy rises.
 Initial convergence to 1.0D-05 achieved.  Increase integral accuracy.
 SCF Done:  E(RHF) =  -249.400218578     A.U. after   10 cycles
            NFock= 10  Conv=0.39D-08     -V/T= 2.0011
 ExpMin= 2.53D-02 ExpMax= 1.53D+04 ExpMxC= 5.22D+02 IAcc=3 IRadAn=         5 AccDes= 0.00D+00
 HarFok:  IExCor=  205 AccDes= 0.00D+00 IRadAn=         5 IDoV=-2 UseB2=F ITyADJ=14
 ICtDFT= 12500011 ScaDFX=  1.000000  1.000000  1.000000  1.000000
 Range of M.O.s used for correlation:     6   483
 NBasis=   483 NAE=    22 NBE=    22 NFC=     5 NFV=     0
 NROrb=    478 NOA=    17 NOB=    17 NVA=   461 NVB=   461

 **** Warning!!: The largest alpha MO coefficient is  0.12873447D+03

 Disk-based method using ON**2 memory for 17 occupieds at a time.
 Estimated scratch disk usage=  5169121369 words.
 Actual    scratch disk usage=  4867655769 words.
 JobTyp=1 Pass  1:  I=   6 to  22 NPSUse= 28 ParTrn=T ParDer=T DoDerP=T.
 (rs|ai) integrals will be sorted in core.
 Spin components of T(2) and E(2):
     alpha-alpha T2 =       0.3589287043D-01 E2=     -0.1191276388D+00
     alpha-beta  T2 =       0.2223873789D+00 E2=     -0.8046994848D+00
     beta-beta   T2 =       0.3589287043D-01 E2=     -0.1191276388D+00
 ANorm=    0.1137617299D+01
 E2 =    -0.1042954762D+01 EUMP2 =    -0.25044317334003D+03
          IDoAtm=1111111111111111
          Differentiating once with respect to electric field.
                with respect to dipole field.
          Differentiating once with respect to nuclear coordinates.
          There are     1 degrees of freedom in the 1st order CPHF.  IDoFFX=0 NUNeed=     1.
 LinEq1:  Iter=  0 NonCon=     1 RMS=2.00D-03 Max=2.93D-02 NDo=     1
 AX will form     1 AO Fock derivatives at one time.
 LinEq1:  Iter=  1 NonCon=     1 RMS=4.31D-04 Max=6.40D-03 NDo=     1
 LinEq1:  Iter=  2 NonCon=     1 RMS=1.35D-04 Max=1.65D-03 NDo=     1
 LinEq1:  Iter=  3 NonCon=     1 RMS=2.88D-05 Max=4.46D-04 NDo=     1
 LinEq1:  Iter=  4 NonCon=     1 RMS=1.06D-05 Max=1.25D-04 NDo=     1
 LinEq1:  Iter=  5 NonCon=     1 RMS=2.99D-06 Max=6.13D-05 NDo=     1
 LinEq1:  Iter=  6 NonCon=     1 RMS=7.44D-07 Max=1.31D-05 NDo=     1
 LinEq1:  Iter=  7 NonCon=     1 RMS=1.91D-07 Max=3.07D-06 NDo=     1
 LinEq1:  Iter=  8 NonCon=     1 RMS=7.18D-08 Max=9.94D-07 NDo=     1
 LinEq1:  Iter=  9 NonCon=     1 RMS=2.13D-08 Max=2.89D-07 NDo=     1
 LinEq1:  Iter= 10 NonCon=     1 RMS=3.89D-09 Max=4.94D-08 NDo=     1
 LinEq1:  Iter= 11 NonCon=     1 RMS=7.21D-10 Max=9.34D-09 NDo=     1
 LinEq1:  Iter= 12 NonCon=     1 RMS=2.04D-10 Max=2.76D-09 NDo=     1
 LinEq1:  Iter= 13 NonCon=     0 RMS=5.66D-11 Max=7.99D-10 NDo=     1
 Linear equations converged to 1.000D-10 1.000D-09 after    13 iterations.
 End of Minotr F.D. properties file   721 does not exist.
 End of Minotr F.D. properties file   722 does not exist.
 End of Minotr F.D. properties file   788 does not exist.
 Calling FoFJK, ICntrl=  10002127 FMM=F ISym2X=0 I1Cent= 0 IOpClX= 0 NMat=1 NMatS=1 NMatT=0.
 ***** Axes restored to original set *****
 -------------------------------------------------------------------
 Center     Atomic                   Forces (Hartrees/Bohr)
 Number     Number              X              Y              Z
 -------------------------------------------------------------------
      1        8           0.000597662   -0.000500655   -0.002235479
      2        1           0.001116846    0.000034432   -0.000212979
      3        1          -0.000649406    0.001140140    0.004082751
      4        7          -0.000874815   -0.000535373   -0.001291796
      5        6           0.000462491   -0.000452862   -0.000158825
      6        6           0.000357418    0.000467394   -0.000230185
      7        6          -0.000131200    0.000274852    0.000578414
      8        1          -0.000716226   -0.000018463    0.000220827
      9        1           0.000006453    0.000440807   -0.000572970
     10        1           0.000570275    0.000059792    0.000341626
     11        1          -0.000747443   -0.000063029    0.000190572
     12        1           0.000555874    0.000214652    0.000199234
     13        1           0.000166496   -0.000667657   -0.000157780
     14        1          -0.000872202   -0.000144742    0.000003445
     15        1           0.000023767    0.000441876   -0.000554248
     16        1           0.000134010   -0.000691164   -0.000202606
 -------------------------------------------------------------------
 Cartesian Forces:  Max     0.004082751 RMS     0.000843168

 GradGradGradGradGradGradGradGradGradGradGradGradGradGradGradGradGradGrad
 Berny optimization.
 Using GEDIIS/GDIIS optimizer.
 FormGI is forming the generalized inverse of G from B-inverse, IUseBI=4.
 Internal  Forces:  Max     0.003323218 RMS     0.000614146
 Search for a local minimum.
 Step number   3 out of a maximum of   82
 All quantities printed in internal units (Hartrees-Bohrs-Radians)
 Mixed Optimization -- En-DIIS/RFO-DIIS
 Swapping is turned off.
 Update second derivatives using D2CorX and points    1    2    3
 DE=  3.65D-04 DEPred=-8.22D-05 R=-4.45D+00
 Trust test=-4.45D+00 RLast= 2.31D-01 DXMaxT set to 1.50D-01
 ITU= -1  1  0
     Eigenvalues ---    0.00228   0.00230   0.00800   0.00815   0.00833
     Eigenvalues ---    0.01813   0.03728   0.04182   0.05530   0.05832
     Eigenvalues ---    0.05846   0.05853   0.05880   0.06021   0.06067
     Eigenvalues ---    0.06082   0.12577   0.13722   0.15011   0.16000
     Eigenvalues ---    0.16000   0.16000   0.16000   0.16000   0.16000
     Eigenvalues ---    0.16002   0.16035   0.16332   0.18298   0.32423
     Eigenvalues ---    0.32456   0.32837   0.33604   0.33617   0.33638
     Eigenvalues ---    0.33658   0.33659   0.35991   0.36181   0.36342
     Eigenvalues ---    0.49870   0.54103
 En-DIIS/RFO-DIIS/Sim-DIIS IScMMF=       -3 using points:     3    2
[...]
 Would need an additional 17540693595 words for in-memory AO integral storage.
 DD1Dir will call FoFJK   2 times, MxPair=       254
 NAB=   253 NAA=     0 NBB=     0 NumPrc= 28.
 FoFJK:  IHMeth= 1 ICntrl=     200 DoSepK=F KAlg= 0 I1Cent=           0 FoldK=F
 IRaf= 990000000 NMat=     254 IRICut=     317 DoRegI=T DoRafI=T ISym2E= 0 IDoP0=3 IntGTp=3.
 FoFCou: FMM=F IPFlag=           0 FMFlag=           0 FMFlg1=           0
         NFxFlg=           0 DoJE=F BraDBF=F KetDBF=F FulRan=T
         wScrn=  0.000000 ICntrl=       200 IOpCl=  0 I1Cent=           0 NGrid=           0
         NMat0=  254 NMatS0=      0 NMatT0=  127 NMatD0=  254 NMtDS0=    0 NMtDT0=    0
 Symmetry not used in FoFCou.
 Raff kept on since  99.10% of shell-pairs survive, threshold=   0.20 IRatSp=99.
 Discarding MO integrals.

 **********************************************************************

            Population analysis using the MP2 density.

 **********************************************************************

 Alpha  occ. eigenvalues --  -20.52256 -15.56614 -11.25060 -11.25058 -11.24806
 Alpha  occ. eigenvalues --   -1.30680  -1.24281  -0.96427  -0.96092  -0.82193
 Alpha  occ. eigenvalues --   -0.69215  -0.64584  -0.64194  -0.64050  -0.55960
 Alpha  occ. eigenvalues --   -0.55630  -0.54492  -0.52898  -0.51202  -0.51201
 Alpha  occ. eigenvalues --   -0.46833  -0.37984
 Alpha virt. eigenvalues --    0.02597   0.03699   0.03909   0.04241   0.05768
 Alpha virt. eigenvalues --    0.05843   0.05865   0.06233   0.06421   0.08037
 Alpha virt. eigenvalues --    0.09818   0.11730   0.11994   0.12387   0.12939
 Alpha virt. eigenvalues --    0.13038   0.13157   0.13879   0.14958   0.16278
 Alpha virt. eigenvalues --    0.17481   0.17591   0.17918   0.18256   0.18648
 Alpha virt. eigenvalues --    0.19092   0.19866   0.20863   0.22958   0.23388
 Alpha virt. eigenvalues --    0.24602   0.25586   0.25836   0.27571   0.28243
 Alpha virt. eigenvalues --    0.28905   0.29901   0.30435   0.30863   0.32714
 Alpha virt. eigenvalues --    0.33523   0.33894   0.35029   0.35715   0.36050
 Alpha virt. eigenvalues --    0.36549   0.36812   0.37943   0.38091   0.38305
 Alpha virt. eigenvalues --    0.38538   0.39056   0.39684   0.39859   0.39900
 Alpha virt. eigenvalues --    0.40905   0.41157   0.41251   0.43325   0.44055
 Alpha virt. eigenvalues --    0.44113   0.45114   0.45598   0.45826   0.46044
 Alpha virt. eigenvalues --    0.46854   0.47299   0.48038   0.48613   0.49300
 Alpha virt. eigenvalues --    0.50402   0.50838   0.51151   0.52014   0.52486
 Alpha virt. eigenvalues --    0.53210   0.53539   0.53993   0.54393   0.55660
 Alpha virt. eigenvalues --    0.56886   0.57164   0.57955   0.60502   0.61643
 Alpha virt. eigenvalues --    0.61912   0.63064   0.64472   0.64556   0.65787
 Alpha virt. eigenvalues --    0.65936   0.67312   0.67355   0.69622   0.70176
 Alpha virt. eigenvalues --    0.74732   0.75389   0.75704   0.76435   0.76826
 Alpha virt. eigenvalues --    0.78212   0.78341   0.79411   0.80232   0.81304
 Alpha virt. eigenvalues --    0.81440   0.82678   0.83416   0.83706   0.86247
 Alpha virt. eigenvalues --    0.87134   0.87282   0.87558   0.87616   0.90430
 Alpha virt. eigenvalues --    0.91348   0.91807   0.93333   0.93343   0.93688
 Alpha virt. eigenvalues --    0.94223   0.94369   0.94830   0.95330   0.96577
 Alpha virt. eigenvalues --    0.96990   0.98592   0.99834   0.99897   1.00328
 Alpha virt. eigenvalues --    1.01251   1.02877   1.03482   1.04171   1.04819
 Alpha virt. eigenvalues --    1.06069   1.06309   1.08762   1.10223   1.11097
 Alpha virt. eigenvalues --    1.12635   1.12671   1.13213   1.13884   1.15005
 Alpha virt. eigenvalues --    1.16880   1.18614   1.18970   1.20143   1.20248
 Alpha virt. eigenvalues --    1.20636   1.20859   1.23082   1.23108   1.23281
 Alpha virt. eigenvalues --    1.24830   1.24938   1.26572   1.27051   1.27835
 Alpha virt. eigenvalues --    1.28070   1.31029   1.31350   1.32094   1.34824
 Alpha virt. eigenvalues --    1.35014   1.35812   1.37374   1.38542   1.39488
 Alpha virt. eigenvalues --    1.41392   1.41809   1.42013   1.42874   1.45161
 Alpha virt. eigenvalues --    1.45246   1.46650   1.49327   1.49842   1.51277
 Alpha virt. eigenvalues --    1.53098   1.54049   1.54302   1.55120   1.55614
 Alpha virt. eigenvalues --    1.56758   1.58324   1.58622   1.59875   1.61777
 Alpha virt. eigenvalues --    1.62050   1.62686   1.64281   1.64795   1.65297
 Alpha virt. eigenvalues --    1.67733   1.68604   1.69815   1.70065   1.70930
 Alpha virt. eigenvalues --    1.72265   1.73540   1.73878   1.74117   1.74297
 Alpha virt. eigenvalues --    1.76927   1.78031   1.78160   1.80706   1.80851
 Alpha virt. eigenvalues --    1.82149   1.83676   1.84403   1.86606   1.89371
 Alpha virt. eigenvalues --    1.90567   1.90971   1.91937   1.94089   1.96446
 Alpha virt. eigenvalues --    1.97287   1.97882   1.99079   2.01659   2.01774
 Alpha virt. eigenvalues --    2.04122   2.07086   2.09915   2.10503   2.12239
 Alpha virt. eigenvalues --    2.12765   2.14924   2.17180   2.17465   2.18453
 Alpha virt. eigenvalues --    2.19059   2.20031   2.21484   2.25013   2.25225
 Alpha virt. eigenvalues --    2.25991   2.27998   2.28203   2.28984   2.33494
 Alpha virt. eigenvalues --    2.35345   2.35820   2.36222   2.37362   2.41499
 Alpha virt. eigenvalues --    2.45075   2.45360   2.47410   2.47429   2.49353
 Alpha virt. eigenvalues --    2.51899   2.53255   2.54269   2.55881   2.57330
 Alpha virt. eigenvalues --    2.57475   2.63365   2.63996   2.66970   2.67964
 Alpha virt. eigenvalues --    2.70176   2.70338   2.73069   2.77615   2.82193
 Alpha virt. eigenvalues --    2.82655   2.89542   2.93966   2.97562   3.00898
 Alpha virt. eigenvalues --    3.03081   3.03682   3.12772   3.15952   3.18393
 Alpha virt. eigenvalues --    3.21119   3.21500   3.39067   3.42594   3.46208
 Alpha virt. eigenvalues --    3.46535   3.47925   3.52965   3.57031   3.58391
 Alpha virt. eigenvalues --    3.59661   3.60652   3.62922   3.65614   3.67797
 Alpha virt. eigenvalues --    3.68626   3.69412   3.74747   3.75491   3.78330
 Alpha virt. eigenvalues --    3.78468   3.78739   3.79867   3.85476   3.85942
 Alpha virt. eigenvalues --    3.87217   3.88443   3.88720   3.92151   3.92468
 Alpha virt. eigenvalues --    3.92515   3.93014   3.93696   3.95159   3.97714
 Alpha virt. eigenvalues --    4.00225   4.01347   4.01788   4.02409   4.04277
 Alpha virt. eigenvalues --    4.04518   4.09303   4.11643   4.11660   4.14666
 Alpha virt. eigenvalues --    4.16842   4.20364   4.21005   4.22942   4.23931
 Alpha virt. eigenvalues --    4.24934   4.27203   4.27292   4.29650   4.30268
 Alpha virt. eigenvalues --    4.31644   4.31848   4.34613   4.34706   4.36538
 Alpha virt. eigenvalues --    4.37377   4.39437   4.40238   4.42393   4.46715
 Alpha virt. eigenvalues --    4.48747   4.49144   4.50288   4.54333   4.55386
 Alpha virt. eigenvalues --    4.58042   4.58260   4.64601   4.65238   4.67095
 Alpha virt. eigenvalues --    4.67973   4.68344   4.70208   4.71595   4.74008
 Alpha virt. eigenvalues --    4.77197   4.79730   4.80858   4.81857   4.82783
 Alpha virt. eigenvalues --    4.85062   4.88063   4.88796   4.89084   4.91002
 Alpha virt. eigenvalues --    4.92810   4.94894   4.99352   5.03449   5.04969
 Alpha virt. eigenvalues --    5.06616   5.08904   5.11435   5.12781   5.15301
 Alpha virt. eigenvalues --    5.15523   5.16138   5.18114   5.22578   5.24298
 Alpha virt. eigenvalues --    5.27614   5.27639   5.30723   5.31075   5.35099
 Alpha virt. eigenvalues --    5.36928   5.37476   5.40149   5.40714   5.41552
 Alpha virt. eigenvalues --    5.43811   5.48534   5.50897   5.51166   5.56055
 Alpha virt. eigenvalues --    5.57433   5.63038   5.64792   5.65050   5.65477
 Alpha virt. eigenvalues --    5.66472   5.71293   5.71762   5.76729   5.77032
 Alpha virt. eigenvalues --    5.86159   5.88605   5.89957   5.90743   5.93930
 Alpha virt. eigenvalues --    5.97097   6.01602   6.02959   6.09019   6.10673
 Alpha virt. eigenvalues --    6.11819   6.12862   6.19593   6.20917   6.30710
 Alpha virt. eigenvalues --    6.31941   6.33385   6.36807   6.39951   6.44386
 Alpha virt. eigenvalues --    6.56633   6.60201   6.66643   6.79593   6.79797
 Alpha virt. eigenvalues --    6.83035   6.84866   6.86493   6.87960   6.91396
 Alpha virt. eigenvalues --    6.92627   6.97434   6.99007   6.99429   6.99768
 Alpha virt. eigenvalues --    7.10694   7.24421   7.36611   7.45707   7.46978
 Alpha virt. eigenvalues --    7.55925   7.71572   7.96621   8.09196   8.17284
 Alpha virt. eigenvalues --    8.93191  16.71598  17.71822  18.60182  18.65426
 Alpha virt. eigenvalues --   19.15193
          Condensed to atoms (all electrons):
               1          2          3          4          5          6
     1  O    8.355753   0.219297  -0.014174   0.067301  -0.015714  -0.021342
     2  H    0.219297   0.613014   0.018912   0.007469  -0.003258   0.001655
     3  H   -0.014174   0.018912   0.792830  -0.120124  -0.062186   0.004782
     4  N    0.067301   0.007469  -0.120124   7.732680  -0.051791  -0.093284
     5  C   -0.015714  -0.003258  -0.062186  -0.051791   6.937053  -0.161532
     6  C   -0.021342   0.001655   0.004782  -0.093284  -0.161532   6.917432
     7  C   -0.015714  -0.003255  -0.062218  -0.051724  -0.175393  -0.161505
     8  H   -0.000487  -0.000016   0.003316  -0.140168   0.176586   0.018818
     9  H   -0.001661  -0.001350   0.014006  -0.078653   0.142627   0.001580
    10  H   -0.002744   0.000088   0.014363  -0.045442   0.143002   0.029852
    11  H   -0.000027   0.000532   0.019311  -0.150345   0.017191   0.170153
    12  H   -0.001415  -0.001756   0.002353  -0.063426   0.028881   0.146876
    13  H   -0.001424  -0.001758   0.002368  -0.063465  -0.011284   0.146937
    14  H   -0.000484  -0.000016   0.003297  -0.140072   0.000367   0.018802
    15  H   -0.001661  -0.001348   0.014010  -0.078689   0.027923   0.001586
    16  H   -0.002751   0.000089   0.014368  -0.045448  -0.013487   0.029829
               7          8          9         10         11         12
     1  O   -0.015714  -0.000487  -0.001661  -0.002744  -0.000027  -0.001415
     2  H   -0.003255  -0.000016  -0.001350   0.000088   0.000532  -0.001756
     3  H   -0.062218   0.003316   0.014006   0.014363   0.019311   0.002353
     4  N   -0.051724  -0.140168  -0.078653  -0.045442  -0.150345  -0.063426
     5  C   -0.175393   0.176586   0.142627   0.143002   0.017191   0.028881
     6  C   -0.161505   0.018818   0.001580   0.029852   0.170153   0.146876
     7  C    6.937039   0.000380   0.027867  -0.013489   0.017237  -0.011309
     8  H    0.000380   0.642119  -0.009835  -0.011809   0.004538   0.000063
     9  H    0.027867  -0.009835   0.635521  -0.042909   0.008376   0.006186
    10  H   -0.013489  -0.011809  -0.042909   0.619092   0.001758  -0.010101
    11  H    0.017237   0.004538   0.008376   0.001758   0.689266  -0.030424
    12  H   -0.011309   0.000063   0.006186  -0.010101  -0.030424   0.632022
    13  H    0.028857   0.007426  -0.003673   0.005721  -0.030433  -0.032125
    14  H    0.176505   0.001441  -0.000948   0.002734   0.004538   0.007438
    15  H    0.142630  -0.000949  -0.005843   0.005921   0.008368  -0.003674
    16  H    0.142993   0.002756   0.005899  -0.003417   0.001765   0.005705
              13         14         15         16
     1  O   -0.001424  -0.000484  -0.001661  -0.002751
     2  H   -0.001758  -0.000016  -0.001348   0.000089
     3  H    0.002368   0.003297   0.014010   0.014368
     4  N   -0.063465  -0.140072  -0.078689  -0.045448
     5  C   -0.011284   0.000367   0.027923  -0.013487
     6  C    0.146937   0.018802   0.001586   0.029829
     7  C    0.028857   0.176505   0.142630   0.142993
     8  H    0.007426   0.001441  -0.000949   0.002756
     9  H   -0.003673  -0.000948  -0.005843   0.005899
    10  H    0.005721   0.002734   0.005921  -0.003417
    11  H   -0.030433   0.004538   0.008368   0.001765
    12  H   -0.032125   0.007438  -0.003674   0.005705
    13  H    0.632040   0.000047   0.006208  -0.010112
    14  H    0.000047   0.642089  -0.009889  -0.011736
    15  H    0.006208  -0.009889   0.635613  -0.042919
    16  H   -0.010112  -0.011736  -0.042919   0.619040
 Mulliken charges:
               1
     1  O   -0.562753
     2  H    0.151701
     3  H    0.354787
     4  N    0.315181
     5  C   -0.978988
     6  C   -1.050641
     7  C   -0.978900
     8  H    0.305820
     9  H    0.302812
    10  H    0.307382
    11  H    0.268195
    12  H    0.324707
    13  H    0.324670
    14  H    0.305888
    15  H    0.302714
    16  H    0.307426
 Sum of Mulliken charges =  -0.00000
 Mulliken charges with hydrogens summed into heavy atoms:
               1
     1  O   -0.056266
     4  N    0.315181
     5  C   -0.062974
     6  C   -0.133068
     7  C   -0.062872
 APT charges:
               1
     1  O   -0.676804
     2  H    0.233322
     3  H    0.444657
     4  N   -0.682443
     5  C    0.298950
     6  C    0.291806
     7  C    0.298913
     8  H   -0.063166
     9  H   -0.009795
    10  H   -0.002219
    11  H   -0.061767
    12  H    0.001854
    13  H    0.001848
    14  H   -0.063146
    15  H   -0.009784
    16  H   -0.002226
 Sum of APT charges =  -0.00000
 APT charges with hydrogens summed into heavy atoms:
               1
     1  O    0.001175
     4  N   -0.682443
     5  C    0.223771
     6  C    0.233740
     7  C    0.223758
 Electronic spatial extent (au):  <R**2>=            619.0825
 Charge=             -0.0000 electrons
 Dipole moment (field-independent basis, Debye):
    X=              2.6551    Y=              0.0017    Z=              1.1382  Tot=              2.8888
 Quadrupole moment (field-independent basis, Debye-Ang):
   XX=            -40.4553   YY=            -33.9056   ZZ=            -31.6613
   XY=             -0.0054   XZ=             -3.4654   YZ=              0.0029
 Traceless Quadrupole moment (field-independent basis, Debye-Ang):
   XX=             -5.1146   YY=              1.4351   ZZ=              3.6794
   XY=             -0.0054   XZ=             -3.4654   YZ=              0.0029
 Octapole moment (field-independent basis, Debye-Ang**2):
  XXX=              2.5029  YYY=             -0.0026  ZZZ=              4.6498  XYY=             -1.2237
  XXY=              0.0173  XXZ=             13.0761  XZZ=             -7.8724  YZZ=              0.0069
  YYZ=             -0.1506  XYZ=             -0.0082
 Hexadecapole moment (field-independent basis, Debye-Ang**3):
 XXXX=           -444.1234 YYYY=           -196.3736 ZZZZ=           -186.9098 XXXY=             -0.0588
 XXXZ=            -43.6258 YYYX=              0.0039 YYYZ=             -0.0031 ZZZX=             -5.4954
 ZZZY=              0.0100 XXYY=           -112.4851 XXZZ=            -90.2547 YYZZ=            -65.2487
 XXYZ=              0.0253 YYXZ=              1.2525 ZZXY=             -0.0112
 N-N= 2.017104210868D+02 E-N=-9.881110188326D+02  KE= 2.502257929480D+02
  Exact polarizability:  62.153  -0.000  58.452  -0.125   0.001  58.579
 Approx polarizability:  48.522  -0.000  46.866  -0.400   0.002  48.080
 Calling FoFJK, ICntrl=  10100127 FMM=F ISym2X=0 I1Cent= 0 IOpClX= 0 NMat=1 NMatS=1 NMatT=0.
 -------------------------------------------------------------------
 Center     Atomic                   Forces (Hartrees/Bohr)
 Number     Number              X              Y              Z
 -------------------------------------------------------------------
      1        8           0.000156161    0.000000807    0.000017443
      2        1           0.000007155    0.000000065    0.000000226
      3        1          -0.000134641   -0.000001925   -0.000020464
      4        7          -0.000230096   -0.000000966   -0.000087849
      5        6          -0.003023828   -0.000864947    0.000445325
      6        6           0.001315384   -0.000000347   -0.000911525
      7        6          -0.003063658    0.000878800    0.000453275
      8        1           0.003784748    0.000148680   -0.001097489
      9        1          -0.000134336   -0.000001742    0.001009293
     10        1          -0.000549094    0.000818940   -0.000329053
     11        1          -0.001903326    0.000000582    0.000574810
     12        1           0.000318395   -0.000480614    0.000183029
     13        1           0.000318453    0.000482290    0.000182463
     14        1           0.003829496   -0.000152720   -0.001109830
     15        1          -0.000137320    0.000003214    0.001022394
     16        1          -0.000553494   -0.000830115   -0.000332047
 -------------------------------------------------------------------
 Cartesian Forces:  Max     0.003829496 RMS     0.001150752
 NDeriv=     42 NFrqRd=  0 NDerD0=      0 MskFDP=       0 MskDFD=       0 MskDF0=       0
 Re-enter D2Numr:  normal mode  33 step-up   number 1
 Standard basis: Aug-CC-pVTZ (5D, 7F)
   483 basis functions,   657 primitive gaussians,   550 cartesian basis functions
    22 alpha electrons       22 beta electrons
       nuclear repulsion energy       201.6085491445 Hartrees.
 NAtoms=   16 NActive=   16 NUniq=   16 SFac= 1.00D+00 NAtFMM=   60 NAOKFM=F Big=F
 Integral buffers will be    131072 words long.
 Raffenetti 1 integral format.
 Two-electron integral symmetry is turned off.
 One-electron integrals computed using PRISM.
 NBasis=   483 RedAO= T EigKep=  3.78D-06  NBF=   483
 NBsUse=   483 1.00D-06 EigRej= -1.00D+00 NBFU=   483
 Initial guess from the checkpoint file:  "/gscratch/scrubbed/gds001/Gau-3797.chk"
 B after Tr=     0.000155   -0.000000    0.000004
         Rot=    1.000000   -0.000000   -0.000018   -0.000000 Ang=  -0.00 deg.
 Requested convergence on RMS density matrix=1.00D-08 within 128 cycles.
 Requested convergence on MAX density matrix=1.00D-06.
 Requested convergence on             energy=1.00D-06.
 No special actions if energy rises.
 SCF Done:  E(RHF) =  -249.400713471     A.U. after    8 cycles
            NFock=  8  Conv=0.40D-08     -V/T= 2.0013
 ExpMin= 2.53D-02 ExpMax= 1.53D+04 ExpMxC= 5.22D+02 IAcc=3 IRadAn=         5 AccDes= 0.00D+00
 HarFok:  IExCor=  205 AccDes= 0.00D+00 IRadAn=         5 IDoV=-2 UseB2=F ITyADJ=14
 ICtDFT= 12500011 ScaDFX=  1.000000  1.000000  1.000000  1.000000
 Range of M.O.s used for correlation:     6   483
 NBasis=   483 NAE=    22 NBE=    22 NFC=     5 NFV=     0
 NROrb=    478 NOA=    17 NOB=    17 NVA=   461 NVB=   461

 **** Warning!!: The largest alpha MO coefficient is  0.13020644D+03

 Disk-based method using ON**2 memory for 17 occupieds at a time.
 Permanent disk used for amplitudes=   127353094 words.
 Estimated scratch disk usage=  5007340016 words.
 Actual    scratch disk usage=  4890423792 words.
 JobTyp=1 Pass  1:  I=   6 to  22 NPSUse= 28 ParTrn=T ParDer=T DoDerP=T.
 Spin components of T(2) and E(2):
     alpha-alpha T2 =       0.3589802988D-01 E2=     -0.1190504082D+00
     alpha-beta  T2 =       0.2226587454D+00 E2=     -0.8047030862D+00
     beta-beta   T2 =       0.3589802988D-01 E2=     -0.1190504082D+00
 ANorm=    0.1137741098D+01
 E2 =    -0.1042803903D+01 EUMP2 =    -0.25044351737381D+03
 G2DrvN: will do    17 centers at a time, making    1 passes.
 Calling FoFCou, ICntrl=  3107 FMM=F I1Cent=   0 AccDes= 0.00D+00.
 End of G2Drv F.D. properties file   721 does not exist.
 End of G2Drv F.D. properties file   722 does not exist.
 End of G2Drv F.D. properties file   788 does not exist.
          IDoAtm=1111111111111111
          Differentiating once with respect to electric field.
                with respect to dipole field.
          Differentiating once with respect to nuclear coordinates.
          There are    51 degrees of freedom in the 1st order CPHF.  IDoFFX=6 NUNeed=    51.
     48 vectors produced by pass  0 Test12= 1.99D-14 1.96D-09 XBig12= 1.41D+01 6.69D-01.
 AX will form    48 AO Fock derivatives at one time.
     48 vectors produced by pass  1 Test12= 1.99D-14 1.96D-09 XBig12= 5.25D-01 1.16D-01.
