 Entering Gaussian System, Link 0=g16
 Input=h2o_ome2_mp2_avtz_opt_anharm.gjf
 Output=h2o_ome2_mp2_avtz_opt_anharm.log
 Initial command:
 /sw/contrib/gaussian/g16/A03/g16/l1.exe "/gscratch/scrubbed/gds001/Gau-29508.inp" -scrdir="/gscratch/scrubbed/gds001/"
 Entering Link 1 = /sw/contrib/gaussian/g16/A03/g16/l1.exe PID=     29509.
  
 Copyright (c) 1988,1990,1992,1993,1995,1998,2003,2009,2016,
            Gaussian, Inc.  All Rights Reserved.
  
 This is part of the Gaussian(R) 16 program.  It is based on
 the Gaussian(R) 09 system (copyright 2009, Gaussian, Inc.),
 the Gaussian(R) 03 system (copyright 2003, Gaussian, Inc.),
 the Gaussian(R) 98 system (copyright 1998, Gaussian, Inc.),
 the Gaussian(R) 94 system (copyright 1995, Gaussian, Inc.),
 the Gaussian 92(TM) system (copyright 1992, Gaussian, Inc.),
 the Gaussian 90(TM) system (copyright 1990, Gaussian, Inc.),
 the Gaussian 88(TM) system (copyright 1988, Gaussian, Inc.),
 the Gaussian 86(TM) system (copyright 1986, Carnegie Mellon
 University), and the Gaussian 82(TM) system (copyright 1983,
 Carnegie Mellon University). Gaussian is a federally registered
 trademark of Gaussian, Inc.
  
 This software contains proprietary and confidential information,
 including trade secrets, belonging to Gaussian, Inc.
  
 This software is provided under written license and may be
 used, copied, transmitted, or stored only in accord with that
 written license.
  
 The following legend is applicable only to US Government
 contracts under FAR:
  
                    RESTRICTED RIGHTS LEGEND
  
 Use, reproduction and disclosure by the US Government is
 subject to restrictions as set forth in subparagraphs (a)
 and (c) of the Commercial Computer Software - Restricted
 Rights clause in FAR 52.227-19.
  
 Gaussian, Inc.
 340 Quinnipiac St., Bldg. 40, Wallingford CT 06492
  
  
 ---------------------------------------------------------------
 Warning -- This program may not be used in any manner that
 competes with the business of Gaussian, Inc. or will provide
 assistance to any competitor of Gaussian, Inc.  The licensee
 of this program is prohibited from giving any competitor of
 Gaussian, Inc. access to this program.  By using this program,
 the user acknowledges that Gaussian, Inc. is engaged in the
 business of creating and licensing software in the field of
 computational chemistry and represents and warrants to the
 licensee that it is not a competitor of Gaussian, Inc. and that
 it will not use this program in any manner prohibited above.
 ---------------------------------------------------------------
  

 Cite this work as:
 Gaussian 16, Revision A.03,
 M. J. Frisch, G. W. Trucks, H. B. Schlegel, G. E. Scuseria, 
 M. A. Robb, J. R. Cheeseman, G. Scalmani, V. Barone, 
 G. A. Petersson, H. Nakatsuji, X. Li, M. Caricato, A. V. Marenich, 
 J. Bloino, B. G. Janesko, R. Gomperts, B. Mennucci, H. P. Hratchian, 
 J. V. Ortiz, A. F. Izmaylov, J. L. Sonnenberg, D. Williams-Young, 
 F. Ding, F. Lipparini, F. Egidi, J. Goings, B. Peng, A. Petrone, 
 T. Henderson, D. Ranasinghe, V. G. Zakrzewski, J. Gao, N. Rega, 
 G. Zheng, W. Liang, M. Hada, M. Ehara, K. Toyota, R. Fukuda, 
 J. Hasegawa, M. Ishida, T. Nakajima, Y. Honda, O. Kitao, H. Nakai, 
 T. Vreven, K. Throssell, J. A. Montgomery, Jr., J. E. Peralta, 
 F. Ogliaro, M. J. Bearpark, J. J. Heyd, E. N. Brothers, K. N. Kudin, 
 V. N. Staroverov, T. A. Keith, R. Kobayashi, J. Normand, 
 K. Raghavachari, A. P. Rendell, J. C. Burant, S. S. Iyengar, 
 J. Tomasi, M. Cossi, J. M. Millam, M. Klene, C. Adamo, R. Cammi, 
 J. W. Ochterski, R. L. Martin, K. Morokuma, O. Farkas, 
 J. B. Foresman, and D. J. Fox, Gaussian, Inc., Wallingford CT, 2016.
 
 ******************************************
 Gaussian 16:  ES64L-G16RevA.03 25-Dec-2016
                20-Dec-2021 
 ******************************************
 %nprocshared=28
 Will use up to   28 processors via shared memory.
 %mem=41GB
 ----------------------------------------------
 # MP2/aug-cc-pVTZ opt freq=(vibrot,anharmonic)
 ----------------------------------------------
 1/18=20,19=15,38=1,80=1/1,3;
 2/9=110,12=2,17=6,18=5,40=1/2;
 3/5=16,6=1,7=10,11=9,25=1,30=1,71=1/1,2,3;
 4//1;
 5/5=2,38=5/2;
 8/6=4,10=1/1;
 9/15=2,16=-3/6;
 10/5=1/2;
 6/7=2,8=2,9=2,10=2/1;
 7/12=2/1,2,3,16;
 1/18=20,19=15,80=1/3(2);
 2/9=110/2;
 99//99;
 2/9=110/2;
 3/5=16,6=1,7=10,11=9,25=1,30=1,71=1/1,2,3;
 4/5=5,16=3,69=1/1;
 5/5=2,38=5/2;
 8/6=4,10=1/1;
 9/15=2,16=-3/6;
 10/5=1/2;
 7/12=2/1,2,3,16;
 1/18=20,19=15,80=1/3(-8);
 2/9=110/2;
 6/7=2,8=2,9=2,10=2/1;
 99//99;
 ----
 bleh
 ----
 Symbolic Z-matrix:
 Charge =  0 Multiplicity = 1
 C                    -0.93564  -1.17733   0.15743 
 O                    -0.52848  -0.00009  -0.55012 
 H                    -2.0351   -1.20861   0.25578 
 H                    -0.47588  -1.20791   1.16127 
 H                    -0.59344  -2.03936  -0.42937 
 C                    -0.93552   1.17736   0.15715 
 H                    -0.59447   2.0392   -0.43057 
 H                    -0.47465   1.20879   1.16047 
 H                    -2.03489   1.20807   0.25673 
 O                     2.18704   0.00055   0.17074 
 H                     1.32545  -0.00023  -0.28861 
 H                     2.84146  -0.00378  -0.53814 
 
 Add virtual bond connecting atoms H11        and O2         Dist= 3.54D+00.

 GradGradGradGradGradGradGradGradGradGradGradGradGradGradGradGradGradGrad
 Berny optimization.
 Initialization pass.
                           ----------------------------
                           !    Initial Parameters    !
                           ! (Angstroms and Degrees)  !
 --------------------------                            --------------------------
 ! Name  Definition              Value          Derivative Info.                !
 --------------------------------------------------------------------------------
 ! R1    R(1,2)                  1.4326         estimate D2E/DX2                !
 ! R2    R(1,3)                  1.1043         estimate D2E/DX2                !
 ! R3    R(1,4)                  1.1045         estimate D2E/DX2                !
 ! R4    R(1,5)                  1.0975         estimate D2E/DX2                !
 ! R5    R(2,6)                  1.4326         estimate D2E/DX2                !
 ! R6    R(2,11)                 1.8723         estimate D2E/DX2                !
 ! R7    R(6,7)                  1.0975         estimate D2E/DX2                !
 ! R8    R(6,8)                  1.1045         estimate D2E/DX2                !
 ! R9    R(6,9)                  1.1043         estimate D2E/DX2                !
 ! R10   R(10,11)                0.9764         estimate D2E/DX2                !
 ! R11   R(10,12)                0.9648         estimate D2E/DX2                !
 ! A1    A(2,1,3)              110.5016         estimate D2E/DX2                !
 ! A2    A(2,1,4)              110.6906         estimate D2E/DX2                !
 ! A3    A(2,1,5)              107.0237         estimate D2E/DX2                !
 ! A4    A(3,1,4)              109.4321         estimate D2E/DX2                !
 ! A5    A(3,1,5)              109.6214         estimate D2E/DX2                !
 ! A6    A(4,1,5)              109.5351         estimate D2E/DX2                !
 ! A7    A(1,2,6)              110.5372         estimate D2E/DX2                !
 ! A8    A(1,2,11)             102.2618         estimate D2E/DX2                !
 ! A9    A(6,2,11)             102.2659         estimate D2E/DX2                !
 ! A10   A(2,6,7)              107.0225         estimate D2E/DX2                !
 ! A11   A(2,6,8)              110.6887         estimate D2E/DX2                !
 ! A12   A(2,6,9)              110.502          estimate D2E/DX2                !
 ! A13   A(7,6,8)              109.5374         estimate D2E/DX2                !
 ! A14   A(7,6,9)              109.6221         estimate D2E/DX2                !
 ! A15   A(8,6,9)              109.4318         estimate D2E/DX2                !
 ! A16   A(11,10,12)           104.6482         estimate D2E/DX2                !
 ! A17   A(2,11,10)            159.9654         estimate D2E/DX2                !
 ! D1    D(3,1,2,6)             60.9099         estimate D2E/DX2                !
 ! D2    D(3,1,2,11)           169.1852         estimate D2E/DX2                !
 ! D3    D(4,1,2,6)            -60.4824         estimate D2E/DX2                !
 ! D4    D(4,1,2,11)            47.7929         estimate D2E/DX2                !
 ! D5    D(5,1,2,6)           -179.7873         estimate D2E/DX2                !
 ! D6    D(5,1,2,11)           -71.512          estimate D2E/DX2                !
 ! D7    D(1,2,6,7)            179.8652         estimate D2E/DX2                !
 ! D8    D(1,2,6,8)             60.5594         estimate D2E/DX2                !
 ! D9    D(1,2,6,9)            -60.8316         estimate D2E/DX2                !
 ! D10   D(11,2,6,7)            71.5926         estimate D2E/DX2                !
 ! D11   D(11,2,6,8)           -47.7133         estimate D2E/DX2                !
 ! D12   D(11,2,6,9)          -169.1042         estimate D2E/DX2                !
 ! D13   D(1,2,11,10)          -57.3871         estimate D2E/DX2                !
 ! D14   D(6,2,11,10)           57.1098         estimate D2E/DX2                !
 ! D15   D(12,10,11,2)         179.8604         estimate D2E/DX2                !
 --------------------------------------------------------------------------------
 Trust Radius=3.00D-01 FncErr=1.00D-07 GrdErr=1.00D-07 EigMax=2.50D+02 EigMin=1.00D-04
 Number of steps in this run=     53 maximum allowed number of steps=    100.
 GradGradGradGradGradGradGradGradGradGradGradGradGradGradGradGradGradGrad

                          Input orientation:                          
 ---------------------------------------------------------------------
 Center     Atomic      Atomic             Coordinates (Angstroms)
 Number     Number       Type             X           Y           Z
 ---------------------------------------------------------------------
      1          6           0       -0.935637   -1.177329    0.157426
      2          8           0       -0.528478   -0.000091   -0.550121
      3          1           0       -2.035103   -1.208606    0.255782
      4          1           0       -0.475879   -1.207912    1.161274
      5          1           0       -0.593440   -2.039363   -0.429365
      6          6           0       -0.935520    1.177357    0.157152
      7          1           0       -0.594465    2.039204   -0.430569
      8          1           0       -0.474654    1.208786    1.160467
      9          1           0       -2.034893    1.208071    0.256727
     10          8           0        2.187037    0.000548    0.170741
     11          1           0        1.325445   -0.000232   -0.288606
     12          1           0        2.841459   -0.003781   -0.538143
 ---------------------------------------------------------------------
                    Distance matrix (angstroms):
                    1          2          3          4          5
     1  C    0.000000
     2  O    1.432582   0.000000
     3  H    1.104300   2.092823   0.000000
     4  H    1.104547   2.095345   1.803080   0.000000
     5  H    1.097509   2.043877   1.799438   1.798684   0.000000
     6  C    2.354686   1.432586   2.628998   2.628505   3.287599
     7  H    3.287586   2.043862   3.618672   3.618258   4.078567
     8  H    2.629095   2.095326   3.016163   2.416698   3.618307
     9  H    2.628375   2.092832   2.416677   3.014250   3.618610
    10  O    3.337464   2.809567   4.392693   3.087499   3.500345
    11  H    2.587855   1.872277   3.612452   2.608718   2.803567
    12  H    4.015904   3.369960   5.085546   3.916973   3.994241
                    6          7          8          9         10
     6  C    0.000000
     7  H    1.097504   0.000000
     8  H    1.104548   1.798706   0.000000
     9  H    1.104300   1.799442   1.803079   0.000000
    10  O    3.336979   3.500635   3.086097   4.392061   0.000000
    11  H    2.587929   2.804551   2.608044   3.612375   0.976392
    12  H    4.017971   3.998867   3.918188   5.087162   0.964782
                   11         12
    11  H    0.000000
    12  H    1.536418   0.000000
 Stoichiometry    C2H8O2
 Framework group  C1[X(C2H8O2)]
 Deg. of freedom    30
 Full point group                 C1      NOp   1
 Largest Abelian subgroup         C1      NOp   1
 Largest concise Abelian subgroup C1      NOp   1
                         Standard orientation:                         
 ---------------------------------------------------------------------
 Center     Atomic      Atomic             Coordinates (Angstroms)
 Number     Number       Type             X           Y           Z
 ---------------------------------------------------------------------
      1          6           0       -0.935637   -1.177329    0.157426
      2          8           0       -0.528478   -0.000091   -0.550121
      3          1           0       -2.035103   -1.208606    0.255782
      4          1           0       -0.475879   -1.207912    1.161274
      5          1           0       -0.593440   -2.039363   -0.429365
      6          6           0       -0.935520    1.177357    0.157152
      7          1           0       -0.594465    2.039204   -0.430569
      8          1           0       -0.474654    1.208786    1.160467
      9          1           0       -2.034893    1.208071    0.256727
     10          8           0        2.187037    0.000548    0.170741
     11          1           0        1.325445   -0.000232   -0.288606
     12          1           0        2.841459   -0.003781   -0.538143
 ---------------------------------------------------------------------
 Rotational constants (GHZ):           8.8817640           3.8632912           2.9906465
 Standard basis: Aug-CC-pVTZ (5D, 7F)
 There are   420 symmetry adapted cartesian basis functions of A   symmetry.
 There are   368 symmetry adapted basis functions of A   symmetry.
   368 basis functions,   504 primitive gaussians,   420 cartesian basis functions
    18 alpha electrons       18 beta electrons
       nuclear repulsion energy       135.9014138783 Hartrees.
 NAtoms=   12 NActive=   12 NUniq=   12 SFac= 1.00D+00 NAtFMM=   60 NAOKFM=F Big=F
 Integral buffers will be    131072 words long.
 Raffenetti 1 integral format.
 Two-electron integral symmetry is turned on.
 One-electron integrals computed using PRISM.
 NBasis=   368 RedAO= T EigKep=  1.97D-05  NBF=   368
 NBsUse=   368 1.00D-06 EigRej= -1.00D+00 NBFU=   368
 ExpMin= 2.53D-02 ExpMax= 1.53D+04 ExpMxC= 5.22D+02 IAcc=3 IRadAn=         5 AccDes= 0.00D+00
 Harris functional with IExCor=  205 and IRadAn=       5 diagonalized for initial guess.
 HarFok:  IExCor=  205 AccDes= 0.00D+00 IRadAn=         5 IDoV= 1 UseB2=F ITyADJ=14
 ICtDFT=  3500011 ScaDFX=  1.000000  1.000000  1.000000  1.000000
 FoFCou: FMM=F IPFlag=           0 FMFlag=      100000 FMFlg1=           0
         NFxFlg=           0 DoJE=T BraDBF=F KetDBF=T FulRan=T
         wScrn=  0.000000 ICntrl=       500 IOpCl=  0 I1Cent=   200000004 NGrid=           0
         NMat0=    1 NMatS0=      1 NMatT0=    0 NMatD0=    1 NMtDS0=    0 NMtDT0=    0
 Petite list used in FoFCou.
 Keep R1 ints in memory in canonical form, NReq=2342278159.
 Requested convergence on RMS density matrix=1.00D-08 within 128 cycles.
 Requested convergence on MAX density matrix=1.00D-06.
 Requested convergence on             energy=1.00D-06.
 No special actions if energy rises.
 SCF Done:  E(RHF) =  -230.190508880     A.U. after   11 cycles
            NFock= 11  Conv=0.47D-08     -V/T= 2.0021
 ExpMin= 2.53D-02 ExpMax= 1.53D+04 ExpMxC= 5.22D+02 IAcc=3 IRadAn=         5 AccDes= 0.00D+00
 HarFok:  IExCor=  205 AccDes= 0.00D+00 IRadAn=         5 IDoV=-2 UseB2=F ITyADJ=14
 ICtDFT= 12500011 ScaDFX=  1.000000  1.000000  1.000000  1.000000
 Range of M.O.s used for correlation:     5   368
 NBasis=   368 NAE=    18 NBE=    18 NFC=     4 NFV=     0
 NROrb=    364 NOA=    14 NOB=    14 NVA=   350 NVB=   350

 **** Warning!!: The largest alpha MO coefficient is  0.38309560D+02

 Disk-based method using ON**2 memory for 14 occupieds at a time.
 Estimated scratch disk usage=  1900028672 words.
 Actual    scratch disk usage=  1788879616 words.
 JobTyp=1 Pass  1:  I=   5 to  18 NPSUse= 28 ParTrn=T ParDer=T DoDerP=T.
 (rs|ai) integrals will be sorted in core.
 Spin components of T(2) and E(2):
     alpha-alpha T2 =       0.2858909417D-01 E2=     -0.1026483527D+00
     alpha-beta  T2 =       0.1775461916D+00 E2=     -0.6805626395D+00
     beta-beta   T2 =       0.2858909417D-01 E2=     -0.1026483527D+00
 ANorm=    0.1111181524D+01
 E2 =    -0.8858593448D+00 EUMP2 =    -0.23107636822521D+03
          IDoAtm=111111111111
          Differentiating once with respect to electric field.
                with respect to dipole field.
          Differentiating once with respect to nuclear coordinates.
 Keep R1 ints in memory in canonical form, NReq=2342280375.
          There are     1 degrees of freedom in the 1st order CPHF.  IDoFFX=0 NUNeed=     1.
 LinEq1:  Iter=  0 NonCon=     1 RMS=2.42D-03 Max=3.37D-02 NDo=     1
 AX will form     1 AO Fock derivatives at one time.
 LinEq1:  Iter=  1 NonCon=     1 RMS=5.32D-04 Max=9.42D-03 NDo=     1
 LinEq1:  Iter=  2 NonCon=     1 RMS=1.74D-04 Max=1.99D-03 NDo=     1
 LinEq1:  Iter=  3 NonCon=     1 RMS=6.81D-05 Max=9.19D-04 NDo=     1
 LinEq1:  Iter=  4 NonCon=     1 RMS=2.15D-05 Max=2.56D-04 NDo=     1
 LinEq1:  Iter=  5 NonCon=     1 RMS=3.83D-06 Max=7.21D-05 NDo=     1
 LinEq1:  Iter=  6 NonCon=     1 RMS=8.48D-07 Max=1.11D-05 NDo=     1
 LinEq1:  Iter=  7 NonCon=     1 RMS=2.90D-07 Max=3.71D-06 NDo=     1
 LinEq1:  Iter=  8 NonCon=     1 RMS=9.54D-08 Max=1.38D-06 NDo=     1
 LinEq1:  Iter=  9 NonCon=     1 RMS=1.87D-08 Max=2.40D-07 NDo=     1
 LinEq1:  Iter= 10 NonCon=     1 RMS=3.24D-09 Max=4.65D-08 NDo=     1
 LinEq1:  Iter= 11 NonCon=     1 RMS=3.98D-10 Max=4.42D-09 NDo=     1
 LinEq1:  Iter= 12 NonCon=     0 RMS=6.55D-11 Max=6.54D-10 NDo=     1
 Linear equations converged to 1.000D-10 1.000D-09 after    12 iterations.
 End of Minotr F.D. properties file   721 does not exist.
 End of Minotr F.D. properties file   722 does not exist.
 End of Minotr F.D. properties file   788 does not exist.

 **********************************************************************

            Population analysis using the SCF density.

 **********************************************************************

 Orbital symmetries:
       Occupied  (A) (A) (A) (A) (A) (A) (A) (A) (A) (A) (A) (A)
                 (A) (A) (A) (A) (A) (A)
       Virtual   (A) (A) (A) (A) (A) (A) (A) (A) (A) (A) (A) (A)
                 (A) (A) (A) (A) (A) (A) (A) (A) (A) (A) (A) (A)
                 (A) (A) (A) (A) (A) (A) (A) (A) (A) (A) (A) (A)
                 (A) (A) (A) (A) (A) (A) (A) (A) (A) (A) (A) (A)
                 (A) (A) (A) (A) (A) (A) (A) (A) (A) (A) (A) (A)
                 (A) (A) (A) (A) (A) (A) (A) (A) (A) (A) (A) (A)
                 (A) (A) (A) (A) (A) (A) (A) (A) (A) (A) (A) (A)
                 (A) (A) (A) (A) (A) (A) (A) (A) (A) (A) (A) (A)
                 (A) (A) (A) (A) (A) (A) (A) (A) (A) (A) (A) (A)
                 (A) (A) (A) (A) (A) (A) (A) (A) (A) (A) (A) (A)
                 (A) (A) (A) (A) (A) (A) (A) (A) (A) (A) (A) (A)
                 (A) (A) (A) (A) (A) (A) (A) (A) (A) (A) (A) (A)
                 (A) (A) (A) (A) (A) (A) (A) (A) (A) (A) (A) (A)
                 (A) (A) (A) (A) (A) (A) (A) (A) (A) (A) (A) (A)
                 (A) (A) (A) (A) (A) (A) (A) (A) (A) (A) (A) (A)
                 (A) (A) (A) (A) (A) (A) (A) (A) (A) (A) (A) (A)
                 (A) (A) (A) (A) (A) (A) (A) (A) (A) (A) (A) (A)
                 (A) (A) (A) (A) (A) (A) (A) (A) (A) (A) (A) (A)
                 (A) (A) (A) (A) (A) (A) (A) (A) (A) (A) (A) (A)
                 (A) (A) (A) (A) (A) (A) (A) (A) (A) (A) (A) (A)
                 (A) (A) (A) (A) (A) (A) (A) (A) (A) (A) (A) (A)
                 (A) (A) (A) (A) (A) (A) (A) (A) (A) (A) (A) (A)
                 (A) (A) (A) (A) (A) (A) (A) (A) (A) (A) (A) (A)
                 (A) (A) (A) (A) (A) (A) (A) (A) (A) (A) (A) (A)
                 (A) (A) (A) (A) (A) (A) (A) (A) (A) (A) (A) (A)
                 (A) (A) (A) (A) (A) (A) (A) (A) (A) (A) (A) (A)
                 (A) (A) (A) (A) (A) (A) (A) (A) (A) (A) (A) (A)
                 (A) (A) (A) (A) (A) (A) (A) (A) (A) (A) (A) (A)
                 (A) (A) (A) (A) (A) (A) (A) (A) (A) (A) (A) (A)
                 (A) (A)
 The electronic state is 1-A.
 Alpha  occ. eigenvalues --  -20.57604 -20.53826 -11.28248 -11.28245  -1.38108
 Alpha  occ. eigenvalues --   -1.31968  -0.97208  -0.88472  -0.70534  -0.65839
 Alpha  occ. eigenvalues --   -0.64925  -0.64252  -0.55871  -0.55860  -0.53317
 Alpha  occ. eigenvalues --   -0.49739  -0.48227  -0.44250
 Alpha virt. eigenvalues --    0.02850   0.03875   0.03974   0.04943   0.05794
 Alpha virt. eigenvalues --    0.06091   0.06731   0.08642   0.10434   0.12197
 Alpha virt. eigenvalues --    0.12606   0.13467   0.14076   0.15283   0.15665
 Alpha virt. eigenvalues --    0.15760   0.17210   0.18153   0.18845   0.19689
 Alpha virt. eigenvalues --    0.20818   0.21156   0.22460   0.23058   0.25351
 Alpha virt. eigenvalues --    0.26805   0.28861   0.29672   0.30025   0.30562
 Alpha virt. eigenvalues --    0.31473   0.31779   0.33604   0.34356   0.34669
 Alpha virt. eigenvalues --    0.34950   0.36100   0.36695   0.37522   0.38039
 Alpha virt. eigenvalues --    0.39654   0.39791   0.40261   0.40970   0.41761
 Alpha virt. eigenvalues --    0.42233   0.43053   0.44224   0.45519   0.45532
 Alpha virt. eigenvalues --    0.45917   0.46186   0.47200   0.47502   0.49626
 Alpha virt. eigenvalues --    0.49727   0.50143   0.50621   0.52366   0.53700
 Alpha virt. eigenvalues --    0.54111   0.55612   0.55654   0.58269   0.58306
 Alpha virt. eigenvalues --    0.59634   0.62949   0.63580   0.67134   0.69056
 Alpha virt. eigenvalues --    0.70573   0.72021   0.75706   0.77198   0.77743
 Alpha virt. eigenvalues --    0.78873   0.79648   0.80905   0.81535   0.82048
 Alpha virt. eigenvalues --    0.83213   0.83991   0.85291   0.85550   0.86424
 Alpha virt. eigenvalues --    0.89547   0.89742   0.90032   0.92173   0.93193
 Alpha virt. eigenvalues --    0.93830   0.94926   0.95403   0.95776   0.96548
 Alpha virt. eigenvalues --    0.97215   0.98547   0.99732   1.00363   1.00500
 Alpha virt. eigenvalues --    1.01587   1.01927   1.04162   1.07212   1.07969
 Alpha virt. eigenvalues --    1.08097   1.08597   1.10071   1.11097   1.12062
 Alpha virt. eigenvalues --    1.13535   1.14962   1.17255   1.18281   1.18600
 Alpha virt. eigenvalues --    1.19630   1.21111   1.22310   1.22398   1.23114
 Alpha virt. eigenvalues --    1.24177   1.26387   1.26812   1.27070   1.29307
 Alpha virt. eigenvalues --    1.31169   1.31644   1.33391   1.36546   1.36635
 Alpha virt. eigenvalues --    1.38594   1.40419   1.41549   1.42988   1.46830
 Alpha virt. eigenvalues --    1.47220   1.48872   1.49880   1.50163   1.53911
 Alpha virt. eigenvalues --    1.57089   1.57285   1.59081   1.61855   1.63068
 Alpha virt. eigenvalues --    1.63674   1.64570   1.65075   1.67089   1.67712
 Alpha virt. eigenvalues --    1.69550   1.69560   1.71001   1.71610   1.73700
 Alpha virt. eigenvalues --    1.74891   1.77454   1.78228   1.80452   1.80504
 Alpha virt. eigenvalues --    1.83813   1.83934   1.88210   1.89485   1.90289
 Alpha virt. eigenvalues --    1.91051   1.95280   1.96242   2.01477   2.03107
 Alpha virt. eigenvalues --    2.03111   2.05014   2.05835   2.13899   2.14235
 Alpha virt. eigenvalues --    2.15210   2.17111   2.17594   2.19952   2.20453
 Alpha virt. eigenvalues --    2.20739   2.26455   2.28133   2.30814   2.32014
 Alpha virt. eigenvalues --    2.37013   2.41368   2.42891   2.47371   2.50285
 Alpha virt. eigenvalues --    2.52131   2.54325   2.59289   2.63305   2.66823
 Alpha virt. eigenvalues --    2.68183   2.70399   2.71546   2.75877   2.77374
 Alpha virt. eigenvalues --    2.78902   2.83256   2.85455   2.87527   2.92880
 Alpha virt. eigenvalues --    3.00019   3.02422   3.04427   3.07951   3.07987
 Alpha virt. eigenvalues --    3.09865   3.15265   3.26565   3.27349   3.28888
 Alpha virt. eigenvalues --    3.33840   3.39863   3.42616   3.50159   3.52268
 Alpha virt. eigenvalues --    3.58669   3.59949   3.61345   3.61840   3.67779
 Alpha virt. eigenvalues --    3.70517   3.71716   3.75998   3.77612   3.79476
 Alpha virt. eigenvalues --    3.79976   3.82206   3.82877   3.88930   3.89461
 Alpha virt. eigenvalues --    3.92360   3.97320   3.97751   4.01171   4.01303
 Alpha virt. eigenvalues --    4.04788   4.06406   4.10665   4.13016   4.13725
 Alpha virt. eigenvalues --    4.15322   4.16597   4.18397   4.19099   4.22159
 Alpha virt. eigenvalues --    4.22523   4.27056   4.28852   4.29483   4.32825
 Alpha virt. eigenvalues --    4.33632   4.37729   4.40246   4.42177   4.42542
 Alpha virt. eigenvalues --    4.47630   4.51023   4.51810   4.55622   4.57135
 Alpha virt. eigenvalues --    4.58212   4.59605   4.62027   4.62603   4.63966
 Alpha virt. eigenvalues --    4.69444   4.74392   4.76905   4.79054   4.79763
 Alpha virt. eigenvalues --    4.84886   4.86766   4.87210   4.87751   4.96626
 Alpha virt. eigenvalues --    4.99804   5.00565   5.03509   5.05821   5.10030
 Alpha virt. eigenvalues --    5.11673   5.16441   5.18123   5.19124   5.22223
 Alpha virt. eigenvalues --    5.22618   5.28391   5.34319   5.34341   5.34675
 Alpha virt. eigenvalues --    5.36448   5.46563   5.49029   5.54730   5.54829
 Alpha virt. eigenvalues --    5.56578   5.62020   5.65232   5.67371   5.67653
 Alpha virt. eigenvalues --    5.69081   5.75271   5.79375   5.95382   6.03969
 Alpha virt. eigenvalues --    6.04548   6.05023   6.05666   6.21848   6.27333
 Alpha virt. eigenvalues --    6.32824   6.58065   6.60249   6.66982   6.71200
 Alpha virt. eigenvalues --    6.71703   6.80362   6.88323   6.95448   7.09695
 Alpha virt. eigenvalues --    7.12729   7.14337   7.22450   7.25581   7.33558
 Alpha virt. eigenvalues --    7.34788   7.39102   7.40640   7.46390   7.54266
 Alpha virt. eigenvalues --    7.56001   7.65687   7.70664   7.74642   7.83136
 Alpha virt. eigenvalues --    7.86287   8.04030   8.10650   8.29792   8.34350
 Alpha virt. eigenvalues --    8.91480  15.57014  16.50708  17.82005  17.88309
          Condensed to atoms (all electrons):
               1          2          3          4          5          6
     1  C    5.553396   0.099531   0.392759   0.367574   0.352665   0.002935
     2  O    0.099531   8.352837  -0.015118   0.011420   0.022459   0.099365
     3  H    0.392759  -0.015118   0.262089   0.003325   0.013847   0.004269
     4  H    0.367574   0.011420   0.003325   0.267732   0.014935   0.004082
     5  H    0.352665   0.022459   0.013847   0.014935   0.237251  -0.005249
     6  C    0.002935   0.099365   0.004269   0.004082  -0.005249   5.553392
     7  H   -0.005282   0.022688   0.001418  -0.000217  -0.002372   0.352607
     8  H    0.004073   0.011486  -0.002945   0.006008  -0.000238   0.367498
     9  H    0.004339  -0.015177   0.004856  -0.002963   0.001446   0.392894
    10  O    0.005592  -0.032097   0.000124   0.004729   0.001842   0.005548
    11  H   -0.000993  -0.042763   0.000771  -0.000949   0.001213  -0.000908
    12  H   -0.000396  -0.018171   0.000373  -0.000964   0.000225  -0.000365
               7          8          9         10         11         12
     1  C   -0.005282   0.004073   0.004339   0.005592  -0.000993  -0.000396
     2  O    0.022688   0.011486  -0.015177  -0.032097  -0.042763  -0.018171
     3  H    0.001418  -0.002945   0.004856   0.000124   0.000771   0.000373
     4  H   -0.000217   0.006008  -0.002963   0.004729  -0.000949  -0.000964
     5  H   -0.002372  -0.000238   0.001446   0.001842   0.001213   0.000225
     6  C    0.352607   0.367498   0.392894   0.005548  -0.000908  -0.000365
     7  H    0.237206   0.015038   0.013720   0.001833   0.001185   0.000214
     8  H    0.015038   0.267679   0.003199   0.004601  -0.000894  -0.000955
     9  H    0.013720   0.003199   0.262509   0.000113   0.000802   0.000380
    10  O    0.001833   0.004601   0.000113   8.068336   0.194595   0.281627
    11  H    0.001185  -0.000894   0.000802   0.194595   0.478860   0.024851
    12  H    0.000214  -0.000955   0.000380   0.281627   0.024851   0.514631
 Mulliken charges:
               1
     1  C   -0.776194
     2  O   -0.496460
     3  H    0.334234
     4  H    0.325288
     5  H    0.361975
     6  C   -0.776069
     7  H    0.361962
     8  H    0.325448
     9  H    0.333882
    10  O   -0.536845
    11  H    0.344231
    12  H    0.198548
 Sum of Mulliken charges =  -0.00000
 Mulliken charges with hydrogens summed into heavy atoms:
               1
     1  C    0.245303
     2  O   -0.496460
     6  C    0.245223
    10  O    0.005934
 Electronic spatial extent (au):  <R**2>=            441.8726
 Charge=              0.0000 electrons
 Dipole moment (field-independent basis, Debye):
    X=             -1.7171    Y=             -0.0078    Z=             -0.4981  Tot=              1.7879
 Quadrupole moment (field-independent basis, Debye-Ang):
   XX=            -25.8537   YY=            -24.3937   ZZ=            -27.3325
   XY=             -0.0254   XZ=             -5.3936   YZ=              0.0055
 Traceless Quadrupole moment (field-independent basis, Debye-Ang):
   XX=              0.0063   YY=              1.4663   ZZ=             -1.4725
   XY=             -0.0254   XZ=             -5.3936   YZ=              0.0055
 Octapole moment (field-independent basis, Debye-Ang**2):
  XXX=             10.4032  YYY=             -0.0017  ZZZ=             -1.0047  XYY=             -1.4194
  XXY=             -0.0750  XXZ=            -12.3857  XZZ=              4.3964  YZZ=             -0.0009
  YYZ=             -2.2483  XYZ=              0.0176
 Hexadecapole moment (field-independent basis, Debye-Ang**3):
 XXXX=           -276.3699 YYYY=           -166.1947 ZZZZ=            -53.6353 XXXY=             -0.2179
 XXXZ=            -32.7912 YYYX=             -0.0150 YYYZ=              0.0014 ZZZX=             -1.5323
 ZZZY=              0.0039 XXYY=            -87.1116 XXZZ=            -62.4379 YYZZ=            -36.3140
 XXYZ=              0.0474 YYXZ=             -0.2155 ZZXY=             -0.0102
 N-N= 1.359014138783D+02 E-N=-8.139589514450D+02  KE= 2.297049591001D+02
 Calling FoFJK, ICntrl=  10002127 FMM=F ISym2X=0 I1Cent= 0 IOpClX= 0 NMat=1 NMatS=1 NMatT=0.
 ***** Axes restored to original set *****
 -------------------------------------------------------------------
 Center     Atomic                   Forces (Hartrees/Bohr)
 Number     Number              X              Y              Z
 -------------------------------------------------------------------
      1        6          -0.000040079   -0.000121321   -0.000503064
      2        8          -0.003814159   -0.000006495    0.007616634
      3        1           0.007375267    0.000490909   -0.000669421
      4        1          -0.002979069    0.000359923   -0.006766211
      5        1          -0.002343647    0.006057969    0.004119464
      6        6          -0.000039225    0.000120900   -0.000505651
      7        1          -0.002331858   -0.006055652    0.004128750
      8        1          -0.002989456   -0.000365861   -0.006762095
      9        1           0.007374468   -0.000485378   -0.000680977
     10        8          -0.000342594   -0.000026476   -0.004989472
     11        1           0.002914185    0.000010479    0.001966199
     12        1          -0.002783834    0.000021003    0.003045843
 -------------------------------------------------------------------
 Cartesian Forces:  Max     0.007616634 RMS     0.003596163

 GradGradGradGradGradGradGradGradGradGradGradGradGradGradGradGradGradGrad
 Berny optimization.
 FormGI is forming the generalized inverse of G from B-inverse, IUseBI=4.
 Internal  Forces:  Max     0.008035955 RMS     0.003408384
 Search for a local minimum.
 Step number   1 out of a maximum of   53
 All quantities printed in internal units (Hartrees-Bohrs-Radians)
 Mixed Optimization -- RFO/linear search
 Second derivative matrix not updated -- first step.
 ITU=  0
     Eigenvalues ---    0.00230   0.01261   0.01261   0.01341   0.04029
     Eigenvalues ---    0.05361   0.07615   0.07615   0.08016   0.08016
     Eigenvalues ---    0.10194   0.16000   0.16000   0.16000   0.16000
     Eigenvalues ---    0.16000   0.16000   0.16000   0.17559   0.25000
     Eigenvalues ---    0.33184   0.33184   0.33211   0.33211   0.33959
     Eigenvalues ---    0.33960   0.40620   0.40621   0.52092   0.54458
 RFO step:  Lambda=-1.39281008D-03 EMin= 2.30000000D-03
 Linear search not attempted -- first point.
 Iteration  1 RMS(Cart)=  0.01465736 RMS(Int)=  0.00001835
 Iteration  2 RMS(Cart)=  0.00003745 RMS(Int)=  0.00000154
 Iteration  3 RMS(Cart)=  0.00000000 RMS(Int)=  0.00000154
 Variable       Old X    -DE/DX   Delta X   Delta X   Delta X     New X
                                 (Linear)    (Quad)   (Total)
    R1        2.70719  -0.00804   0.00000  -0.01972  -0.01972   2.68747
    R2        2.08682  -0.00742   0.00000  -0.02224  -0.02224   2.06459
    R3        2.08729  -0.00740   0.00000  -0.02220  -0.02220   2.06509
    R4        2.07399  -0.00769   0.00000  -0.02256  -0.02256   2.05143
    R5        2.70719  -0.00804   0.00000  -0.01971  -0.01971   2.68748
    R6        3.53809  -0.00021   0.00000  -0.00376  -0.00376   3.53433
    R7        2.07398  -0.00769   0.00000  -0.02255  -0.02255   2.05143
    R8        2.08729  -0.00740   0.00000  -0.02221  -0.02221   2.06509
    R9        2.08683  -0.00742   0.00000  -0.02224  -0.02224   2.06459
   R10        1.84511  -0.00367   0.00000  -0.00703  -0.00703   1.83808
   R11        1.82317  -0.00413   0.00000  -0.00756  -0.00756   1.81561
    A1        1.92862  -0.00032   0.00000  -0.00206  -0.00206   1.92656
    A2        1.93191  -0.00025   0.00000  -0.00182  -0.00182   1.93010
    A3        1.86792   0.00009   0.00000   0.00087   0.00087   1.86879
    A4        1.90995   0.00019   0.00000   0.00061   0.00060   1.91055
    A5        1.91325   0.00021   0.00000   0.00179   0.00179   1.91505
    A6        1.91175   0.00009   0.00000   0.00065   0.00065   1.91240
    A7        1.92924  -0.00088   0.00000  -0.00483  -0.00483   1.92441
    A8        1.78481   0.00026   0.00000   0.00196   0.00197   1.78677
    A9        1.78488   0.00025   0.00000   0.00190   0.00190   1.78678
   A10        1.86789   0.00009   0.00000   0.00088   0.00088   1.86877
   A11        1.93188  -0.00025   0.00000  -0.00181  -0.00181   1.93007
   A12        1.92862  -0.00032   0.00000  -0.00206  -0.00206   1.92656
   A13        1.91179   0.00009   0.00000   0.00064   0.00064   1.91243
   A14        1.91327   0.00020   0.00000   0.00179   0.00179   1.91506
   A15        1.90995   0.00019   0.00000   0.00061   0.00060   1.91055
   A16        1.82646   0.00004   0.00000   0.00023   0.00023   1.82669
   A17        2.79192   0.00041   0.00000   0.00164   0.00164   2.79357
    D1        1.06308  -0.00017   0.00000  -0.00407  -0.00407   1.05901
    D2        2.95284  -0.00007   0.00000  -0.00272  -0.00272   2.95012
    D3       -1.05562  -0.00002   0.00000  -0.00224  -0.00224  -1.05786
    D4        0.83414   0.00007   0.00000  -0.00089  -0.00090   0.83325
    D5       -3.13788  -0.00005   0.00000  -0.00253  -0.00253  -3.14041
    D6       -1.24812   0.00005   0.00000  -0.00119  -0.00119  -1.24931
    D7        3.13924   0.00004   0.00000   0.00229   0.00229   3.14153
    D8        1.05696   0.00002   0.00000   0.00200   0.00200   1.05896
    D9       -1.06171   0.00017   0.00000   0.00382   0.00382  -1.05789
   D10        1.24953  -0.00006   0.00000   0.00090   0.00090   1.25043
   D11       -0.83275  -0.00007   0.00000   0.00061   0.00061  -0.83214
   D12       -2.95143   0.00007   0.00000   0.00243   0.00243  -2.94899
   D13       -1.00159   0.00039   0.00000   0.00261   0.00261  -0.99899
   D14        0.99675  -0.00039   0.00000  -0.00129  -0.00129   0.99546
   D15        3.13916   0.00000   0.00000   0.00029   0.00029   3.13945
         Item               Value     Threshold  Converged?
 Maximum Force            0.008036     0.000450     NO 
 RMS     Force            0.003408     0.000300     NO 
 Maximum Displacement     0.033547     0.001800     NO 
 RMS     Displacement     0.014643     0.001200     NO 
 Predicted change in Energy=-6.992048D-04
 GradGradGradGradGradGradGradGradGradGradGradGradGradGradGradGradGradGrad

                          Input orientation:                          
 ---------------------------------------------------------------------
 Center     Atomic      Atomic             Coordinates (Angstroms)
 Number     Number       Type             X           Y           Z
 ---------------------------------------------------------------------
      1          6           0       -0.934605   -1.166824    0.157466
      2          8           0       -0.527620   -0.000154   -0.546630
      3          1           0       -2.022457   -1.192189    0.255244
      4          1           0       -0.478959   -1.194957    1.150341
      5          1           0       -0.598731   -2.021719   -0.421161
      6          6           0       -0.934409    1.166795    0.157127
      7          1           0       -0.599385    2.021452   -0.422337
      8          1           0       -0.477863    1.195682    1.149566
      9          1           0       -2.022181    1.191806    0.255891
     10          8           0        2.183577    0.000294    0.170085
     11          1           0        1.324399   -0.000280   -0.285876
     12          1           0        2.834106   -0.003253   -0.536952
 ---------------------------------------------------------------------
                    Distance matrix (angstroms):
                    1          2          3          4          5
     1  C    0.000000
     2  O    1.422149   0.000000
     3  H    1.092532   2.073280   0.000000
     4  H    1.092797   2.075965   1.784262   0.000000
     5  H    1.085572   2.026703   1.781190   1.779746   0.000000
     6  C    2.333618   1.422153   2.599669   2.602264   3.257870
     7  H    3.257859   2.026694   3.579349   3.582332   4.043171
     8  H    2.602750   2.075953   2.981193   2.390640   3.582383
     9  H    2.599161   2.073287   2.383995   2.979633   3.579294
    10  O    3.329472   2.804331   4.372641   3.078738   3.489893
    11  H    2.580790   1.870285   3.593732   2.596550   2.793376
    12  H    4.004910   3.361741   5.062346   3.904295   3.983967
                    6          7          8          9         10
     6  C    0.000000
     7  H    1.085568   0.000000
     8  H    1.092797   1.779759   0.000000
     9  H    1.092533   1.781194   1.784261   0.000000
    10  O    3.329074   3.490118   3.077597   4.372124   0.000000
    11  H    2.580800   2.794095   2.595953   3.593630   0.972670
    12  H    4.006552   3.987659   3.905244   5.063624   0.960782
                   11         12
    11  H    0.000000
    12  H    1.530445   0.000000
 Stoichiometry    C2H8O2
 Framework group  C1[X(C2H8O2)]
 Deg. of freedom    30
 Full point group                 C1      NOp   1
 Largest Abelian subgroup         C1      NOp   1
 Largest concise Abelian subgroup C1      NOp   1
                         Standard orientation:                         
 ---------------------------------------------------------------------
 Center     Atomic      Atomic             Coordinates (Angstroms)
 Number     Number       Type             X           Y           Z
 ---------------------------------------------------------------------
      1          6           0       -0.934393   -1.166794    0.156641
      2          8           0       -0.527286   -0.000075   -0.547304
      3          1           0       -2.022266   -1.192201    0.254168
      4          1           0       -0.478973   -1.194961    1.149618
      5          1           0       -0.598357   -2.021649   -0.421952
      6          6           0       -0.934277    1.166825    0.156418
      7          1           0       -0.599149    2.021522   -0.422926
      8          1           0       -0.477959    1.195678    1.148963
      9          1           0       -2.022072    1.191793    0.254934
     10          8           0        2.183747    0.000430    0.170032
     11          1           0        1.324673   -0.000151   -0.286126
     12          1           0        2.834437   -0.003059   -0.536857
 ---------------------------------------------------------------------
 Rotational constants (GHZ):           9.0420607           3.8800644           3.0141220
 Standard basis: Aug-CC-pVTZ (5D, 7F)
 There are   420 symmetry adapted cartesian basis functions of A   symmetry.
 There are   368 symmetry adapted basis functions of A   symmetry.
   368 basis functions,   504 primitive gaussians,   420 cartesian basis functions
    18 alpha electrons       18 beta electrons
       nuclear repulsion energy       136.7802431454 Hartrees.
 NAtoms=   12 NActive=   12 NUniq=   12 SFac= 1.00D+00 NAtFMM=   60 NAOKFM=F Big=F
 Integral buffers will be    131072 words long.
 Raffenetti 1 integral format.
 Two-electron integral symmetry is turned on.
 One-electron integrals computed using PRISM.
 NBasis=   368 RedAO= T EigKep=  1.80D-05  NBF=   368
 NBsUse=   368 1.00D-06 EigRej= -1.00D+00 NBFU=   368
 Initial guess from the checkpoint file:  "/gscratch/scrubbed/gds001/Gau-29509.chk"
 B after Tr=     0.000000   -0.000000   -0.000000
         Rot=    1.000000   -0.000021    0.000002    0.000002 Ang=  -0.00 deg.
 ExpMin= 2.53D-02 ExpMax= 1.53D+04 ExpMxC= 5.22D+02 IAcc=3 IRadAn=         5 AccDes= 0.00D+00
 Harris functional with IExCor=  205 and IRadAn=       5 diagonalized for initial guess.
 HarFok:  IExCor=  205 AccDes= 0.00D+00 IRadAn=         5 IDoV= 1 UseB2=F ITyADJ=14
 ICtDFT=  3500011 ScaDFX=  1.000000  1.000000  1.000000  1.000000
 FoFCou: FMM=F IPFlag=           0 FMFlag=      100000 FMFlg1=           0
         NFxFlg=           0 DoJE=T BraDBF=F KetDBF=T FulRan=T
         wScrn=  0.000000 ICntrl=       500 IOpCl=  0 I1Cent=   200000004 NGrid=           0
         NMat0=    1 NMatS0=      1 NMatT0=    0 NMatD0=    1 NMtDS0=    0 NMtDT0=    0
 Petite list used in FoFCou.
 Keep R1 ints in memory in canonical form, NReq=2342278159.
 Requested convergence on RMS density matrix=1.00D-08 within 128 cycles.
 Requested convergence on MAX density matrix=1.00D-06.
 Requested convergence on             energy=1.00D-06.
 No special actions if energy rises.
 SCF Done:  E(RHF) =  -230.192744796     A.U. after    9 cycles
            NFock=  9  Conv=0.49D-08     -V/T= 2.0014
 ExpMin= 2.53D-02 ExpMax= 1.53D+04 ExpMxC= 5.22D+02 IAcc=3 IRadAn=         5 AccDes= 0.00D+00
 HarFok:  IExCor=  205 AccDes= 0.00D+00 IRadAn=         5 IDoV=-2 UseB2=F ITyADJ=14
 ICtDFT= 12500011 ScaDFX=  1.000000  1.000000  1.000000  1.000000
 Range of M.O.s used for correlation:     5   368
 NBasis=   368 NAE=    18 NBE=    18 NFC=     4 NFV=     0
 NROrb=    364 NOA=    14 NOB=    14 NVA=   350 NVB=   350

 **** Warning!!: The largest alpha MO coefficient is  0.38638716D+02

 Disk-based method using ON**2 memory for 14 occupieds at a time.
 Estimated scratch disk usage=  1900689664 words.
 Actual    scratch disk usage=  1789540608 words.
 JobTyp=1 Pass  1:  I=   5 to  18 NPSUse= 28 ParTrn=T ParDer=T DoDerP=T.
 (rs|ai) integrals will be sorted in core.
 Spin components of T(2) and E(2):
     alpha-alpha T2 =       0.2835861452D-01 E2=     -0.1025649290D+00
     alpha-beta  T2 =       0.1756391895D+00 E2=     -0.6791836633D+00
     beta-beta   T2 =       0.2835861452D-01 E2=     -0.1025649290D+00
 ANorm=    0.1110115498D+01
 E2 =    -0.8843135212D+00 EUMP2 =    -0.23107705831768D+03
          IDoAtm=111111111111
          Differentiating once with respect to electric field.
                with respect to dipole field.
          Differentiating once with respect to nuclear coordinates.
 Keep R1 ints in memory in canonical form, NReq=2342280375.
          There are     1 degrees of freedom in the 1st order CPHF.  IDoFFX=0 NUNeed=     1.
 LinEq1:  Iter=  0 NonCon=     1 RMS=2.39D-03 Max=3.34D-02 NDo=     1
 AX will form     1 AO Fock derivatives at one time.
 LinEq1:  Iter=  1 NonCon=     1 RMS=5.14D-04 Max=8.47D-03 NDo=     1
 LinEq1:  Iter=  2 NonCon=     1 RMS=1.69D-04 Max=1.91D-03 NDo=     1
 LinEq1:  Iter=  3 NonCon=     1 RMS=6.49D-05 Max=8.68D-04 NDo=     1
 LinEq1:  Iter=  4 NonCon=     1 RMS=2.06D-05 Max=2.59D-04 NDo=     1
 LinEq1:  Iter=  5 NonCon=     1 RMS=3.68D-06 Max=6.87D-05 NDo=     1
 LinEq1:  Iter=  6 NonCon=     1 RMS=8.16D-07 Max=1.09D-05 NDo=     1
 LinEq1:  Iter=  7 NonCon=     1 RMS=2.78D-07 Max=3.59D-06 NDo=     1
 LinEq1:  Iter=  8 NonCon=     1 RMS=9.07D-08 Max=1.36D-06 NDo=     1
 LinEq1:  Iter=  9 NonCon=     1 RMS=1.77D-08 Max=2.33D-07 NDo=     1
 LinEq1:  Iter= 10 NonCon=     1 RMS=3.06D-09 Max=4.38D-08 NDo=     1
 LinEq1:  Iter= 11 NonCon=     1 RMS=3.69D-10 Max=4.07D-09 NDo=     1
 LinEq1:  Iter= 12 NonCon=     0 RMS=5.82D-11 Max=5.95D-10 NDo=     1
 Linear equations converged to 1.000D-10 1.000D-09 after    12 iterations.
 End of Minotr F.D. properties file   721 does not exist.
 End of Minotr F.D. properties file   722 does not exist.
 End of Minotr F.D. properties file   788 does not exist.
 Calling FoFJK, ICntrl=  10002127 FMM=F ISym2X=0 I1Cent= 0 IOpClX= 0 NMat=1 NMatS=1 NMatT=0.
 ***** Axes restored to original set *****
 -------------------------------------------------------------------
 Center     Atomic                   Forces (Hartrees/Bohr)
 Number     Number              X              Y              Z
 -------------------------------------------------------------------
      1        6           0.000591451    0.000829562   -0.001456764
      2        8          -0.000527763   -0.000004479    0.001651749
      3        1          -0.000208421   -0.000227115    0.000179850
      4        1          -0.000004789   -0.000271778    0.000283849
      5        1          -0.000108018   -0.000521512    0.000173045
      6        6           0.000591595   -0.000830489   -0.001459015
      7        1          -0.000105141    0.000522512    0.000174568
      8        1          -0.000007058    0.000271003    0.000284988
      9        1          -0.000208314    0.000228974    0.000176900
     10        8          -0.000131598   -0.000005283   -0.000758207
     11        1           0.000041785    0.000005756    0.000496573
     12        1           0.000076271    0.000002850    0.000252463
 -------------------------------------------------------------------
 Cartesian Forces:  Max     0.001651749 RMS     0.000563652

 GradGradGradGradGradGradGradGradGradGradGradGradGradGradGradGradGradGrad
 Berny optimization.
 Using GEDIIS/GDIIS optimizer.
 FormGI is forming the generalized inverse of G from B-inverse, IUseBI=4.
 Internal  Forces:  Max     0.001116538 RMS     0.000332981
 Search for a local minimum.
 Step number   2 out of a maximum of   53
 All quantities printed in internal units (Hartrees-Bohrs-Radians)
 Mixed Optimization -- En-DIIS/RFO-DIIS
 Update second derivatives using D2CorX and points    1    2
 DE= -6.90D-04 DEPred=-6.99D-04 R= 9.87D-01
 TightC=F SS=  1.41D+00  RLast= 6.35D-02 DXNew= 5.0454D-01 1.9035D-01
 Trust test= 9.87D-01 RLast= 6.35D-02 DXMaxT set to 3.00D-01
 ITU=  1  0
 Use linear search instead of GDIIS.
     Eigenvalues ---    0.00230   0.01260   0.01261   0.01341   0.04035
     Eigenvalues ---    0.05361   0.07632   0.07637   0.08017   0.08017
     Eigenvalues ---    0.10160   0.15922   0.16000   0.16000   0.16000
     Eigenvalues ---    0.16000   0.16000   0.16039   0.17656   0.24960
     Eigenvalues ---    0.33184   0.33197   0.33211   0.33589   0.33959
     Eigenvalues ---    0.35279   0.39833   0.40620   0.51948   0.54378
 RFO step:  Lambda=-2.85342931D-05 EMin= 2.29999604D-03
 Quartic linear search produced a step of -0.01893.
 Iteration  1 RMS(Cart)=  0.00420245 RMS(Int)=  0.00001050
 Iteration  2 RMS(Cart)=  0.00001311 RMS(Int)=  0.00000482
 Iteration  3 RMS(Cart)=  0.00000000 RMS(Int)=  0.00000482
 Variable       Old X    -DE/DX   Delta X   Delta X   Delta X     New X
                                 (Linear)    (Quad)   (Total)
    R1        2.68747  -0.00033   0.00037  -0.00158  -0.00120   2.68627
    R2        2.06459   0.00023   0.00042  -0.00022   0.00021   2.06479
    R3        2.06509   0.00026   0.00042  -0.00011   0.00031   2.06539
    R4        2.05143   0.00029   0.00043  -0.00008   0.00035   2.05178
    R5        2.68748  -0.00033   0.00037  -0.00158  -0.00120   2.68628
    R6        3.53433  -0.00001   0.00007  -0.00043  -0.00036   3.53397
    R7        2.05143   0.00029   0.00043  -0.00008   0.00035   2.05178
    R8        2.06509   0.00026   0.00042  -0.00011   0.00031   2.06539
    R9        2.06459   0.00023   0.00042  -0.00022   0.00020   2.06479
   R10        1.83808  -0.00029   0.00013  -0.00082  -0.00069   1.83740
   R11        1.81561  -0.00013   0.00014  -0.00054  -0.00040   1.81522
    A1        1.92656   0.00022   0.00004   0.00122   0.00126   1.92782
    A2        1.93010   0.00025   0.00003   0.00138   0.00141   1.93151
    A3        1.86879   0.00061  -0.00002   0.00392   0.00390   1.87269
    A4        1.91055  -0.00031  -0.00001  -0.00218  -0.00220   1.90836
    A5        1.91505  -0.00037  -0.00003  -0.00202  -0.00206   1.91299
    A6        1.91240  -0.00039  -0.00001  -0.00225  -0.00227   1.91013
    A7        1.92441   0.00112   0.00009   0.00690   0.00698   1.93139
    A8        1.78677  -0.00014  -0.00004   0.00181   0.00176   1.78853
    A9        1.78678  -0.00015  -0.00004   0.00177   0.00172   1.78850
   A10        1.86877   0.00061  -0.00002   0.00392   0.00390   1.87268
   A11        1.93007   0.00025   0.00003   0.00139   0.00142   1.93149
   A12        1.92656   0.00022   0.00004   0.00122   0.00126   1.92782
   A13        1.91243  -0.00040  -0.00001  -0.00226  -0.00228   1.91015
   A14        1.91506  -0.00037  -0.00003  -0.00202  -0.00206   1.91300
   A15        1.91055  -0.00031  -0.00001  -0.00218  -0.00220   1.90835
   A16        1.82669   0.00041  -0.00000   0.00254   0.00253   1.82922
   A17        2.79357   0.00036  -0.00003   0.00148   0.00145   2.79502
    D1        1.05901  -0.00014   0.00008  -0.00484  -0.00477   1.05424
    D2        2.95012   0.00002   0.00005   0.00043   0.00048   2.95060
    D3       -1.05786  -0.00007   0.00004  -0.00382  -0.00378  -1.06164
    D4        0.83325   0.00010   0.00002   0.00145   0.00147   0.83472
    D5       -3.14041  -0.00010   0.00005  -0.00424  -0.00420   3.13857
    D6       -1.24931   0.00007   0.00002   0.00103   0.00105  -1.24826
    D7        3.14153   0.00010  -0.00004   0.00400   0.00396  -3.13770
    D8        1.05896   0.00007  -0.00004   0.00358   0.00354   1.06250
    D9       -1.05789   0.00014  -0.00007   0.00459   0.00452  -1.05337
   D10        1.25043  -0.00007  -0.00002  -0.00130  -0.00132   1.24910
   D11       -0.83214  -0.00010  -0.00001  -0.00172  -0.00174  -0.83388
   D12       -2.94899  -0.00003  -0.00005  -0.00070  -0.00075  -2.94975
   D13       -0.99899  -0.00055  -0.00005  -0.00348  -0.00352  -1.00251
   D14        0.99546   0.00056   0.00002   0.00519   0.00521   1.00067
   D15        3.13945   0.00000  -0.00001   0.00027   0.00027   3.13972
         Item               Value     Threshold  Converged?
 Maximum Force            0.001117     0.000450     NO 
 RMS     Force            0.000333     0.000300     NO 
 Maximum Displacement     0.014712     0.001800     NO 
 RMS     Displacement     0.004200     0.001200     NO 
 Predicted change in Energy=-1.453832D-05
 GradGradGradGradGradGradGradGradGradGradGradGradGradGradGradGradGradGrad

                          Input orientation:                          
 ---------------------------------------------------------------------
 Center     Atomic      Atomic             Coordinates (Angstroms)
 Number     Number       Type             X           Y           Z
 ---------------------------------------------------------------------
      1          6           0       -0.934454   -1.169154    0.156801
      2          8           0       -0.527053   -0.000209   -0.541974
      3          1           0       -2.022322   -1.195457    0.255363
      4          1           0       -0.480071   -1.202742    1.150263
      5          1           0       -0.600334   -2.024490   -0.422534
      6          6           0       -0.934187    1.169080    0.156390
      7          1           0       -0.600648    2.024124   -0.423706
      8          1           0       -0.479096    1.203336    1.149506
      9          1           0       -2.021989    1.195228    0.255722
     10          8           0        2.185395   -0.000034    0.169113
     11          1           0        1.325176   -0.000338   -0.284104
     12          1           0        2.835454   -0.002692   -0.538073
 ---------------------------------------------------------------------
                    Distance matrix (angstroms):
                    1          2          3          4          5
     1  C    0.000000
     2  O    1.421512   0.000000
     3  H    1.092640   2.073691   0.000000
     4  H    1.092959   2.076526   1.783098   0.000000
     5  H    1.085755   2.029126   1.780138   1.778602   0.000000
     6  C    2.338235   1.421516   2.604779   2.611427   3.262745
     7  H    3.262735   2.029120   3.584410   3.592295   4.048615
     8  H    2.611805   2.076517   2.989188   2.406079   3.592335
     9  H    2.604385   2.073698   2.390685   2.987972   3.584372
    10  O    3.331734   2.804108   4.375084   3.084456   3.494103
    11  H    2.581949   1.870094   3.595147   2.600405   2.797132
    12  H    4.006955   3.362510   5.064604   3.909387   3.988189
                    6          7          8          9         10
     6  C    0.000000
     7  H    1.085753   0.000000
     8  H    1.092959   1.778613   0.000000
     9  H    1.092641   1.780141   1.783096   0.000000
    10  O    3.331483   3.494379   3.083631   4.374726   0.000000
    11  H    2.581917   2.797630   2.599897   3.595039   0.972308
    12  H    4.008182   3.990973   3.910073   5.065558   0.960571
                   11         12
    11  H    0.000000
    12  H    1.531485   0.000000
 Stoichiometry    C2H8O2
 Framework group  C1[X(C2H8O2)]
 Deg. of freedom    30
 Full point group                 C1      NOp   1
 Largest Abelian subgroup         C1      NOp   1
 Largest concise Abelian subgroup C1      NOp   1
                         Standard orientation:                         
 ---------------------------------------------------------------------
 Center     Atomic      Atomic             Coordinates (Angstroms)
 Number     Number       Type             X           Y           Z
 ---------------------------------------------------------------------
      1          6           0       -0.934747   -1.169119    0.154947
      2          8           0       -0.526982   -0.000054   -0.543416
      3          1           0       -2.022680   -1.195547    0.252749
      4          1           0       -0.481052   -1.202768    1.148722
      5          1           0       -0.600134   -2.024357   -0.424248
      6          6           0       -0.934725    1.169116    0.154792
      7          1           0       -0.600872    2.024258   -0.424978
      8          1           0       -0.480329    1.203311    1.148228
      9          1           0       -2.022598    1.195139    0.253370
     10          8           0        2.184970    0.000327    0.169560
     11          1           0        1.325067   -0.000017   -0.284256
     12          1           0        2.835522   -0.002186   -0.537173
 ---------------------------------------------------------------------
 Rotational constants (GHZ):           9.0225652           3.8790926           3.0083465
 Standard basis: Aug-CC-pVTZ (5D, 7F)
 There are   420 symmetry adapted cartesian basis functions of A   symmetry.
 There are   368 symmetry adapted basis functions of A   symmetry.
   368 basis functions,   504 primitive gaussians,   420 cartesian basis functions
    18 alpha electrons       18 beta electrons
       nuclear repulsion energy       136.7307798103 Hartrees.
 NAtoms=   12 NActive=   12 NUniq=   12 SFac= 1.00D+00 NAtFMM=   60 NAOKFM=F Big=F
 Integral buffers will be    131072 words long.
 Raffenetti 1 integral format.
 Two-electron integral symmetry is turned on.
 One-electron integrals computed using PRISM.
 NBasis=   368 RedAO= T EigKep=  1.81D-05  NBF=   368
 NBsUse=   368 1.00D-06 EigRej= -1.00D+00 NBFU=   368
 Initial guess from the checkpoint file:  "/gscratch/scrubbed/gds001/Gau-29509.chk"
 B after Tr=    -0.000000    0.000000   -0.000000
         Rot=    1.000000   -0.000027    0.000065   -0.000010 Ang=  -0.01 deg.
 Keep R1 ints in memory in canonical form, NReq=2342278159.
 Requested convergence on RMS density matrix=1.00D-08 within 128 cycles.
 Requested convergence on MAX density matrix=1.00D-06.
 Requested convergence on             energy=1.00D-06.
 No special actions if energy rises.
 SCF Done:  E(RHF) =  -230.192943923     A.U. after    8 cycles
            NFock=  8  Conv=0.52D-08     -V/T= 2.0014
 ExpMin= 2.53D-02 ExpMax= 1.53D+04 ExpMxC= 5.22D+02 IAcc=3 IRadAn=         5 AccDes= 0.00D+00
 HarFok:  IExCor=  205 AccDes= 0.00D+00 IRadAn=         5 IDoV=-2 UseB2=F ITyADJ=14
 ICtDFT= 12500011 ScaDFX=  1.000000  1.000000  1.000000  1.000000
 Range of M.O.s used for correlation:     5   368
 NBasis=   368 NAE=    18 NBE=    18 NFC=     4 NFV=     0
 NROrb=    364 NOA=    14 NOB=    14 NVA=   350 NVB=   350

 **** Warning!!: The largest alpha MO coefficient is  0.38446491D+02

 Disk-based method using ON**2 memory for 14 occupieds at a time.
 Estimated scratch disk usage=  1900689664 words.
 Actual    scratch disk usage=  1789540608 words.
 JobTyp=1 Pass  1:  I=   5 to  18 NPSUse= 28 ParTrn=T ParDer=T DoDerP=T.
 (rs|ai) integrals will be sorted in core.
 Spin components of T(2) and E(2):
     alpha-alpha T2 =       0.2834284450D-01 E2=     -0.1025352697D+00
     alpha-beta  T2 =       0.1755728470D+00 E2=     -0.6790598139D+00
     beta-beta   T2 =       0.2834284450D-01 E2=     -0.1025352697D+00
 ANorm=    0.1110071410D+01
 E2 =    -0.8841303532D+00 EUMP2 =    -0.23107707427592D+03
          IDoAtm=111111111111
          Differentiating once with respect to electric field.
                with respect to dipole field.
          Differentiating once with respect to nuclear coordinates.
 Keep R1 ints in memory in canonical form, NReq=2342280375.
          There are     1 degrees of freedom in the 1st order CPHF.  IDoFFX=0 NUNeed=     1.
 LinEq1:  Iter=  0 NonCon=     1 RMS=2.39D-03 Max=3.34D-02 NDo=     1
 AX will form     1 AO Fock derivatives at one time.
 LinEq1:  Iter=  1 NonCon=     1 RMS=5.13D-04 Max=8.23D-03 NDo=     1
 LinEq1:  Iter=  2 NonCon=     1 RMS=1.68D-04 Max=1.91D-03 NDo=     1
 LinEq1:  Iter=  3 NonCon=     1 RMS=6.46D-05 Max=8.69D-04 NDo=     1
 LinEq1:  Iter=  4 NonCon=     1 RMS=2.05D-05 Max=2.58D-04 NDo=     1
 LinEq1:  Iter=  5 NonCon=     1 RMS=3.66D-06 Max=6.83D-05 NDo=     1
 LinEq1:  Iter=  6 NonCon=     1 RMS=8.12D-07 Max=1.09D-05 NDo=     1
 LinEq1:  Iter=  7 NonCon=     1 RMS=2.76D-07 Max=3.59D-06 NDo=     1
 LinEq1:  Iter=  8 NonCon=     1 RMS=9.04D-08 Max=1.35D-06 NDo=     1
 LinEq1:  Iter=  9 NonCon=     1 RMS=1.76D-08 Max=2.32D-07 NDo=     1
 LinEq1:  Iter= 10 NonCon=     1 RMS=3.05D-09 Max=4.36D-08 NDo=     1
 LinEq1:  Iter= 11 NonCon=     1 RMS=3.67D-10 Max=4.04D-09 NDo=     1
 LinEq1:  Iter= 12 NonCon=     0 RMS=5.75D-11 Max=5.95D-10 NDo=     1
 Linear equations converged to 1.000D-10 1.000D-09 after    12 iterations.
 End of Minotr F.D. properties file   721 does not exist.
 End of Minotr F.D. properties file   722 does not exist.
 End of Minotr F.D. properties file   788 does not exist.
 Calling FoFJK, ICntrl=  10002127 FMM=F ISym2X=0 I1Cent= 0 IOpClX= 0 NMat=1 NMatS=1 NMatT=0.
 ***** Axes restored to original set *****
 -------------------------------------------------------------------
 Center     Atomic                   Forces (Hartrees/Bohr)
 Number     Number              X              Y              Z
 -------------------------------------------------------------------
      1        6           0.000070648    0.000827823   -0.000404388
      2        8           0.000040702   -0.000002073    0.000502196
      3        1          -0.000223667   -0.000061881    0.000063734
      4        1           0.000066487   -0.000072113    0.000226402
      5        1           0.000070467   -0.000062786   -0.000132378
      6        6           0.000070459   -0.000828905   -0.000405970
      7        1           0.000072362    0.000063593   -0.000131246
      8        1           0.000064578    0.000071498    0.000227370
      9        1          -0.000223684    0.000063489    0.000061581
     10        8           0.000064731   -0.000001661   -0.000243561
     11        1          -0.000100949    0.000001422    0.000209714
     12        1           0.000027866    0.000001593    0.000026547
 -------------------------------------------------------------------
 Cartesian Forces:  Max     0.000828905 RMS     0.000256812

 GradGradGradGradGradGradGradGradGradGradGradGradGradGradGradGradGradGrad
 Berny optimization.
 Using GEDIIS/GDIIS optimizer.
 FormGI is forming the generalized inverse of G from B-inverse, IUseBI=4.
 Internal  Forces:  Max     0.000635785 RMS     0.000181407
 Search for a local minimum.
 Step number   3 out of a maximum of   53
 All quantities printed in internal units (Hartrees-Bohrs-Radians)
 Mixed Optimization -- En-DIIS/RFO-DIIS
 Swapping is turned off.
 Update second derivatives using D2CorX and points    1    2    3
 DE= -1.60D-05 DEPred=-1.45D-05 R= 1.10D+00
 TightC=F SS=  1.41D+00  RLast= 1.69D-02 DXNew= 5.0454D-01 5.0676D-02
 Trust test= 1.10D+00 RLast= 1.69D-02 DXMaxT set to 3.00D-01
 ITU=  1  1  0
     Eigenvalues ---    0.00230   0.01247   0.01261   0.01341   0.03279
     Eigenvalues ---    0.05360   0.07622   0.07705   0.07986   0.07986
     Eigenvalues ---    0.10225   0.14259   0.16000   0.16000   0.16000
     Eigenvalues ---    0.16000   0.16000   0.16528   0.19792   0.25567
     Eigenvalues ---    0.33184   0.33195   0.33211   0.33736   0.33959
     Eigenvalues ---    0.34771   0.40620   0.41293   0.52141   0.54445
 En-DIIS/RFO-DIIS/Sim-DIIS IScMMF=       -3 using points:     3    2
 RFO step:  Lambda=-6.88572807D-06.
 DidBck=F Rises=F RFO-DIIS coefs:    1.46885   -0.46885
 Iteration  1 RMS(Cart)=  0.00241515 RMS(Int)=  0.00000515
 Iteration  2 RMS(Cart)=  0.00000487 RMS(Int)=  0.00000340
 Iteration  3 RMS(Cart)=  0.00000000 RMS(Int)=  0.00000340
 Variable       Old X    -DE/DX   Delta X   Delta X   Delta X     New X
                                 (Linear)    (Quad)   (Total)
    R1        2.68627  -0.00064  -0.00056  -0.00159  -0.00215   2.68412
    R2        2.06479   0.00023   0.00010   0.00057   0.00067   2.06546
    R3        2.06539   0.00024   0.00014   0.00057   0.00071   2.06611
    R4        2.05178   0.00014   0.00016   0.00023   0.00039   2.05217
    R5        2.68628  -0.00064  -0.00056  -0.00159  -0.00215   2.68412
    R6        3.53397  -0.00001  -0.00017  -0.00013  -0.00030   3.53366
    R7        2.05178   0.00014   0.00016   0.00023   0.00040   2.05217
    R8        2.06539   0.00024   0.00014   0.00057   0.00071   2.06611
    R9        2.06479   0.00023   0.00010   0.00057   0.00067   2.06546
   R10        1.83740  -0.00002  -0.00032   0.00008  -0.00024   1.83715
   R11        1.81522  -0.00000  -0.00019   0.00004  -0.00014   1.81507
    A1        1.92782   0.00011   0.00059   0.00052   0.00110   1.92892
    A2        1.93151   0.00011   0.00066   0.00051   0.00117   1.93269
    A3        1.87269  -0.00016   0.00183  -0.00218  -0.00035   1.87234
    A4        1.90836  -0.00007  -0.00103   0.00028  -0.00075   1.90761
    A5        1.91299   0.00001  -0.00096   0.00040  -0.00056   1.91243
    A6        1.91013   0.00000  -0.00106   0.00044  -0.00063   1.90950
    A7        1.93139  -0.00016   0.00327  -0.00225   0.00102   1.93241
    A8        1.78853   0.00011   0.00082   0.00165   0.00246   1.79099
    A9        1.78850   0.00011   0.00081   0.00164   0.00243   1.79093
   A10        1.87268  -0.00016   0.00183  -0.00217  -0.00035   1.87233
   A11        1.93149   0.00011   0.00067   0.00052   0.00118   1.93267
   A12        1.92782   0.00011   0.00059   0.00052   0.00110   1.92892
   A13        1.91015   0.00000  -0.00107   0.00043  -0.00064   1.90952
   A14        1.91300   0.00000  -0.00097   0.00040  -0.00057   1.91243
   A15        1.90835  -0.00007  -0.00103   0.00028  -0.00075   1.90760
   A16        1.82922   0.00007   0.00119  -0.00012   0.00107   1.83029
   A17        2.79502   0.00036   0.00068   0.00128   0.00196   2.79698
    D1        1.05424  -0.00004  -0.00224  -0.00053  -0.00277   1.05148
    D2        2.95060   0.00008   0.00023   0.00129   0.00151   2.95211
    D3       -1.06164  -0.00009  -0.00177  -0.00157  -0.00334  -1.06498
    D4        0.83472   0.00003   0.00069   0.00025   0.00094   0.83566
    D5        3.13857  -0.00006  -0.00197  -0.00106  -0.00303   3.13554
    D6       -1.24826   0.00005   0.00049   0.00075   0.00125  -1.24701
    D7       -3.13770   0.00006   0.00185   0.00091   0.00277  -3.13494
    D8        1.06250   0.00009   0.00166   0.00141   0.00307   1.06558
    D9       -1.05337   0.00004   0.00212   0.00037   0.00250  -1.05087
   D10        1.24910  -0.00006  -0.00062  -0.00091  -0.00153   1.24757
   D11       -0.83388  -0.00003  -0.00081  -0.00041  -0.00122  -0.83510
   D12       -2.94975  -0.00008  -0.00035  -0.00144  -0.00180  -2.95155
   D13       -1.00251   0.00005  -0.00165   0.00098  -0.00068  -1.00319
   D14        1.00067  -0.00005   0.00244  -0.00032   0.00212   1.00280
   D15        3.13972   0.00000   0.00013   0.00016   0.00029   3.14001
         Item               Value     Threshold  Converged?
 Maximum Force            0.000636     0.000450     NO 
 RMS     Force            0.000181     0.000300     YES
 Maximum Displacement     0.005537     0.001800     NO 
 RMS     Displacement     0.002415     0.001200     NO 
 Predicted change in Energy=-3.444142D-06
 GradGradGradGradGradGradGradGradGradGradGradGradGradGradGradGradGradGrad

                          Input orientation:                          
 ---------------------------------------------------------------------
 Center     Atomic      Atomic             Coordinates (Angstroms)
 Number     Number       Type             X           Y           Z
 ---------------------------------------------------------------------
      1          6           0       -0.934936   -1.168650    0.157103
      2          8           0       -0.525414   -0.000261   -0.539044
      3          1           0       -2.023268   -1.194901    0.254488
      4          1           0       -0.482186   -1.205361    1.151615
      5          1           0       -0.600860   -2.023593   -0.423228
      6          6           0       -0.934610    1.168533    0.156622
      7          1           0       -0.600835    2.023136   -0.424380
      8          1           0       -0.481365    1.205820    1.150889
      9          1           0       -2.022893    1.194828    0.254539
     10          8           0        2.188315   -0.000327    0.167715
     11          1           0        1.326899   -0.000399   -0.282945
     12          1           0        2.837025   -0.002175   -0.540610
 ---------------------------------------------------------------------
                    Distance matrix (angstroms):
                    1          2          3          4          5
     1  C    0.000000
     2  O    1.420374   0.000000
     3  H    1.092995   2.073747   0.000000
     4  H    1.093337   2.076648   1.783222   0.000000
     5  H    1.085964   2.028048   1.780245   1.778684   0.000000
     6  C    2.337183   1.420377   2.603954   2.613441   3.261485
     7  H    3.261479   2.028046   3.583287   3.594584   4.046730
     8  H    2.613704   2.076643   2.990730   2.411182   3.594612
     9  H    2.603684   2.073754   2.389730   2.989888   3.583264
    10  O    3.334634   2.804253   4.378580   3.090589   3.496043
    11  H    2.583477   1.869934   3.597123   2.604359   2.798080
    12  H    4.009383   3.362440   5.067269   3.915155   3.989857
                    6          7          8          9         10
     6  C    0.000000
     7  H    1.085963   0.000000
     8  H    1.093337   1.778693   0.000000
     9  H    1.092996   1.780245   1.783219   0.000000
    10  O    3.334519   3.496332   3.090083   4.378379   0.000000
    11  H    2.583417   2.798367   2.603970   3.597021   0.972178
    12  H    4.010226   3.991776   3.915626   5.067926   0.960495
                   11         12
    11  H    0.000000
    12  H    1.531951   0.000000
 Stoichiometry    C2H8O2
 Framework group  C1[X(C2H8O2)]
 Deg. of freedom    30
 Full point group                 C1      NOp   1
 Largest Abelian subgroup         C1      NOp   1
 Largest concise Abelian subgroup C1      NOp   1
                         Standard orientation:                         
 ---------------------------------------------------------------------
 Center     Atomic      Atomic             Coordinates (Angstroms)
 Number     Number       Type             X           Y           Z
 ---------------------------------------------------------------------
      1          6           0       -0.936043   -1.168609    0.154045
      2          8           0       -0.525663   -0.000036   -0.541288
      3          1           0       -2.024516   -1.195059    0.249777
      4          1           0       -0.484794   -1.205408    1.149237
      5          1           0       -0.600944   -2.023400   -0.425919
      6          6           0       -0.936108    1.168574    0.153950
      7          1           0       -0.601597    2.023329   -0.426405
      8          1           0       -0.484377    1.205774    1.148908
      9          1           0       -2.024543    1.194671    0.250222
     10          8           0        2.186992    0.000235    0.169582
     11          1           0        1.326261    0.000094   -0.282382
     12          1           0        2.836775   -0.001387   -0.537758
 ---------------------------------------------------------------------
 Rotational constants (GHZ):           9.0334907           3.8739559           3.0050145
 Standard basis: Aug-CC-pVTZ (5D, 7F)
 There are   420 symmetry adapted cartesian basis functions of A   symmetry.
 There are   368 symmetry adapted basis functions of A   symmetry.
   368 basis functions,   504 primitive gaussians,   420 cartesian basis functions
    18 alpha electrons       18 beta electrons
       nuclear repulsion energy       136.7333643477 Hartrees.
 NAtoms=   12 NActive=   12 NUniq=   12 SFac= 1.00D+00 NAtFMM=   60 NAOKFM=F Big=F
 Integral buffers will be    131072 words long.
 Raffenetti 1 integral format.
 Two-electron integral symmetry is turned on.
 One-electron integrals computed using PRISM.
 NBasis=   368 RedAO= T EigKep=  1.81D-05  NBF=   368
 NBsUse=   368 1.00D-06 EigRej= -1.00D+00 NBFU=   368
 Initial guess from the checkpoint file:  "/gscratch/scrubbed/gds001/Gau-29509.chk"
 B after Tr=     0.000000    0.000000   -0.000000
         Rot=    1.000000   -0.000025    0.000206   -0.000009 Ang=  -0.02 deg.
 Keep R1 ints in memory in canonical form, NReq=2342278159.
 Requested convergence on RMS density matrix=1.00D-08 within 128 cycles.
 Requested convergence on MAX density matrix=1.00D-06.
 Requested convergence on             energy=1.00D-06.
 No special actions if energy rises.
 SCF Done:  E(RHF) =  -230.193029705     A.U. after    7 cycles
            NFock=  7  Conv=0.97D-08     -V/T= 2.0014
 ExpMin= 2.53D-02 ExpMax= 1.53D+04 ExpMxC= 5.22D+02 IAcc=3 IRadAn=         5 AccDes= 0.00D+00
 HarFok:  IExCor=  205 AccDes= 0.00D+00 IRadAn=         5 IDoV=-2 UseB2=F ITyADJ=14
 ICtDFT= 12500011 ScaDFX=  1.000000  1.000000  1.000000  1.000000
 Range of M.O.s used for correlation:     5   368
 NBasis=   368 NAE=    18 NBE=    18 NFC=     4 NFV=     0
 NROrb=    364 NOA=    14 NOB=    14 NVA=   350 NVB=   350

 **** Warning!!: The largest alpha MO coefficient is  0.38440241D+02

 Disk-based method using ON**2 memory for 14 occupieds at a time.
 Estimated scratch disk usage=  1900028672 words.
 Actual    scratch disk usage=  1788879616 words.
 JobTyp=1 Pass  1:  I=   5 to  18 NPSUse= 28 ParTrn=T ParDer=T DoDerP=T.
 (rs|ai) integrals will be sorted in core.
 Spin components of T(2) and E(2):
     alpha-alpha T2 =       0.2833274067D-01 E2=     -0.1025263768D+00
     alpha-beta  T2 =       0.1755254496D+00 E2=     -0.6789962993D+00
     beta-beta   T2 =       0.2833274067D-01 E2=     -0.1025263768D+00
 ANorm=    0.1110040959D+01
 E2 =    -0.8840490528D+00 EUMP2 =    -0.23107707875835D+03
          IDoAtm=111111111111
          Differentiating once with respect to electric field.
                with respect to dipole field.
          Differentiating once with respect to nuclear coordinates.
 Keep R1 ints in memory in canonical form, NReq=2342280375.
          There are     1 degrees of freedom in the 1st order CPHF.  IDoFFX=0 NUNeed=     1.
 LinEq1:  Iter=  0 NonCon=     1 RMS=2.39D-03 Max=3.34D-02 NDo=     1
 AX will form     1 AO Fock derivatives at one time.
 LinEq1:  Iter=  1 NonCon=     1 RMS=5.12D-04 Max=8.10D-03 NDo=     1
 LinEq1:  Iter=  2 NonCon=     1 RMS=1.68D-04 Max=1.91D-03 NDo=     1
 LinEq1:  Iter=  3 NonCon=     1 RMS=6.43D-05 Max=8.67D-04 NDo=     1
 LinEq1:  Iter=  4 NonCon=     1 RMS=2.05D-05 Max=2.58D-04 NDo=     1
 LinEq1:  Iter=  5 NonCon=     1 RMS=3.66D-06 Max=6.81D-05 NDo=     1
 LinEq1:  Iter=  6 NonCon=     1 RMS=8.10D-07 Max=1.09D-05 NDo=     1
 LinEq1:  Iter=  7 NonCon=     1 RMS=2.75D-07 Max=3.58D-06 NDo=     1
 LinEq1:  Iter=  8 NonCon=     1 RMS=9.01D-08 Max=1.35D-06 NDo=     1
 LinEq1:  Iter=  9 NonCon=     1 RMS=1.76D-08 Max=2.33D-07 NDo=     1
 LinEq1:  Iter= 10 NonCon=     1 RMS=3.04D-09 Max=4.34D-08 NDo=     1
 LinEq1:  Iter= 11 NonCon=     1 RMS=3.65D-10 Max=3.99D-09 NDo=     1
 LinEq1:  Iter= 12 NonCon=     0 RMS=5.67D-11 Max=5.91D-10 NDo=     1
 Linear equations converged to 1.000D-10 1.000D-09 after    12 iterations.
 End of Minotr F.D. properties file   721 does not exist.
 End of Minotr F.D. properties file   722 does not exist.
 End of Minotr F.D. properties file   788 does not exist.
 Calling FoFJK, ICntrl=  10002127 FMM=F ISym2X=0 I1Cent= 0 IOpClX= 0 NMat=1 NMatS=1 NMatT=0.
 ***** Axes restored to original set *****
 -------------------------------------------------------------------
 Center     Atomic                   Forces (Hartrees/Bohr)
 Number     Number              X              Y              Z
 -------------------------------------------------------------------
      1        6          -0.000090080    0.000050094   -0.000027465
      2        8           0.000202680    0.000000307    0.000057020
      3        1          -0.000036472    0.000021409   -0.000001166
      4        1           0.000008293    0.000028772    0.000033516
      5        1           0.000018120   -0.000010538   -0.000031342
      6        6          -0.000090792   -0.000051082   -0.000029018
      7        1           0.000019511    0.000010954   -0.000030489
      8        1           0.000006869   -0.000029302    0.000034240
      9        1          -0.000036616   -0.000020369   -0.000002691
     10        8           0.000118158    0.000000262   -0.000046015
     11        1          -0.000114631   -0.000001506    0.000104139
     12        1          -0.000005040    0.000000999   -0.000060728
 -------------------------------------------------------------------
 Cartesian Forces:  Max     0.000202680 RMS     0.000058139

 GradGradGradGradGradGradGradGradGradGradGradGradGradGradGradGradGradGrad
 Berny optimization.
 Using GEDIIS/GDIIS optimizer.
 FormGI is forming the generalized inverse of G from B-inverse, IUseBI=4.
 Internal  Forces:  Max     0.000351327 RMS     0.000073896
 Search for a local minimum.
 Step number   4 out of a maximum of   53
 All quantities printed in internal units (Hartrees-Bohrs-Radians)
 Mixed Optimization -- En-DIIS/RFO-DIIS
 Swapping is turned off.
 Update second derivatives using D2CorX and points    1    2    3    4
 DE= -4.48D-06 DEPred=-3.44D-06 R= 1.30D+00
 TightC=F SS=  1.41D+00  RLast= 1.03D-02 DXNew= 5.0454D-01 3.0860D-02
 Trust test= 1.30D+00 RLast= 1.03D-02 DXMaxT set to 3.00D-01
 ITU=  1  1  1  0
     Eigenvalues ---    0.00230   0.01257   0.01270   0.01340   0.01999
     Eigenvalues ---    0.05361   0.07610   0.07794   0.07984   0.07985
     Eigenvalues ---    0.10243   0.15195   0.16000   0.16000   0.16000
     Eigenvalues ---    0.16000   0.16082   0.17152   0.19968   0.26110
     Eigenvalues ---    0.33184   0.33200   0.33211   0.33734   0.33959
     Eigenvalues ---    0.35063   0.40620   0.42662   0.52229   0.54498
 En-DIIS/RFO-DIIS/Sim-DIIS IScMMF=       -3 using points:     4    3    2
 RFO step:  Lambda=-2.95626674D-06.
 DidBck=F Rises=F RFO-DIIS coefs:    1.66484   -0.50994   -0.15490
 Iteration  1 RMS(Cart)=  0.00293958 RMS(Int)=  0.00000570
 Iteration  2 RMS(Cart)=  0.00000572 RMS(Int)=  0.00000368
 Iteration  3 RMS(Cart)=  0.00000000 RMS(Int)=  0.00000368
 Variable       Old X    -DE/DX   Delta X   Delta X   Delta X     New X
                                 (Linear)    (Quad)   (Total)
    R1        2.68412  -0.00006  -0.00162   0.00058  -0.00104   2.68308
    R2        2.06546   0.00004   0.00048  -0.00018   0.00030   2.06576
    R3        2.06611   0.00003   0.00052  -0.00021   0.00031   2.06642
    R4        2.05217   0.00003   0.00032  -0.00011   0.00021   2.05239
    R5        2.68412  -0.00006  -0.00162   0.00057  -0.00104   2.68308
    R6        3.53366  -0.00000  -0.00026   0.00006  -0.00019   3.53347
    R7        2.05217   0.00003   0.00032  -0.00011   0.00021   2.05238
    R8        2.06611   0.00003   0.00052  -0.00021   0.00031   2.06642
    R9        2.06546   0.00004   0.00048  -0.00018   0.00030   2.06576
   R10        1.83715   0.00005  -0.00027   0.00020  -0.00007   1.83708
   R11        1.81507   0.00004  -0.00016   0.00013  -0.00003   1.81505
    A1        1.92892  -0.00003   0.00093  -0.00065   0.00027   1.92919
    A2        1.93269  -0.00003   0.00100  -0.00067   0.00033   1.93302
    A3        1.87234  -0.00002   0.00037  -0.00006   0.00031   1.87265
    A4        1.90761   0.00001  -0.00084   0.00036  -0.00048   1.90712
    A5        1.91243   0.00002  -0.00069   0.00047  -0.00022   1.91220
    A6        1.90950   0.00003  -0.00077   0.00057  -0.00020   1.90930
    A7        1.93241  -0.00016   0.00176  -0.00127   0.00047   1.93288
    A8        1.79099   0.00010   0.00191   0.00090   0.00280   1.79379
    A9        1.79093   0.00010   0.00188   0.00092   0.00279   1.79372
   A10        1.87233  -0.00002   0.00037  -0.00006   0.00032   1.87265
   A11        1.93267  -0.00002   0.00100  -0.00067   0.00034   1.93301
   A12        1.92892  -0.00003   0.00093  -0.00065   0.00027   1.92920
   A13        1.90952   0.00003  -0.00077   0.00057  -0.00021   1.90931
   A14        1.91243   0.00002  -0.00070   0.00047  -0.00023   1.91220
   A15        1.90760   0.00001  -0.00084   0.00035  -0.00049   1.90712
   A16        1.83029  -0.00008   0.00110  -0.00106   0.00004   1.83033
   A17        2.79698   0.00035   0.00153   0.00096   0.00249   2.79946
    D1        1.05148  -0.00005  -0.00258   0.00006  -0.00252   1.04896
[...]
 2,-0.00083783,0.00233005,-0.00101837,-0.01380753,-0.02248706,0.0003017
 8,-0.00026305,0.00030199,-0.00029525,0.00007799,0.00089941,0.00013716,
 -0.00006903,-0.00010367,-0.00001018,-0.00001191,0.00002946,-0.00003389
 ,-0.00004984,0.00001496,-0.00644193,0.00015443,0.01586753,0.00054828,-
 0.00311841,0.00178440,-0.00102093,0.00034399,0.00132660,0.00672668,0.0
 0295878,-0.02013031,0.00009636,0.00017668,0.00007638,0.00027842,0.0000
 0423,0.00020590,0.00007737,-0.00004562,-0.00011218,0.00003749,-0.00003
 091,-0.00004820,-0.00011261,-0.00014656,0.00000619,0.00009685,-0.00018
 654,0.00007625,-0.00011458,0.00015123,0.00000538,0.00003823,0.00003232
 ,-0.00004808,0.00007812,0.00004759,-0.00011430,0.00007967,-0.00001950,
 -0.00008875,0.00014903,-0.00000144,0.00025169,0.00000034,0.00004054,-0
 .00001197,0.00003128,-0.00007320,0.00005132,0.00002117,-0.00014849,-0.
 00021380,-0.00009186,0.00001801,-0.00008848,-0.00015065,0.00015248,-0.
 00021943,0.00009431,0.00007492,0.00005247,-0.00002143,-0.00004132,-0.0
 0001213,-0.00003184,0.00000625,0.00018933,0.00000094,-0.00001981,0.000
 03527,0.00014549,0.00000018,-0.00006375,0.00002842,0.00001407,-0.00003
 481,-0.00000620,0.00001440,-0.00005163,-0.00003483,-0.00005354,0.00007
 815,0.00000069,0.00001884,0.00003544,-0.00003609,0.00005493,0.00008028
 ,-0.00000677,-0.00001457,-0.00005264,0.00002919,-0.00001390,-0.0000356
 2,0.00005865,-0.00000462,0.00021337,-0.00007684,-0.00032005,-0.0000700
 6,-0.00038913,-0.00000570,-0.00047637,-0.00010397,0.00007402,0.0001919
 4,-0.00008734,0.00006290,0.00011921,-0.00001818,0.00014051,-0.00007282
 ,-0.00007697,0.00033201,-0.00007089,-0.00001964,-0.00014433,-0.0000736
 5,-0.00008867,-0.00006404,0.00012228,-0.00010615,-0.00007491,0.0001968
 4,-0.00062197,0.00000057,-0.00014036,0.00166238,0.00004263,-0.00013393
 ,-0.00018776,0.00000307,-0.00005226,0.00000105,-0.00003155,0.00004821,
 0.00000006,0.00004767,-0.00002789,-0.00002032,0.00007262,0.00044372,0.
 00013672,-0.00004276,-0.00014068,0.00018913,-0.00007272,0.00045387,-0.
 00014005,-0.00004888,-0.00002839,0.00002084,0.00003162,0.00005010,-0.0
 0000026,-0.00000841,-0.00000897,0.00000231,-0.00000207,-0.00063936,-0.
 00005951,-0.00004356,-0.00002694,-0.00009067,-0.00000093,0.00014787,-0
 .00002377,0.00000026,0.00005438,-0.00000215,-0.00000332,0.00007784,0.0
 0003294,0.00009055,-0.00007599,-0.00006210,0.00004851,-0.00002924,0.00
 003457,-0.00009277,-0.00007778,-0.00000107,0.00000263,0.00008048,-0.00
 002421,-0.00000130,0.00005594,-0.00013708,0.00000628,-0.00018271,0.000
 36444,-0.00000321,-0.00005534,-0.00000767,-0.00003191,-0.00000270,0.00
 001089,-0.00000001,0.00002811,-0.00001495,-0.00000085,0.00000608,0.000
 00256,-0.00000586,0.00000838,0.00002157,0.00004619,-0.00001475,-0.0000
 0732,0.00003264,-0.00000218,0.00002191,-0.00004712,-0.00001540,0.00000
 236,0.00000570,0.00000808,-0.00001441,0.00000069,0.00000588,0.00006663
 ,-0.00000881,-0.00003912,-0.00007345,0.00000878,-0.00003138,-0.0000081
 3,0.00001792,0.00007244,-0.00002393,-0.00000025,-0.00009295,-0.0000000
 9,-0.00000890,-0.00001153,-0.00000858,0.00001539,-0.00001748,0.0000029
 7,0.00003168,-0.00000262,-0.00001588,-0.00001755,0.00007322,0.00002401
 ,-0.00003300,-0.00000221,0.00001600,-0.00001574,-0.00001796,-0.0000031
 4,0.00000905,-0.00001186,0.00000921,-0.00000025,0.00009874,0.00000171,
 0.00000107,0.00003559,-0.00000312,0.00000058,-0.00012335,0.00001337,0.
 00005596,0.00001176,-0.00001330,-0.00000004,0.00001837,0.00000576,-0.0
 0001187,-0.00001033,-0.00000084,-0.00000138,-0.00000586,-0.00000642,-0
 .00003372,-0.00001332,0.00001369,-0.00005766,0.00001169,-0.00000662,0.
 00003471,-0.00001351,-0.00000079,0.00000149,-0.00000573,0.00000564,0.0
 0001219,-0.00001057,0.00003107,-0.00000200,-0.00002135,-0.00009055,0.0
 0000149,0.00003150,0.00004901,0.00000082,0.00000733,0.01006565,0.00463
 031,0.00886102,-0.00220361,-0.00695953,0.00398956,-0.00632818,0.005511
 78,-0.00225598,-0.01201489,0.00569208,-0.00543364,0.00541066,0.0000006
 8,0.02641324,-0.00284237,0.00416195,0.00173366,0.00862942,-0.00001114,
 0.00997152,-0.00403696,-0.00153865,0.00078039,-0.00081825,0.00325217,-
 0.00178610,0.00256005,0.00085428,-0.00067530,0.00067778,-0.00218230,0.
 00213788,-0.00113933,-0.00134088,0.00055649,-0.00019988,0.00093610,-0.
 00039824,0.00113818,-0.00199719,-0.00060787,0.00072139,0.00006683,0.00
 004475,-0.00037177,0.00066802,-0.00183713,-0.00132154,-0.00110450,0.00
 040307,0.00043155,0.00016923,0.00033313,0.00034764,-0.00055458,-0.0008
 3599,-0.00053743,-0.00040271,-0.00016290,0.00038057,-0.00002126,-0.000
 06797,0.00020277,-0.00011878,0.00122524,-0.00008021,0.00156023,-0.0034
 1759,0.00072070,-0.00176203,0.00056680,0.00031383,0.00003504,0.0005758
 8,0.00099402,0.00023116,0.00162697,-0.00033655,0.00100351,0.00051526,-
 0.00040916,-0.00095763,0.00018760,0.00028564,-0.00004784,-0.00029580,0
 .00009778,-0.00004907,-0.00000187,0.00009135,-0.00044852,-0.00187265,0
 .00026248,-0.00006766,-0.00019335,0.00000511,-0.00010089,0.00023215,0.
 00007026,0.00006515,0.00020348,0.00009183,-0.00033401,0.00122175,0.000
 52845,-0.00106929,-0.00091222,-0.00034133,0.00103105,-0.00001426,-0.00
 011811,0.00031297,0.00015140,0.00008889,-0.00000866,0.00027438,-0.0004
 5264,-0.00014043,0.00066432,0.00253292,0.00193991,-0.00063367,-0.00633
 145,-0.00569543,-0.00284814,-0.00053235,0.00072446,0.00006860,-0.00019
 700,-0.00023102,-0.00018705,-0.00027505,-0.00016811,0.00023550,0.01009
 413,-0.00194253,0.00244126,-0.00052467,-0.00551595,-0.00543087,-0.0041
 5263,-0.00052423,-0.00114351,0.00052428,0.00007680,-0.00023594,0.00052
 445,0.00020090,0.00001957,-0.00034321,-0.00462732,0.00889593,-0.000634
 27,0.00053022,0.00060450,-0.00225796,-0.00540705,0.00175249,-0.0004042
 6,-0.00060159,0.00029287,-0.00005660,-0.00042184,0.00006226,0.00014940
 ,-0.00020811,-0.00026493,-0.00219724,0.00695331,0.00400060,-0.00027354
 ,-0.00020098,0.00014761,-0.00041099,0.00095323,0.00018906,0.00000588,-
 0.00007787,0.00002409,0.00001170,-0.00000234,-0.00003016,0.00002083,0.
 00003160,-0.00000033,-0.00034807,-0.00100389,0.00052496,0.00011047,0.0
 0016655,0.00001625,0.00020813,0.00006994,-0.00018325,-0.00000338,0.000
 03453,0.00005357,-0.00003785,-0.00001828,-0.00003395,-0.00004128,-0.00
 003082,0.00012176,0.00003312,0.00044457,-0.00189012,-0.00025684,0.0003
 4018,0.00123040,0.00023465,0.00034479,-0.00026628,-0.00034005,-0.00102
 976,-0.00001609,0.00000008,0.00000369,-0.00002413,-0.00000458,-0.00002
 589,-0.00002834,0.00000006,-0.00003358,0.00002808,0.00052706,0.0010731
 7,-0.00093213,-0.00045878,0.00013746,0.00067919,-0.00019502,-0.0000800
 9,-0.00005735,-0.00131922,0.00110482,0.00040036,0.00004644,-0.00007489
 ,0.00001213,0.00012142,0.00007723,0.00006978,0.00001152,0.00001889,-0.
 00000467,-0.00037606,-0.00066791,-0.00183459,0.00009400,-0.00006630,0.
 00009128,0.00034606,0.00022789,-0.00023879,0.00042153,0.00040284,-0.00
 016009,-0.00037653,0.00003261,0.00010637,-0.00008973,-0.00007622,-0.00
 023050,-0.00027156,0.00000289,-0.00003505,0.00002486,0.00055905,-0.000
 84078,0.00053138,0.00004734,0.00020058,0.00000810,0.00012086,0.0012309
 4,-0.00018726,-0.00053109,0.00006417,0.00072468,0.00176382,0.00056342,
 0.00014100,0.00008446,-0.00004406,0.00006972,0.00027311,-0.00009879,-0
 .00002911,0.00004057,-0.00003007,-0.00008057,-0.00155540,-0.00342042,-
 0.00000531,-0.00009576,0.00027624,0.00099382,-0.00022942,0.00163249,-0
 .00052913,0.00052654,-0.00040492,-0.00082531,-0.00323798,-0.00177480,0
 .00012512,-0.00052646,0.00019399,0.00004711,-0.00003225,0.00014096,0.0
 0000601,-0.00003402,0.00000107,-0.00404684,0.00154175,0.00076588,0.000
 28248,0.00009600,-0.00011238,0.00043793,0.00001913,0.00031290,0.002572
 26,-0.00072384,-0.00114655,0.00060127,0.00219163,0.00213950,0.00113232
 ,0.00052355,-0.00035213,-0.00013804,0.00007506,0.00010526,-0.00008178,
 0.00007840,0.00005303,-0.00000377,-0.00085169,-0.00068629,-0.00067220,
 0.00004636,0.00023484,-0.00031473,-0.00016913,-0.00006737,-0.00003804,
 0.00133272,0.00056562,0.00006867,-0.00052447,0.00029732,0.00113732,0.0
 0199689,-0.00060592,0.00019456,0.00013879,-0.00000079,0.00001144,0.000
 08976,-0.00004417,0.00002320,0.00003813,-0.00002442,-0.00019677,-0.000
 94180,-0.00039544,-0.00029479,-0.00007088,0.00015459,0.00033030,-0.000
 20285,0.00057211,0.00072061,-0.00006379,0.00003554,-0.00169144,0.00242
 636,-0.00104798,-0.01698740,0.00000359,0.00089448,-0.00013667,-0.00080
 847,0.00046543,0.00005978,-0.00014657,0.00005370,-0.00010937,-0.000239
 86,0.00008610,-0.00169441,-0.00242687,-0.00104576,-0.00010961,0.000240
 09,0.00008495,0.00006033,0.00014773,0.00005496,-0.00013581,0.00080905,
 0.00046485,4.97047303,0.00053418,-0.00024699,0.00010163,-0.00000076,0.
 00156923,-0.00000067,-0.00005718,0.00019486,-0.00009111,0.00004375,-0.
 00011716,-0.00016555,0.00025521,0.00009572,0.00008989,-0.00053380,-0.0
 0024793,-0.00010085,-0.00025529,0.00009611,-0.00009005,-0.00004432,-0.
 00011745,0.00016568,0.00005773,0.00019501,0.00009073,0.00052631,-1.289
 70786,-0.00044000,0.00121817,-0.00057016,-0.00352506,-0.00000007,0.001
 40569,-0.00018036,-0.00041127,0.00023540,-0.00014074,-0.00007728,0.000
 05672,-0.00001178,-0.00012123,0.00000035,-0.00043901,-0.00121884,-0.00
 056931,-0.00001171,0.00012166,0.00000046,-0.00014138,0.00007811,0.0000
 5654,-0.00018021,0.00041126,0.00023483,2.48984110,0.00037802,0.0841803
 1,0.00134423,-0.01503505,0.00710763,0.04865468,-0.00001132,-0.00130709
 ,0.00207816,0.00333273,-0.00249879,0.00077420,0.00153384,-0.00203281,0
 .00063220,0.00129844,-0.00004487,0.00135389,0.01503913,0.00710111,0.00
 063254,-0.00129755,-0.00004407,0.00077332,-0.00153748,-0.00203464,0.00
 207419,-0.00333459,-0.00249662,-4.84186287,-0.00058922,-2.60971619,4.7
 9617023,-0.00847060,-0.00093074,0.00040273,-0.00000499,-0.02092378,0.0
 0000373,-0.00027213,-0.00104172,0.00055683,0.00018885,0.00015109,-0.00
 014345,-0.00012618,0.00015904,0.00004418,0.00847388,-0.00094292,-0.000
 41038,0.00012653,0.00015920,-0.00004356,-0.00018822,0.00015297,0.00014
 483,0.00026953,-0.00104063,-0.00055446,-0.00062751,1.24906261,-0.00029
 042,0.00059010,-1.24780767,0.00597112,0.00003078,-0.00094518,0.0004501
 4,0.00000429,-0.01465477,0.00031457,0.00090044,-0.00028616,0.00018455,
 -0.00001882,0.00038029,-0.00006704,0.00003065,0.00014561,0.00596687,-0
 .00003647,-0.00095064,-0.00006651,-0.00003030,0.00014590,0.00018565,0.
 00001872,0.00038257,0.00031326,-0.00090017,-0.00028413,-2.67053567,-0.
 00028048,0.04458299,2.59437890,0.00029799,-0.03388824,-0.00017999,0.00
 014840,-0.00011016,-0.00188825,0.00000031,-0.00014548,-0.00000859,-0.0
 0002220,0.00003744,-0.00000087,-0.00005260,0.00003914,-0.00001537,-0.0
 0002071,0.00002195,-0.00017958,-0.00014977,-0.00011064,-0.00001542,0.0
 0002099,0.00002179,-0.00000067,0.00005327,0.00003972,-0.00000855,0.000
 02248,0.00003729,-0.10786556,0.00006338,0.12494533,-0.01262475,0.00004
 072,0.06290415,0.12278763,0.00003492,0.00006239,-0.00006442,-0.0000025
 5,0.00022805,0.00000001,0.00001245,-0.00000063,-0.00000345,0.00003082,
 -0.00000083,0.00002304,0.00000453,-0.00000565,0.00002929,-0.00003464,0
 .00006175,0.00006364,-0.00000486,-0.00000551,-0.00002950,-0.00003099,-
 0.00000082,-0.00002265,-0.00001255,-0.00000036,0.00000404,0.00009616,0
 .03922386,-0.00008812,0.00001098,0.02300255,-0.00001662,-0.00010427,-0
 .06256481,-0.00021515,0.00030196,-0.00018013,-0.00408010,0.00000050,-0
 .00009460,0.00002304,-0.00006763,0.00006069,-0.00004568,-0.00008723,0.
 00004592,-0.00001748,-0.00003584,-0.00001787,-0.00021578,-0.00030225,-
 0.00017966,-0.00001798,0.00003619,-0.00001777,-0.00004538,0.00008727,0
 .00004572,0.00002373,0.00006755,0.00006071,0.18068383,-0.00009725,-0.1
 2961379,0.01158744,-0.00000803,0.00537175,-0.18768050,0.00010476,0.124
 51902,0.00084827,0.00028503,0.00078168,-0.00028583,-0.00056277,0.00043
 024,-0.00052556,0.00016596,-0.00014469,-0.00104895,0.00033243,-0.00048
 401,0.00046870,-0.00000015,0.00202884,-0.00000639,0.00038061,0.0000656
 6,0.00039592,0.00000218,0.00064035,-0.00037954,-0.00012221,0.00007990,
 -0.00000474,0.00026632,-0.00015976,0.00025302,0.00008571,-0.00008726,0
 .00006680,-0.00013039,0.00021244,-0.00009235,-0.00012618,0.00006248,-0
 .00003092,0.00006481,-0.00008174,0.00008416,-0.00017230,-0.00001538,0.
 00005089,0.00000751,0.00004390,-0.00004902,0.00001160,-0.00005291,-0.0
 0004319,-0.00007811,0.00002379,0.00004674,0.00001702,-0.00000052,0.000
 04225,-0.00007465,-0.00006260,0.00005176,0.00001575,-0.00003916,-0.000
 00070,0.00001081,-0.00000811,0.00002128,0.00002501,0.00006564,-0.00004
 816,0.00011153,-0.00029058,0.00008847,-0.00014090,0.00008667,0.0000433
 6,-0.00000502,0.00003727,0.00001969,-0.00003359,0.00016061,-0.00011173
 ,0.00010331,0.00009790,-0.00003987,-0.00008217,0.00001024,0.00002539,0
 .00000023,-0.00001810,-0.00001070,-0.00000878,-0.00000202,0.00010850,-
 0.00003810,-0.00020697,0.00000270,-0.00002034,0.00001131,0.00000598,-0
 .00000730,0.00000809,-0.00000096,0.00000761,0.00004236,0.00001639,0.00
 000002,0.00015062,0.00010901,-0.00006129,-0.00010263,-0.00002086,0.000
 08232,0.00000726,-0.00002484,0.00002804,0.00001400,0.00000114,-0.00003
 281,0.00001458,-0.00005472,0.00001185,0.00007899,0.00017575,0.00020505
 ,-0.00001121,-0.00052239,-0.00034232,-0.00001333,-0.00003659,0.0000463
 6,0.00000631,-0.00002585,-0.00004825,-0.00001159,-0.00001418,-0.000004
 85,-0.00001140,0.00087312,-0.00020331,0.00018121,-0.00007448,-0.000170
 61,-0.00048020,-0.00038223,-0.00003026,-0.00008501,0.00003073,0.000036
 05,-0.00000014,0.00005839,0.00000638,-0.00000347,-0.00002569,-0.000268
 46,0.00079921,-0.00000860,0.00008256,-0.00000005,-0.00014960,-0.000473
 59,0.00007084,-0.00001699,-0.00005002,0.00003063,0.00001799,-0.0000167
 4,0.00003129,0.00000073,-0.00000831,-0.00002684,-0.00028128,0.00056210
 ,0.00044545,-0.00001336,-0.00000720,0.00000026,-0.00004309,0.00007556,
 0.00001117,0.00000204,-0.00000443,-0.00000187,0.,-0.00000088,-0.000003
 88,0.00000858,0.00000399,0.00000791,-0.00011407,-0.00010612,0.00011045
 ,0.00012474,0.00000340,-0.00000858,0.00001031,0.00001924,0.00002422,-0
 .00000288,0.00000290,0.00000580,0.00000135,0.00000156,-0.00000771,-0.0
 0000189,-0.00000404,0.00001067,0.00000424,0.00003289,-0.00022460,0.000
 00193,0.00001421,0.00015447,-0.00001257,0.00002755,-0.00002717,-0.0000
 2041,-0.00008044,0.00000265,-0.00000436,0.00000078,-0.00000418,-0.0000
 0356,-0.00000623,-0.00000393,0.00000825,-0.00000617,0.00000844,0.00010
 519,0.00006425,-0.00011299,-0.00006335,-0.00001569,0.00008208,-0.00002
 301,-0.00003805,0.00001718,-0.00004197,0.00007633,0.00002066,-0.000000
 07,-0.00000341,-0.00000289,0.00000161,0.00000293,-0.00000537,-0.000000
 66,-0.00000103,-0.00000387,-0.00006627,-0.00001313,-0.00004752,-0.0000
 1406,-0.00000529,0.00000242,0.00005635,0.00004749,-0.00000048,0.000014
 58,-0.00001824,-0.00003851,0.00000519,-0.00000096,0.00000771,-0.000007
 44,-0.00000149,-0.00000441,-0.00001499,0.00000142,-0.00000811,0.000005
 30,0.00007383,-0.00008439,-0.00005521,0.00000652,0.00004216,0.00003064
 ,-0.00002414,0.00008624,-0.00001220,-0.00006169,0.00003299,0.00008884,
 0.00014320,0.00008741,0.00001091,0.00001292,-0.00000770,-0.00000598,0.
 00001798,-0.00000287,-0.00000282,0.00000011,-0.00000548,-0.00004506,-0
 .00011223,-0.00031199,-0.00000728,-0.00002053,0.00002042,0.00001793,0.
 00003598,0.00017609,-0.00003301,0.00003224,-0.00001677,-0.00001534,-0.
 00024876,-0.00014762,0.00000574,-0.00003989,0.00001444,0.00000101,-0.0
 0000026,0.00001109,0.00000155,-0.00000033,-0.00000475,-0.00038100,0.00
 011698,0.00005870,0.00001648,-0.00000513,-0.00001280,0.00005087,-0.000
 00656,0.00004655,0.00026501,-0.00004756,-0.00008774,0.00004752,0.00013
 835,0.00021309,0.00008380,0.00003876,-0.00003575,-0.00000381,0.0000032
 2,0.00000773,-0.00001070,0.00000504,0.00000390,0.00000038,-0.00008501,
 -0.00007538,-0.00006670,-0.00000402,0.00001187,-0.00002713,-0.00001663
 ,-0.00000678,0.00000515,0.00012178,0.00004873,0.00000544,-0.00003291,0
 .00003366,0.00008837,0.00017015,-0.00001366,0.00001406,0.00000416,-0.0
 0000173,-0.00000329,0.00000817,-0.00000818,-0.00000231,-0.00000057,-0.
 00000353,-0.00002683,-0.00006715,-0.00006267,-0.00001582,0.00000063,0.
 00001875,-0.00000279,-0.00002302,0.00003434,0.00004397,-0.00000167,0.0
 0001833,-0.00028735,0.00008712,0.00012344,-0.00054043,0.00000069,0.000
 83814,-0.00000974,-0.00008011,0.00000594,0.00001232,0.00005549,-0.0000
 6179,-0.00000826,-0.00005330,-0.00001864,-0.00028868,-0.00008852,0.000
 12375,-0.00000914,0.00005393,-0.00001970,0.00001309,-0.00005487,-0.000
 06074,-0.00000954,0.00008085,0.00000613,1.76266129,0.00019134,-0.00025
 038,-0.00000468,0.00000004,0.00049587,0.00000003,-0.00001672,0.0000733
 6,0.00000983,-0.00003991,-0.00002172,0.00002538,0.00003158,0.00007683,
 0.00001220,-0.00019168,-0.00025026,0.00000473,-0.00003103,0.00007662,-
 0.00001192,0.00003955,-0.00002195,-0.00002543,0.00001669,0.00007332,-0
 .00001000,-0.00197209,-1.47383721,-0.00025248,-0.00009949,-0.00019618,
 0.00111748,-0.00000019,0.00103931,-0.00000235,-0.00004729,0.00003089,-
 0.00009139,-0.00001921,0.00004926,0.00010152,0.00008504,0.00003312,-0.
 00025129,0.00009951,-0.00019706,0.00010092,-0.00008481,0.00003360,-0.0
 0009216,0.00001966,0.00004921,-0.00000241,0.00004718,0.00003062,-3.663
 48354,0.00270580,3.70044771,0.00025849,-0.00076503,0.00032765,0.003607
 08,-0.00000002,-0.00045791,0.00012326,0.00020457,-0.00013724,0.0000217
 5,0.00006402,-0.00008663,-0.00001076,0.00005598,0.00000679,0.00025850,
 0.00076467,0.00032887,-0.00000999,-0.00005645,0.00000655,0.00002150,-0
 .00006454,-0.00008772,0.00012365,-0.00020442,-0.00013645,-0.23507689,-
 0.00003145,-0.13422633,0.24810117,-0.00043152,-0.00000528,-0.00004767,
 0.00000216,-0.00173869,0.00000047,-0.00002965,-0.00009356,0.00006404,-
 0.00001913,0.00003134,0.00000801,-0.00001443,-0.00001032,-0.00001466,0
 .00043148,-0.00000609,0.00004654,0.00001503,-0.00001053,0.00001510,0.0
 0001942,0.00003179,-0.00000816,0.00002797,-0.00009298,-0.00006336,-0.0
 0005021,0.06707111,-0.00002613,0.00004137,-0.07253274,0.00026153,-0.00
 026867,0.00006269,0.00113094,0.00000078,-0.00091587,0.00005045,0.00009
 615,-0.00004498,-0.00001813,-0.00006595,-0.00001952,-0.00005759,-0.000
 00437,0.00002024,0.00025988,0.00026720,0.00006051,-0.00005679,0.000005
 36,0.00001997,-0.00001764,0.00006565,-0.00001817,0.00005039,-0.0000956
 2,-0.00004458,-0.15692797,-0.00001986,-0.02342105,0.16300937,0.0000128
 5,-0.00120932,0.00014054,0.00004235,-0.00013482,-0.00078151,0.00000018
 ,-0.00051492,-0.00002566,0.00003033,0.00002970,0.00000292,-0.00004129,
 0.00005688,0.00005209,0.00005783,0.00001424,0.00014147,-0.00004376,-0.
 00013661,0.00005204,-0.00005732,0.00001438,0.00000270,0.00004153,0.000
 05760,-0.00002564,-0.00003017,0.00002953,-1.52645667,0.00200368,3.7970
 8203,-0.01741774,0.00000751,-0.00768444,1.54431548,-0.00014992,0.00023
 043,0.00002737,-0.00000180,-0.00020525,-0.00000007,0.00001447,-0.00006
 012,-0.00001532,0.00003653,-0.00000331,-0.00001263,-0.00003875,-0.0000
 7492,-0.00000972,0.00015084,0.00022932,-0.00002760,0.00003831,-0.00007
 461,0.00000925,-0.00003651,-0.00000331,0.00001290,-0.00001463,-0.00005
 993,0.00001567,0.00202103,1.40651441,-0.00268008,-0.00000871,0.0073559
 6,0.00000648,-0.00201087,-1.41384865,0.00028123,0.00041977,0.00007249,
 -0.00265867,0.,-0.00105526,-0.00004111,-0.00002159,-0.00000099,0.00011
 320,0.00007612,-0.00005441,-0.00008125,-0.00010184,-0.00003780,0.00028
 063,-0.00042043,0.00007306,-0.00008166,0.00010216,-0.00003779,0.000114
 03,-0.00007636,-0.00005447,-0.00004087,0.00002148,-0.00000114,3.819474
 97,-0.00268607,-3.67789942,-0.02854695,0.00001298,0.02551008,-3.788813
 57,0.00267376,3.65348564\\@


 AND ALL THIS SCIENCE I DON'T UNDERSTAND
 IT'S JUST MY JOB FIVE DAYS A WEEK

                           -- ELTON JOHN, "ROCKET MAN"
 Job cpu time:      59 days  0 hours 40 minutes 30.4 seconds.
 Elapsed time:       2 days  3 hours 22 minutes 16.1 seconds.
 File lengths (MBytes):  RWF=  39120 Int=      0 D2E=      0 Chk=     68 Scr=      8
 Normal termination of Gaussian 16 at Wed Dec 22 16:43:34 2021.
