 Entering Gaussian System, Link 0=g16
 Input=h2o_h2o_mp2_opt_anharm.gjf
 Output=h2o_h2o_mp2_opt_anharm.log
 Initial command:
 /sw/contrib/gaussian/g16/A03/g16/l1.exe "/gscratch/scrubbed/gds001/Gau-7670.inp" -scrdir="/gscratch/scrubbed/gds001/"
 Entering Link 1 = /sw/contrib/gaussian/g16/A03/g16/l1.exe PID=      7671.
  
 Copyright (c) 1988,1990,1992,1993,1995,1998,2003,2009,2016,
            Gaussian, Inc.  All Rights Reserved.
  
 This is part of the Gaussian(R) 16 program.  It is based on
 the Gaussian(R) 09 system (copyright 2009, Gaussian, Inc.),
 the Gaussian(R) 03 system (copyright 2003, Gaussian, Inc.),
 the Gaussian(R) 98 system (copyright 1998, Gaussian, Inc.),
 the Gaussian(R) 94 system (copyright 1995, Gaussian, Inc.),
 the Gaussian 92(TM) system (copyright 1992, Gaussian, Inc.),
 the Gaussian 90(TM) system (copyright 1990, Gaussian, Inc.),
 the Gaussian 88(TM) system (copyright 1988, Gaussian, Inc.),
 the Gaussian 86(TM) system (copyright 1986, Carnegie Mellon
 University), and the Gaussian 82(TM) system (copyright 1983,
 Carnegie Mellon University). Gaussian is a federally registered
 trademark of Gaussian, Inc.
  
 This software contains proprietary and confidential information,
 including trade secrets, belonging to Gaussian, Inc.
  
 This software is provided under written license and may be
 used, copied, transmitted, or stored only in accord with that
 written license.
  
 The following legend is applicable only to US Government
 contracts under FAR:
  
                    RESTRICTED RIGHTS LEGEND
  
 Use, reproduction and disclosure by the US Government is
 subject to restrictions as set forth in subparagraphs (a)
 and (c) of the Commercial Computer Software - Restricted
 Rights clause in FAR 52.227-19.
  
 Gaussian, Inc.
 340 Quinnipiac St., Bldg. 40, Wallingford CT 06492
  
  
 ---------------------------------------------------------------
 Warning -- This program may not be used in any manner that
 competes with the business of Gaussian, Inc. or will provide
 assistance to any competitor of Gaussian, Inc.  The licensee
 of this program is prohibited from giving any competitor of
 Gaussian, Inc. access to this program.  By using this program,
 the user acknowledges that Gaussian, Inc. is engaged in the
 business of creating and licensing software in the field of
 computational chemistry and represents and warrants to the
 licensee that it is not a competitor of Gaussian, Inc. and that
 it will not use this program in any manner prohibited above.
 ---------------------------------------------------------------
  

 Cite this work as:
 Gaussian 16, Revision A.03,
 M. J. Frisch, G. W. Trucks, H. B. Schlegel, G. E. Scuseria, 
 M. A. Robb, J. R. Cheeseman, G. Scalmani, V. Barone, 
 G. A. Petersson, H. Nakatsuji, X. Li, M. Caricato, A. V. Marenich, 
 J. Bloino, B. G. Janesko, R. Gomperts, B. Mennucci, H. P. Hratchian, 
 J. V. Ortiz, A. F. Izmaylov, J. L. Sonnenberg, D. Williams-Young, 
 F. Ding, F. Lipparini, F. Egidi, J. Goings, B. Peng, A. Petrone, 
 T. Henderson, D. Ranasinghe, V. G. Zakrzewski, J. Gao, N. Rega, 
 G. Zheng, W. Liang, M. Hada, M. Ehara, K. Toyota, R. Fukuda, 
 J. Hasegawa, M. Ishida, T. Nakajima, Y. Honda, O. Kitao, H. Nakai, 
 T. Vreven, K. Throssell, J. A. Montgomery, Jr., J. E. Peralta, 
 F. Ogliaro, M. J. Bearpark, J. J. Heyd, E. N. Brothers, K. N. Kudin, 
 V. N. Staroverov, T. A. Keith, R. Kobayashi, J. Normand, 
 K. Raghavachari, A. P. Rendell, J. C. Burant, S. S. Iyengar, 
 J. Tomasi, M. Cossi, J. M. Millam, M. Klene, C. Adamo, R. Cammi, 
 J. W. Ochterski, R. L. Martin, K. Morokuma, O. Farkas, 
 J. B. Foresman, and D. J. Fox, Gaussian, Inc., Wallingford CT, 2016.
 
 ******************************************
 Gaussian 16:  ES64L-G16RevA.03 25-Dec-2016
                 4-Aug-2020 
 ******************************************
 %nprocshared=28
 Will use up to   28 processors via shared memory.
 %mem=41GB
 %chk=h2o_h2o.chk
 ---------------------------------------------
 # MP2/aug-cc-pVDZ Opt Freq(vibrot,anharmonic)
 ---------------------------------------------
 1/18=20,19=15,38=1,80=1/1,3;
 2/9=110,12=2,17=6,18=5,40=1/2;
 3/5=16,7=10,11=9,25=1,30=1,71=1/1,2,3;
 4//1;
 5/5=2,38=5/2;
 8/6=4,10=1/1;
 9/15=2,16=-3/6;
 10/5=1/2;
 6/7=2,8=2,9=2,10=2/1;
 7/12=2/1,2,3,16;
 1/18=20,19=15,80=1/3(2);
 2/9=110/2;
 99//99;
 2/9=110/2;
 3/5=16,7=10,11=9,25=1,30=1,71=1/1,2,3;
 4/5=5,16=3,69=1/1;
 5/5=2,38=5/2;
 8/6=4,10=1/1;
 9/15=2,16=-3/6;
 10/5=1/2;
 7/12=2/1,2,3,16;
 1/18=20,19=15,80=1/3(-8);
 2/9=110/2;
 6/7=2,8=2,9=2,10=2/1;
 99//99;
 -------
 h2o_h2o
 -------
 Symbolic Z-matrix:
 Charge =  0 Multiplicity = 1
 O                    -2.85052   2.80807   0.17578 
 H                    -1.97093   3.24597   0.14759 
 H                    -2.96154   2.54478  -0.7497 
 O                    -0.38535   3.97014  -0.19332 
 H                     0.47163   3.59356   0.07095 
 H                    -0.19978   4.92425  -0.22958 
 
 Add virtual bond connecting atoms O4         and H2         Dist= 3.36D+00.

 GradGradGradGradGradGradGradGradGradGradGradGradGradGradGradGradGradGrad
 Berny optimization.
 Initialization pass.
                           ----------------------------
                           !    Initial Parameters    !
                           ! (Angstroms and Degrees)  !
 --------------------------                            --------------------------
 ! Name  Definition              Value          Derivative Info.                !
 --------------------------------------------------------------------------------
 ! R1    R(1,2)                  0.983          estimate D2E/DX2                !
 ! R2    R(1,3)                  0.9686         estimate D2E/DX2                !
 ! R3    R(2,4)                  1.7761         estimate D2E/DX2                !
 ! R4    R(4,5)                  0.9727         estimate D2E/DX2                !
 ! R5    R(4,6)                  0.9727         estimate D2E/DX2                !
 ! A1    A(2,1,3)              101.3181         estimate D2E/DX2                !
 ! A2    A(2,4,5)              125.2065         estimate D2E/DX2                !
 ! A3    A(2,4,6)              125.269          estimate D2E/DX2                !
 ! A4    A(5,4,6)              102.8158         estimate D2E/DX2                !
 ! A5    L(1,2,4,3,-1)         170.3868         estimate D2E/DX2                !
 ! A6    L(1,2,4,3,-2)         180.0094         estimate D2E/DX2                !
 ! D1    D(3,1,4,5)           -104.5918         estimate D2E/DX2                !
 ! D2    D(3,1,4,6)            104.4164         estimate D2E/DX2                !
 ! D3    D(2,4,5,6)           -152.2821         estimate D2E/DX2                !
 --------------------------------------------------------------------------------
 Trust Radius=3.00D-01 FncErr=1.00D-07 GrdErr=1.00D-07 EigMax=2.50D+02 EigMin=1.00D-04
 Number of steps in this run=     24 maximum allowed number of steps=    100.
 GradGradGradGradGradGradGradGradGradGradGradGradGradGradGradGradGradGrad

                          Input orientation:                          
 ---------------------------------------------------------------------
 Center     Atomic      Atomic             Coordinates (Angstroms)
 Number     Number       Type             X           Y           Z
 ---------------------------------------------------------------------
      1          8           0       -2.850520    2.808065    0.175778
      2          1           0       -1.970931    3.245969    0.147589
      3          1           0       -2.961535    2.544780   -0.749700
      4          8           0       -0.385355    3.970144   -0.193322
      5          1           0        0.471629    3.593555    0.070950
      6          1           0       -0.199782    4.924254   -0.229580
 ---------------------------------------------------------------------
                    Distance matrix (angstroms):
                    1          2          3          4          5
     1  O    0.000000
     2  H    0.982971   0.000000
     3  H    0.968583   1.509335   0.000000
     4  O    2.750218   1.776148   2.996319   0.000000
     5  H    3.415356   2.468357   3.682392   0.972666   0.000000
     6  H    3.415988   2.468980   3.682350   0.972665   1.520483
                    6
     6  H    0.000000
 Stoichiometry    H4O2
 Framework group  C1[X(H4O2)]
 Deg. of freedom    12
 Full point group                 C1      NOp   1
 Largest Abelian subgroup         C1      NOp   1
 Largest concise Abelian subgroup C1      NOp   1
                         Standard orientation:                         
 ---------------------------------------------------------------------
 Center     Atomic      Atomic             Coordinates (Angstroms)
 Number     Number       Type             X           Y           Z
 ---------------------------------------------------------------------
      1          8           0       -1.473441    0.000728   -0.105626
      2          1           0       -0.491812    0.001025   -0.156958
      3          1           0       -1.613675   -0.006005    0.852728
      4          8           0        1.272494   -0.000312    0.047792
      5          1           0        1.856199    0.761059   -0.112466
      6          1           0        1.856867   -0.759403   -0.120633
 ---------------------------------------------------------------------
 Rotational constants (GHZ):         238.6401168           7.0816876           7.0606887
 Standard basis: Aug-CC-pVDZ (5D, 7F)
 There are    86 symmetry adapted cartesian basis functions of A   symmetry.
 There are    82 symmetry adapted basis functions of A   symmetry.
    82 basis functions,   130 primitive gaussians,    86 cartesian basis functions
    10 alpha electrons       10 beta electrons
       nuclear repulsion energy        37.3866261090 Hartrees.
 NAtoms=    6 NActive=    6 NUniq=    6 SFac= 1.00D+00 NAtFMM=   60 NAOKFM=F Big=F
 Integral buffers will be    131072 words long.
 Raffenetti 1 integral format.
 Two-electron integral symmetry is turned on.
 One-electron integrals computed using PRISM.
 NBasis=    82 RedAO= T EigKep=  1.91D-03  NBF=    82
 NBsUse=    82 1.00D-06 EigRej= -1.00D+00 NBFU=    82
 ExpMin= 2.97D-02 ExpMax= 1.17D+04 ExpMxC= 4.01D+02 IAcc=3 IRadAn=         5 AccDes= 0.00D+00
 Harris functional with IExCor=  205 and IRadAn=       5 diagonalized for initial guess.
 HarFok:  IExCor=  205 AccDes= 0.00D+00 IRadAn=         5 IDoV= 1 UseB2=F ITyADJ=14
 ICtDFT=  3500011 ScaDFX=  1.000000  1.000000  1.000000  1.000000
 FoFCou: FMM=F IPFlag=           0 FMFlag=      100000 FMFlg1=           0
         NFxFlg=           0 DoJE=T BraDBF=F KetDBF=T FulRan=T
         wScrn=  0.000000 ICntrl=       500 IOpCl=  0 I1Cent=   200000004 NGrid=           0
         NMat0=    1 NMatS0=      1 NMatT0=    0 NMatD0=    1 NMtDS0=    0 NMtDT0=    0
 Petite list used in FoFCou.
 Keep R1 ints in memory in canonical form, NReq=11656486.
 Requested convergence on RMS density matrix=1.00D-08 within 128 cycles.
 Requested convergence on MAX density matrix=1.00D-06.
 Requested convergence on             energy=1.00D-06.
 No special actions if energy rises.
 SCF Done:  E(RHF) =  -152.083586139     A.U. after   11 cycles
            NFock= 11  Conv=0.43D-08     -V/T= 2.0019
 ExpMin= 2.97D-02 ExpMax= 1.17D+04 ExpMxC= 4.01D+02 IAcc=3 IRadAn=         5 AccDes= 0.00D+00
 HarFok:  IExCor=  205 AccDes= 0.00D+00 IRadAn=         5 IDoV=-2 UseB2=F ITyADJ=14
 ICtDFT= 12500011 ScaDFX=  1.000000  1.000000  1.000000  1.000000
 Range of M.O.s used for correlation:     3    82
 NBasis=    82 NAE=    10 NBE=    10 NFC=     2 NFV=     0
 NROrb=     80 NOA=     8 NOB=     8 NVA=    72 NVB=    72
 Fully direct method using O(ONN) memory.
 JobTyp=1 Pass  1:  I=   3 to  10 NPSUse= 28 ParTrn=T ParDer=T DoDerP=T.
 Spin components of T(2) and E(2):
     alpha-alpha T2 =       0.1587630121D-01 E2=     -0.5704085109D-01
     alpha-beta  T2 =       0.8862705136D-01 E2=     -0.3307258654D+00
     beta-beta   T2 =       0.1587630121D-01 E2=     -0.5704085109D-01
 ANorm=    0.1058479879D+01
 E2 =    -0.4448075676D+00 EUMP2 =    -0.15252839370620D+03
          IDoAtm=111111
          Differentiating once with respect to electric field.
                with respect to dipole field.
          Differentiating once with respect to nuclear coordinates.
 Keep R1 ints in memory in canonical form, NReq=11658402.
          There are     1 degrees of freedom in the 1st order CPHF.  IDoFFX=0 NUNeed=     1.
 LinEq1:  Iter=  0 NonCon=     1 RMS=5.99D-03 Max=5.97D-02 NDo=     1
 AX will form     1 AO Fock derivatives at one time.
 LinEq1:  Iter=  1 NonCon=     1 RMS=1.25D-03 Max=9.36D-03 NDo=     1
 LinEq1:  Iter=  2 NonCon=     1 RMS=4.63D-04 Max=4.00D-03 NDo=     1
 LinEq1:  Iter=  3 NonCon=     1 RMS=4.97D-05 Max=3.44D-04 NDo=     1
 LinEq1:  Iter=  4 NonCon=     1 RMS=7.32D-06 Max=4.97D-05 NDo=     1
 LinEq1:  Iter=  5 NonCon=     1 RMS=3.17D-06 Max=2.38D-05 NDo=     1
 LinEq1:  Iter=  6 NonCon=     1 RMS=6.42D-07 Max=4.05D-06 NDo=     1
 LinEq1:  Iter=  7 NonCon=     1 RMS=1.15D-07 Max=7.21D-07 NDo=     1
 LinEq1:  Iter=  8 NonCon=     1 RMS=1.55D-08 Max=8.59D-08 NDo=     1
 LinEq1:  Iter=  9 NonCon=     1 RMS=2.34D-09 Max=1.41D-08 NDo=     1
 LinEq1:  Iter= 10 NonCon=     1 RMS=4.36D-10 Max=2.30D-09 NDo=     1
 LinEq1:  Iter= 11 NonCon=     0 RMS=6.59D-11 Max=3.84D-10 NDo=     1
 Linear equations converged to 1.000D-10 1.000D-09 after    11 iterations.
 End of Minotr F.D. properties file   721 does not exist.
 End of Minotr F.D. properties file   722 does not exist.
 End of Minotr F.D. properties file   788 does not exist.

 **********************************************************************

            Population analysis using the SCF density.

 **********************************************************************

 Orbital symmetries:
       Occupied  (A) (A) (A) (A) (A) (A) (A) (A) (A) (A)
       Virtual   (A) (A) (A) (A) (A) (A) (A) (A) (A) (A) (A) (A)
                 (A) (A) (A) (A) (A) (A) (A) (A) (A) (A) (A) (A)
                 (A) (A) (A) (A) (A) (A) (A) (A) (A) (A) (A) (A)
                 (A) (A) (A) (A) (A) (A) (A) (A) (A) (A) (A) (A)
                 (A) (A) (A) (A) (A) (A) (A) (A) (A) (A) (A) (A)
                 (A) (A) (A) (A) (A) (A) (A) (A) (A) (A) (A) (A)
 The electronic state is 1-A.
 Alpha  occ. eigenvalues --  -20.61177 -20.53711  -1.38599  -1.30988  -0.74048
 Alpha  occ. eigenvalues --   -0.68738  -0.61913  -0.54746  -0.53600  -0.46923
 Alpha virt. eigenvalues --    0.02391   0.05186   0.05960   0.08553   0.17439
 Alpha virt. eigenvalues --    0.18189   0.20831   0.21028   0.22669   0.24491
 Alpha virt. eigenvalues --    0.26545   0.28648   0.29506   0.32047   0.36068
 Alpha virt. eigenvalues --    0.36463   0.38282   0.43271   0.46038   0.50213
 Alpha virt. eigenvalues --    0.53559   0.55558   0.56132   0.60700   0.64677
 Alpha virt. eigenvalues --    0.64934   0.68308   0.77185   0.79885   0.92117
 Alpha virt. eigenvalues --    0.94890   0.97182   1.12040   1.14278   1.15109
 Alpha virt. eigenvalues --    1.18208   1.22574   1.23603   1.35346   1.42503
 Alpha virt. eigenvalues --    1.46156   1.49521   1.57687   1.65557   1.65662
 Alpha virt. eigenvalues --    1.93896   1.96373   1.98940   2.07748   2.09569
 Alpha virt. eigenvalues --    2.12568   2.24844   2.41649   2.44204   2.48986
 Alpha virt. eigenvalues --    2.55645   2.60581   2.77503   2.78457   2.96786
 Alpha virt. eigenvalues --    3.05181   3.07125   3.67516   3.70392   3.71718
 Alpha virt. eigenvalues --    3.73637   3.77756   3.82439   4.04057   4.11454
 Alpha virt. eigenvalues --    4.28398   4.42637
          Condensed to atoms (all electrons):
               1          2          3          4          5          6
     1  O    7.799643   0.290201   0.340101  -0.037352  -0.000397  -0.000391
     2  H    0.290201   0.478227  -0.033609  -0.035952  -0.002310  -0.002298
     3  H    0.340101  -0.033609   0.557026   0.000127  -0.000477  -0.000478
     4  O   -0.037352  -0.035952   0.000127   7.818300   0.349556   0.349520
     5  H   -0.000397  -0.002310  -0.000477   0.349556   0.495471  -0.038283
     6  H   -0.000391  -0.002298  -0.000478   0.349520  -0.038283   0.495417
 Mulliken charges:
               1
     1  O   -0.391805
     2  H    0.305741
     3  H    0.137310
     4  O   -0.444199
     5  H    0.196440
     6  H    0.196513
 Sum of Mulliken charges =  -0.00000
 Mulliken charges with hydrogens summed into heavy atoms:
               1
     1  O    0.051246
     4  O   -0.051246
 Electronic spatial extent (au):  <R**2>=            176.3907
 Charge=             -0.0000 electrons
 Dipole moment (field-independent basis, Debye):
    X=              4.1223    Y=             -0.0068    Z=              0.9333  Tot=              4.2266
 Quadrupole moment (field-independent basis, Debye-Ang):
   XX=            -10.1636   YY=            -11.8875   ZZ=            -12.9669
   XY=              0.0276   XZ=             -4.1376   YZ=              0.0021
 Traceless Quadrupole moment (field-independent basis, Debye-Ang):
   XX=              1.5090   YY=             -0.2148   ZZ=             -1.2942
   XY=              0.0276   XZ=             -4.1376   YZ=              0.0021
 Octapole moment (field-independent basis, Debye-Ang**2):
  XXX=             22.0834  YYY=              0.0029  ZZZ=              1.5360  XYY=              6.7490
  XXY=             -0.0280  XXZ=              3.2719  XZZ=             -2.2821  YZZ=             -0.0119
  YYZ=             -0.1369  XYZ=              0.0540
 Hexadecapole moment (field-independent basis, Debye-Ang**3):
 XXXX=           -146.1370 YYYY=            -13.0493 ZZZZ=            -13.4391 XXXY=              0.0886
 XXXZ=            -14.7110 YYYX=              0.0248 YYYZ=              0.0102 ZZZX=             -3.9980
 ZZZY=             -0.0090 XXYY=            -24.1002 XXZZ=            -28.9803 YYZZ=             -4.9423
 XXYZ=              0.0179 YYXZ=             -1.2502 ZZXY=              0.0121
 N-N= 3.738662610900D+01 E-N=-4.358397335961D+02  KE= 1.517881860778D+02
 Calling FoFJK, ICntrl=  10002127 FMM=F ISym2X=0 I1Cent= 0 IOpClX= 0 NMat=1 NMatS=1 NMatT=0.
 ***** Axes restored to original set *****
 -------------------------------------------------------------------
 Center     Atomic                   Forces (Hartrees/Bohr)
 Number     Number              X              Y              Z
 -------------------------------------------------------------------
      1        8           0.007280460    0.002612775   -0.004749197
      2        1          -0.009901478   -0.004524356    0.002093926
      3        1          -0.002468142   -0.000533183    0.003193512
      4        8           0.015099271    0.007761181    0.000641409
      5        1          -0.006162401   -0.000360871   -0.001110539
      6        1          -0.003847709   -0.004955546   -0.000069110
 -------------------------------------------------------------------
 Cartesian Forces:  Max     0.015099271 RMS     0.005721285

 GradGradGradGradGradGradGradGradGradGradGradGradGradGradGradGradGradGrad
 Berny optimization.
 FormGI is forming the generalized inverse of G from B-inverse, IUseBI=4.
 Internal  Forces:  Max     0.005698088 RMS     0.003682225
 Search for a local minimum.
 Step number   1 out of a maximum of   24
 All quantities printed in internal units (Hartrees-Bohrs-Radians)
 Mixed Optimization -- RFO/linear search
 Second derivative matrix not updated -- first step.
 The second derivative matrix:
                          R1        R2        R3        R4        R5
           R1           0.50812
           R2           0.00000   0.53668
           R3           0.00000   0.00000   0.06394
           R4           0.00000   0.00000   0.00000   0.52836
           R5           0.00000   0.00000   0.00000   0.00000   0.52836
           A1           0.00000   0.00000   0.00000   0.00000   0.00000
           A2           0.00000   0.00000   0.00000   0.00000   0.00000
           A3           0.00000   0.00000   0.00000   0.00000   0.00000
           A4           0.00000   0.00000   0.00000   0.00000   0.00000
           A5           0.00000   0.00000   0.00000   0.00000   0.00000
           A6           0.00000   0.00000   0.00000   0.00000   0.00000
           D1           0.00000   0.00000   0.00000   0.00000   0.00000
           D2           0.00000   0.00000   0.00000   0.00000   0.00000
           D3           0.00000   0.00000   0.00000   0.00000   0.00000
                          A1        A2        A3        A4        A5
           A1           0.16000
           A2           0.00000   0.16000
           A3           0.00000   0.00000   0.16000
           A4           0.00000   0.00000   0.00000   0.16000
           A5           0.00000   0.00000   0.00000   0.00000   0.00230
           A6           0.00000   0.00000   0.00000   0.00000   0.00000
           D1           0.00000   0.00000   0.00000   0.00000   0.00000
           D2           0.00000   0.00000   0.00000   0.00000   0.00000
           D3           0.00000   0.00000   0.00000   0.00000   0.00000
                          A6        D1        D2        D3
           A6           0.00230
           D1           0.00000   0.00230
           D2           0.00000   0.00000   0.00230
           D3           0.00000   0.00000   0.00000   0.01390
 ITU=  0
     Eigenvalues ---    0.00230   0.00230   0.00230   0.01618   0.06393
     Eigenvalues ---    0.15352   0.16000   0.16000   0.50801   0.52836
     Eigenvalues ---    0.52836   0.53668
 RFO step:  Lambda=-2.65501731D-03 EMin= 2.30000000D-03
 Linear search not attempted -- first point.
 Maximum step size (   0.300) exceeded in Quadratic search.
    -- Step size scaled by   0.536
 Iteration  1 RMS(Cart)=  0.10480443 RMS(Int)=  0.02695626
 Iteration  2 RMS(Cart)=  0.03982735 RMS(Int)=  0.00178787
 Iteration  3 RMS(Cart)=  0.00200188 RMS(Int)=  0.00109537
 Iteration  4 RMS(Cart)=  0.00000016 RMS(Int)=  0.00109537
 Variable       Old X    -DE/DX   Delta X   Delta X   Delta X     New X
                                 (Linear)    (Quad)   (Total)
    R1        1.85755  -0.00527   0.00000  -0.00552  -0.00547   1.85207
    R2        1.83036  -0.00262   0.00000  -0.00261  -0.00261   1.82775
    R3        3.35643   0.00564   0.00000   0.04531   0.04529   3.40172
    R4        1.83807  -0.00559   0.00000  -0.00564  -0.00564   1.83243
    R5        1.83807  -0.00559   0.00000  -0.00564  -0.00564   1.83243
    A1        1.76834   0.00570   0.00000   0.01876   0.01876   1.78710
    A2        2.18527  -0.00171   0.00000  -0.00374  -0.00428   2.18098
    A3        2.18636  -0.00177   0.00000  -0.00420  -0.00392   2.18244
    A4        1.79447   0.00369   0.00000   0.01423   0.01318   1.80765
    A5        2.97381   0.00293   0.00000   0.29525   0.29622   3.27003
    A6        3.14176   0.00000   0.00000   0.00036   0.00036   3.14211
    D1       -1.82547  -0.00021   0.00000  -0.06527  -0.06314  -1.88861
    D2        1.82241   0.00021   0.00000   0.06569   0.06355   1.88596
    D3       -2.65782  -0.00015   0.00000  -0.01163  -0.00933  -2.66716
         Item               Value     Threshold  Converged?
 Maximum Force            0.005698     0.000450     NO 
 RMS     Force            0.003682     0.000300     NO 
 Maximum Displacement     0.333890     0.001800     NO 
 RMS     Displacement     0.139674     0.001200     NO 
 Predicted change in Energy=-1.172598D-03
 GradGradGradGradGradGradGradGradGradGradGradGradGradGradGradGradGradGrad

                          Input orientation:                          
 ---------------------------------------------------------------------
 Center     Atomic      Atomic             Coordinates (Angstroms)
 Number     Number       Type             X           Y           Z
 ---------------------------------------------------------------------
      1          8           0       -2.822491    2.824139    0.184869
      2          1           0       -1.950403    3.216858   -0.029098
      3          1           0       -3.113558    2.485095   -0.672927
      4          8           0       -0.335651    3.994252   -0.198333
      5          1           0        0.499008    3.616304    0.119130
      6          1           0       -0.173399    4.950120   -0.181926
 ---------------------------------------------------------------------
                    Distance matrix (angstroms):
                    1          2          3          4          5
     1  O    0.000000
     2  H    0.980075   0.000000
     3  H    0.967204   1.517538   0.000000
     4  O    2.774956   1.800112   3.196805   0.000000
     5  H    3.415289   2.486190   3.867508   0.969682   0.000000
     6  H    3.416434   2.487025   3.868069   0.969680   1.523756
                    6
     6  H    0.000000
 Stoichiometry    H4O2
 Framework group  C1[X(H4O2)]
 Deg. of freedom    12
 Full point group                 C1      NOp   1
 Largest Abelian subgroup         C1      NOp   1
 Largest concise Abelian subgroup C1      NOp   1
                         Standard orientation:                         
 ---------------------------------------------------------------------
 Center     Atomic      Atomic             Coordinates (Angstroms)
 Number     Number       Type             X           Y           Z
 ---------------------------------------------------------------------
      1          8           0       -1.471927    0.000615   -0.120000
      2          1           0       -0.502477   -0.000311    0.023919
      3          1           0       -1.815981   -0.004159    0.783929
      4          8           0        1.297312   -0.000297    0.058016
      5          1           0        1.857054    0.762837   -0.153168
      6          1           0        1.858327   -0.760908   -0.158807
 ---------------------------------------------------------------------
 Rotational constants (GHZ):         245.1623273           6.9228933           6.8965722
 Standard basis: Aug-CC-pVDZ (5D, 7F)
 There are    86 symmetry adapted cartesian basis functions of A   symmetry.
 There are    82 symmetry adapted basis functions of A   symmetry.
    82 basis functions,   130 primitive gaussians,    86 cartesian basis functions
    10 alpha electrons       10 beta electrons
       nuclear repulsion energy        37.1826077542 Hartrees.
 NAtoms=    6 NActive=    6 NUniq=    6 SFac= 1.00D+00 NAtFMM=   60 NAOKFM=F Big=F
 Integral buffers will be    131072 words long.
 Raffenetti 1 integral format.
 Two-electron integral symmetry is turned on.
 One-electron integrals computed using PRISM.
 NBasis=    82 RedAO= T EigKep=  1.65D-03  NBF=    82
 NBsUse=    82 1.00D-06 EigRej= -1.00D+00 NBFU=    82
 Initial guess from the checkpoint file:  "h2o_h2o.chk"
 B after Tr=    -0.000000   -0.000000   -0.000000
         Rot=    0.999993    0.000848    0.003763    0.000012 Ang=   0.44 deg.
 ExpMin= 2.97D-02 ExpMax= 1.17D+04 ExpMxC= 4.01D+02 IAcc=3 IRadAn=         5 AccDes= 0.00D+00
 Harris functional with IExCor=  205 and IRadAn=       5 diagonalized for initial guess.
 HarFok:  IExCor=  205 AccDes= 0.00D+00 IRadAn=         5 IDoV= 1 UseB2=F ITyADJ=14
 ICtDFT=  3500011 ScaDFX=  1.000000  1.000000  1.000000  1.000000
 FoFCou: FMM=F IPFlag=           0 FMFlag=      100000 FMFlg1=           0
         NFxFlg=           0 DoJE=T BraDBF=F KetDBF=T FulRan=T
         wScrn=  0.000000 ICntrl=       500 IOpCl=  0 I1Cent=   200000004 NGrid=           0
         NMat0=    1 NMatS0=      1 NMatT0=    0 NMatD0=    1 NMtDS0=    0 NMtDT0=    0
 Petite list used in FoFCou.
 Keep R1 ints in memory in canonical form, NReq=11656222.
 Requested convergence on RMS density matrix=1.00D-08 within 128 cycles.
 Requested convergence on MAX density matrix=1.00D-06.
 Requested convergence on             energy=1.00D-06.
 No special actions if energy rises.
 SCF Done:  E(RHF) =  -152.084888361     A.U. after   11 cycles
            NFock= 11  Conv=0.72D-08     -V/T= 2.0019
 ExpMin= 2.97D-02 ExpMax= 1.17D+04 ExpMxC= 4.01D+02 IAcc=3 IRadAn=         5 AccDes= 0.00D+00
 HarFok:  IExCor=  205 AccDes= 0.00D+00 IRadAn=         5 IDoV=-2 UseB2=F ITyADJ=14
 ICtDFT= 12500011 ScaDFX=  1.000000  1.000000  1.000000  1.000000
 Range of M.O.s used for correlation:     3    82
 NBasis=    82 NAE=    10 NBE=    10 NFC=     2 NFV=     0
 NROrb=     80 NOA=     8 NOB=     8 NVA=    72 NVB=    72
 Fully direct method using O(ONN) memory.
 JobTyp=1 Pass  1:  I=   3 to  10 NPSUse= 28 ParTrn=T ParDer=T DoDerP=T.
 Spin components of T(2) and E(2):
     alpha-alpha T2 =       0.1583028202D-01 E2=     -0.5694469971D-01
     alpha-beta  T2 =       0.8838737985D-01 E2=     -0.3303061677D+00
     beta-beta   T2 =       0.1583028202D-01 E2=     -0.5694469971D-01
 ANorm=    0.1058323176D+01
 E2 =    -0.4441955671D+00 EUMP2 =    -0.15252908392834D+03
          IDoAtm=111111
          Differentiating once with respect to electric field.
                with respect to dipole field.
          Differentiating once with respect to nuclear coordinates.
 Keep R1 ints in memory in canonical form, NReq=11658358.
          There are     1 degrees of freedom in the 1st order CPHF.  IDoFFX=0 NUNeed=     1.
 LinEq1:  Iter=  0 NonCon=     1 RMS=5.98D-03 Max=5.88D-02 NDo=     1
 AX will form     1 AO Fock derivatives at one time.
 LinEq1:  Iter=  1 NonCon=     1 RMS=1.25D-03 Max=9.10D-03 NDo=     1
 LinEq1:  Iter=  2 NonCon=     1 RMS=4.60D-04 Max=3.81D-03 NDo=     1
 LinEq1:  Iter=  3 NonCon=     1 RMS=4.97D-05 Max=3.49D-04 NDo=     1
 LinEq1:  Iter=  4 NonCon=     1 RMS=8.29D-06 Max=5.56D-05 NDo=     1
 LinEq1:  Iter=  5 NonCon=     1 RMS=3.39D-06 Max=2.39D-05 NDo=     1
 LinEq1:  Iter=  6 NonCon=     1 RMS=7.19D-07 Max=4.05D-06 NDo=     1
 LinEq1:  Iter=  7 NonCon=     1 RMS=1.36D-07 Max=7.83D-07 NDo=     1
 LinEq1:  Iter=  8 NonCon=     1 RMS=1.62D-08 Max=9.42D-08 NDo=     1
 LinEq1:  Iter=  9 NonCon=     1 RMS=2.63D-09 Max=1.42D-08 NDo=     1
 LinEq1:  Iter= 10 NonCon=     1 RMS=5.30D-10 Max=2.32D-09 NDo=     1
 LinEq1:  Iter= 11 NonCon=     0 RMS=8.12D-11 Max=5.66D-10 NDo=     1
 Linear equations converged to 1.000D-10 1.000D-09 after    11 iterations.
 End of Minotr F.D. properties file   721 does not exist.
 End of Minotr F.D. properties file   722 does not exist.
 End of Minotr F.D. properties file   788 does not exist.
 Calling FoFJK, ICntrl=  10002127 FMM=F ISym2X=0 I1Cent= 0 IOpClX= 0 NMat=1 NMatS=1 NMatT=0.
 ***** Axes restored to original set *****
 -------------------------------------------------------------------
 Center     Atomic                   Forces (Hartrees/Bohr)
 Number     Number              X              Y              Z
 -------------------------------------------------------------------
      1        8           0.004651881    0.000920138   -0.006385416
      2        1          -0.006474381   -0.002123479    0.005096621
      3        1          -0.001912458   -0.000436325    0.002373355
      4        8           0.010069194    0.005067533   -0.000043850
      5        1          -0.003809931   -0.000436318   -0.000809467
      6        1          -0.002524305   -0.002991548   -0.000231243
 -------------------------------------------------------------------
 Cartesian Forces:  Max     0.010069194 RMS     0.004102505

 GradGradGradGradGradGradGradGradGradGradGradGradGradGradGradGradGradGrad
 Berny optimization.
 Using GEDIIS/GDIIS optimizer.
 FormGI is forming the generalized inverse of G from B-inverse, IUseBI=4.
 Internal  Forces:  Max     0.005034180 RMS     0.002538063
 Search for a local minimum.
 Step number   2 out of a maximum of   24
 All quantities printed in internal units (Hartrees-Bohrs-Radians)
 Mixed Optimization -- RFO/linear search
 Update second derivatives using D2CorX and points    1    2
 DE= -6.90D-04 DEPred=-1.17D-03 R= 5.89D-01
 TightC=F SS=  1.41D+00  RLast= 3.14D-01 DXNew= 5.0454D-01 9.4188D-01
 Trust test= 5.89D-01 RLast= 3.14D-01 DXMaxT set to 5.05D-01
 The second derivative matrix:
                          R1        R2        R3        R4        R5
           R1           0.49472
           R2          -0.00630   0.53382
           R3           0.01442   0.00688   0.04855
           R4          -0.01397  -0.00647   0.01512   0.51389
           R5          -0.01397  -0.00647   0.01512  -0.01448   0.51388
           A1           0.01604   0.00790  -0.01688   0.01705   0.01705
           A2          -0.00350  -0.00169   0.00372  -0.00369  -0.00369
           A3          -0.00276  -0.00124   0.00303  -0.00282  -0.00282
           A4           0.01009   0.00472  -0.01087   0.01050   0.01050
           A5          -0.00122  -0.00163   0.00024  -0.00221  -0.00221
           A6           0.00000   0.00000  -0.00000   0.00000   0.00000
           D1          -0.00011   0.00009   0.00026   0.00001   0.00001
           D2           0.00011  -0.00009  -0.00026  -0.00001  -0.00001
           D3           0.00041   0.00043  -0.00019   0.00064   0.00064
                          A1        A2        A3        A4        A5
           A1           0.14209
           A2           0.00403   0.15910
           A3           0.00352  -0.00075   0.15947
           A4          -0.01214   0.00265   0.00207   0.15240
           A5          -0.00224   0.00015  -0.00087   0.00109   0.01283
           A6          -0.00000   0.00000   0.00000  -0.00000   0.00000
           D1           0.00062  -0.00009   0.00006   0.00006  -0.00141
           D2          -0.00062   0.00009  -0.00006  -0.00006   0.00142
           D3           0.00036  -0.00000   0.00023  -0.00035  -0.00241
                          A6        D1        D2        D3
           A6           0.00230
           D1          -0.00000   0.00248
           D2           0.00000  -0.00018   0.00249
           D3          -0.00000   0.00033  -0.00033   0.01445
 ITU=  1  0
 Use linear search instead of GDIIS.
     Eigenvalues ---    0.00230   0.00230   0.01163   0.01845   0.04113
     Eigenvalues ---    0.13369   0.15369   0.16014   0.47999   0.51687
     Eigenvalues ---    0.52836   0.53618
 RFO step:  Lambda=-1.18389382D-03 EMin= 2.29999794D-03
 Quartic linear search produced a step of  0.00640.
 Iteration  1 RMS(Cart)=  0.04255338 RMS(Int)=  0.00092801
 Iteration  2 RMS(Cart)=  0.00132891 RMS(Int)=  0.00021151
 Iteration  3 RMS(Cart)=  0.00000021 RMS(Int)=  0.00021151
 Variable       Old X    -DE/DX   Delta X   Delta X   Delta X     New X
                                 (Linear)    (Quad)   (Total)
    R1        1.85207  -0.00350  -0.00004  -0.01442  -0.01445   1.83762
    R2        1.82775  -0.00138  -0.00002  -0.00613  -0.00615   1.82160
    R3        3.40172   0.00416   0.00029   0.12538   0.12567   3.52739
    R4        1.83243  -0.00337  -0.00004  -0.01413  -0.01417   1.81827
    R5        1.83243  -0.00338  -0.00004  -0.01413  -0.01417   1.81826
    A1        1.78710   0.00503   0.00012   0.05713   0.05725   1.84435
    A2        2.18098  -0.00143  -0.00003  -0.01797  -0.01789   2.16309
    A3        2.18244  -0.00116  -0.00003  -0.01664  -0.01671   2.16572
    A4        1.80765   0.00228   0.00008   0.02898   0.02927   1.83692
    A5        3.27003  -0.00109   0.00190  -0.07969  -0.07797   3.19206
    A6        3.14211   0.00000   0.00000   0.00082   0.00083   3.14294
    D1       -1.88861   0.00036  -0.00040   0.01806   0.01724  -1.87137
    D2        1.88596  -0.00035   0.00041  -0.01736  -0.01653   1.86943
    D3       -2.66716   0.00076  -0.00006   0.01340   0.01290  -2.65426
         Item               Value     Threshold  Converged?
 Maximum Force            0.005034     0.000450     NO 
 RMS     Force            0.002538     0.000300     NO 
 Maximum Displacement     0.077688     0.001800     NO 
 RMS     Displacement     0.041842     0.001200     NO 
 Predicted change in Energy=-6.086964D-04
 GradGradGradGradGradGradGradGradGradGradGradGradGradGradGradGradGradGrad

                          Input orientation:                          
 ---------------------------------------------------------------------
 Center     Atomic      Atomic             Coordinates (Angstroms)
 Number     Number       Type             X           Y           Z
 ---------------------------------------------------------------------
      1          8           0       -2.847166    2.808002    0.169279
      2          1           0       -1.977143    3.212900    0.012013
      3          1           0       -3.135834    2.470540   -0.686284
      4          8           0       -0.302953    4.011132   -0.198128
      5          1           0        0.520306    3.622574    0.113430
      6          1           0       -0.153703    4.961620   -0.188594
 ---------------------------------------------------------------------
                    Distance matrix (angstroms):
                    1          2          3          4          5
     1  O    0.000000
     2  H    0.972427   0.000000
     3  H    0.963949   1.543139   0.000000
     4  O    2.838226   1.866614   3.261431   0.000000
     5  H    3.465041   2.532858   3.915875   0.962185   0.000000
     6  H    3.467114   2.534403   3.917432   0.962182   1.529232
                    6
     6  H    0.000000
 Stoichiometry    H4O2
 Framework group  C1[X(H4O2)]
 Deg. of freedom    12
 Full point group                 C1      NOp   1
 Largest Abelian subgroup         C1      NOp   1
 Largest concise Abelian subgroup C1      NOp   1
                         Standard orientation:                         
 ---------------------------------------------------------------------
 Center     Atomic      Atomic             Coordinates (Angstroms)
 Number     Number       Type             X           Y           Z
 ---------------------------------------------------------------------
      1          8           0       -1.502358    0.000533   -0.115147
      2          1           0       -0.534206   -0.000400   -0.024081
      3          1           0       -1.848547   -0.003720    0.784482
      4          8           0        1.330657   -0.000321    0.056757
      5          1           0        1.876991    0.765824   -0.144091
      6          1           0        1.879377   -0.763397   -0.149193
 ---------------------------------------------------------------------
 Rotational constants (GHZ):         246.6590371           6.6379050           6.6111630
 Standard basis: Aug-CC-pVDZ (5D, 7F)
 There are    86 symmetry adapted cartesian basis functions of A   symmetry.
 There are    82 symmetry adapted basis functions of A   symmetry.
    82 basis functions,   130 primitive gaussians,    86 cartesian basis functions
    10 alpha electrons       10 beta electrons
       nuclear repulsion energy        36.8630508811 Hartrees.
 NAtoms=    6 NActive=    6 NUniq=    6 SFac= 1.00D+00 NAtFMM=   60 NAOKFM=F Big=F
 Integral buffers will be    131072 words long.
 Raffenetti 1 integral format.
 Two-electron integral symmetry is turned on.
 One-electron integrals computed using PRISM.
 NBasis=    82 RedAO= T EigKep=  1.76D-03  NBF=    82
 NBsUse=    82 1.00D-06 EigRej= -1.00D+00 NBFU=    82
 Initial guess from the checkpoint file:  "h2o_h2o.chk"
 B after Tr=     0.000000    0.000000    0.000000
         Rot=    1.000000    0.000178   -0.000284   -0.000020 Ang=   0.04 deg.
 ExpMin= 2.97D-02 ExpMax= 1.17D+04 ExpMxC= 4.01D+02 IAcc=3 IRadAn=         5 AccDes= 0.00D+00
 Harris functional with IExCor=  205 and IRadAn=       5 diagonalized for initial guess.
 HarFok:  IExCor=  205 AccDes= 0.00D+00 IRadAn=         5 IDoV= 1 UseB2=F ITyADJ=14
 ICtDFT=  3500011 ScaDFX=  1.000000  1.000000  1.000000  1.000000
 FoFCou: FMM=F IPFlag=           0 FMFlag=      100000 FMFlg1=           0
         NFxFlg=           0 DoJE=T BraDBF=F KetDBF=T FulRan=T
         wScrn=  0.000000 ICntrl=       500 IOpCl=  0 I1Cent=   200000004 NGrid=           0
         NMat0=    1 NMatS0=      1 NMatT0=    0 NMatD0=    1 NMtDS0=    0 NMtDT0=    0
 Petite list used in FoFCou.
 Keep R1 ints in memory in canonical form, NReq=11656046.
 Requested convergence on RMS density matrix=1.00D-08 within 128 cycles.
 Requested convergence on MAX density matrix=1.00D-06.
 Requested convergence on             energy=1.00D-06.
 No special actions if energy rises.
 SCF Done:  E(RHF) =  -152.087229936     A.U. after   10 cycles
            NFock= 10  Conv=0.34D-08     -V/T= 2.0017
 ExpMin= 2.97D-02 ExpMax= 1.17D+04 ExpMxC= 4.01D+02 IAcc=3 IRadAn=         5 AccDes= 0.00D+00
 HarFok:  IExCor=  205 AccDes= 0.00D+00 IRadAn=         5 IDoV=-2 UseB2=F ITyADJ=14
 ICtDFT= 12500011 ScaDFX=  1.000000  1.000000  1.000000  1.000000
 Range of M.O.s used for correlation:     3    82
 NBasis=    82 NAE=    10 NBE=    10 NFC=     2 NFV=     0
 NROrb=     80 NOA=     8 NOB=     8 NVA=    72 NVB=    72
 Fully direct method using O(ONN) memory.
 JobTyp=1 Pass  1:  I=   3 to  10 NPSUse= 28 ParTrn=T ParDer=T DoDerP=T.
 Spin components of T(2) and E(2):
     alpha-alpha T2 =       0.1567729294D-01 E2=     -0.5666024426D-01
     alpha-beta  T2 =       0.8761824857D-01 E2=     -0.3290684732D+00
     beta-beta   T2 =       0.1567729294D-01 E2=     -0.5666024426D-01
 ANorm=    0.1057815123D+01
 E2 =    -0.4423889617D+00 EUMP2 =    -0.15252961889769D+03
          IDoAtm=111111
          Differentiating once with respect to electric field.
                with respect to dipole field.
          Differentiating once with respect to nuclear coordinates.
 Keep R1 ints in memory in canonical form, NReq=11658226.
          There are     1 degrees of freedom in the 1st order CPHF.  IDoFFX=0 NUNeed=     1.
 LinEq1:  Iter=  0 NonCon=     1 RMS=5.91D-03 Max=5.92D-02 NDo=     1
 AX will form     1 AO Fock derivatives at one time.
 LinEq1:  Iter=  1 NonCon=     1 RMS=1.23D-03 Max=8.80D-03 NDo=     1
 LinEq1:  Iter=  2 NonCon=     1 RMS=4.50D-04 Max=3.46D-03 NDo=     1
 LinEq1:  Iter=  3 NonCon=     1 RMS=4.78D-05 Max=3.45D-04 NDo=     1
 LinEq1:  Iter=  4 NonCon=     1 RMS=7.56D-06 Max=5.26D-05 NDo=     1
 LinEq1:  Iter=  5 NonCon=     1 RMS=3.22D-06 Max=2.31D-05 NDo=     1
 LinEq1:  Iter=  6 NonCon=     1 RMS=6.78D-07 Max=3.75D-06 NDo=     1
 LinEq1:  Iter=  7 NonCon=     1 RMS=1.24D-07 Max=6.90D-07 NDo=     1
 LinEq1:  Iter=  8 NonCon=     1 RMS=1.52D-08 Max=9.19D-08 NDo=     1
 LinEq1:  Iter=  9 NonCon=     1 RMS=2.48D-09 Max=1.35D-08 NDo=     1
 LinEq1:  Iter= 10 NonCon=     1 RMS=4.82D-10 Max=2.42D-09 NDo=     1
 LinEq1:  Iter= 11 NonCon=     0 RMS=7.04D-11 Max=4.50D-10 NDo=     1
 Linear equations converged to 1.000D-10 1.000D-09 after    11 iterations.
 End of Minotr F.D. properties file   721 does not exist.
 End of Minotr F.D. properties file   722 does not exist.
 End of Minotr F.D. properties file   788 does not exist.
 Calling FoFJK, ICntrl=  10002127 FMM=F ISym2X=0 I1Cent= 0 IOpClX= 0 NMat=1 NMatS=1 NMatT=0.
 ***** Axes restored to original set *****
 -------------------------------------------------------------------
 Center     Atomic                   Forces (Hartrees/Bohr)
 Number     Number              X              Y              Z
 -------------------------------------------------------------------
      1        8          -0.001926962   -0.000311241    0.002968859
      2        1          -0.001514627   -0.001133226   -0.001669642
      3        1           0.001738930    0.000687821   -0.000855485
      4        8          -0.001808686   -0.001487384   -0.002550795
      5        1           0.002795037   -0.000938070    0.001517281
      6        1           0.000716307    0.003182099    0.000589782
 -------------------------------------------------------------------
 Cartesian Forces:  Max     0.003182099 RMS     0.001782480

 GradGradGradGradGradGradGradGradGradGradGradGradGradGradGradGradGradGrad
 Berny optimization.
 Using GEDIIS/GDIIS optimizer.
 FormGI is forming the generalized inverse of G from B-inverse, IUseBI=4.
 Internal  Forces:  Max     0.003745957 RMS     0.001684005
 Search for a local minimum.
 Step number   3 out of a maximum of   24
 All quantities printed in internal units (Hartrees-Bohrs-Radians)
 Mixed Optimization -- RFO/linear search
 Update second derivatives using D2CorX and points    1    2    3
 DE= -5.35D-04 DEPred=-6.09D-04 R= 8.79D-01
 TightC=F SS=  1.41D+00  RLast= 1.67D-01 DXNew= 8.4853D-01 5.0192D-01
 Trust test= 8.79D-01 RLast= 1.67D-01 DXMaxT set to 5.05D-01
 The second derivative matrix:
                          R1        R2        R3        R4        R5
           R1           0.49573
           R2          -0.00641   0.53354
           R3           0.02108   0.01019   0.03729
           R4          -0.00243  -0.00227   0.01651   0.54452
           R5          -0.00244  -0.00227   0.01652   0.01615   0.54450
           A1           0.00264   0.00306  -0.01878  -0.01890  -0.01889
           A2          -0.00547  -0.00275   0.00813  -0.00265  -0.00265
           A3          -0.00475  -0.00231   0.00754  -0.00168  -0.00168
           A4           0.00700   0.00375  -0.01331  -0.00049  -0.00049
           A5          -0.00100  -0.00144  -0.00129  -0.00373  -0.00373
           A6           0.00000   0.00000  -0.00001   0.00000   0.00000
           D1          -0.00186  -0.00063   0.00122  -0.00306  -0.00306
           D2           0.00186   0.00063  -0.00122   0.00305   0.00305
           D3           0.00066   0.00053  -0.00018   0.00129   0.00129
                          A1        A2        A3        A4        A5
           A1           0.18428
           A2           0.00290   0.15746
           A3           0.00228  -0.00242   0.15776
           A4           0.00071   0.00302   0.00242   0.15602
           A5          -0.00054   0.00067  -0.00035   0.00139   0.01278
           A6          -0.00000   0.00000   0.00000  -0.00000   0.00000
           D1           0.00425  -0.00062  -0.00049   0.00135  -0.00113
           D2          -0.00425   0.00062   0.00049  -0.00135   0.00114
           D3          -0.00039   0.00003   0.00026  -0.00059  -0.00246
                          A6        D1        D2        D3
           A6           0.00230
           D1           0.00000   0.00269
           D2          -0.00000  -0.00039   0.00269
           D3          -0.00000   0.00026  -0.00027   0.01447
 ITU=  1  1  0
 Use linear search instead of GDIIS.
     Eigenvalues ---    0.00230   0.00230   0.01106   0.01888   0.03084
     Eigenvalues ---    0.14888   0.15794   0.18453   0.49595   0.52836
     Eigenvalues ---    0.53452   0.56416
 RFO step:  Lambda=-1.84982691D-04 EMin= 2.29999648D-03
 Quartic linear search produced a step of -0.07558.
 Iteration  1 RMS(Cart)=  0.01632578 RMS(Int)=  0.00020318
 Iteration  2 RMS(Cart)=  0.00017261 RMS(Int)=  0.00011670
 Iteration  3 RMS(Cart)=  0.00000003 RMS(Int)=  0.00011670
 Variable       Old X    -DE/DX   Delta X   Delta X   Delta X     New X
                                 (Linear)    (Quad)   (Total)
    R1        1.83762   0.00035   0.00109  -0.00245  -0.00135   1.83627
    R2        1.82160  -0.00000   0.00046  -0.00130  -0.00084   1.82076
    R3        3.52739   0.00190  -0.00950   0.05431   0.04481   3.57220
    R4        1.81827   0.00326   0.00107   0.00271   0.00379   1.82205
    R5        1.81826   0.00326   0.00107   0.00271   0.00378   1.82204
    A1        1.84435  -0.00375  -0.00433  -0.00932  -0.01365   1.83070
    A2        2.16309  -0.00003   0.00135  -0.00831  -0.00717   2.15592
    A3        2.16572   0.00014   0.00126  -0.00717  -0.00608   2.15964
    A4        1.83692  -0.00038  -0.00221  -0.00082  -0.00328   1.83364
    A5        3.19206   0.00000   0.00589   0.01264   0.01860   3.21066
    A6        3.14294   0.00000  -0.00006   0.00057   0.00051   3.14345
    D1       -1.87137  -0.00036  -0.00130  -0.02089  -0.02204  -1.89341
    D2        1.86943   0.00036   0.00125   0.02120   0.02230   1.89173
    D3       -2.65426   0.00049  -0.00098   0.03283   0.03192  -2.62234
         Item               Value     Threshold  Converged?
 Maximum Force            0.003746     0.000450     NO 
 RMS     Force            0.001684     0.000300     NO 
 Maximum Displacement     0.022145     0.001800     NO 
 RMS     Displacement     0.016258     0.001200     NO 
 Predicted change in Energy=-9.657795D-05
 GradGradGradGradGradGradGradGradGradGradGradGradGradGradGradGradGradGrad

                          Input orientation:                          
 ---------------------------------------------------------------------
 Center     Atomic      Atomic             Coordinates (Angstroms)
 Number     Number       Type             X           Y           Z
 ---------------------------------------------------------------------
      1          8           0       -2.854921    2.804683    0.172908
      2          1           0       -1.986756    3.205577    0.000294
      3          1           0       -3.145734    2.466552   -0.681163
      4          8           0       -0.291286    4.014971   -0.208499
      5          1           0        0.528023    3.627233    0.120211
      6          1           0       -0.145819    4.967751   -0.182036
 ---------------------------------------------------------------------
                    Distance matrix (angstroms):
                    1          2          3          4          5
     1  O    0.000000
     2  H    0.971711   0.000000
     3  H    0.963505   1.534202   0.000000
     4  O    2.860506   1.890325   3.281598   0.000000
     5  H    3.481907   2.552701   3.935209   0.964188   0.000000
     6  H    3.484836   2.554906   3.937590   0.964183   1.530491
                    6
     6  H    0.000000
 Stoichiometry    H4O2
 Framework group  C1[X(H4O2)]
 Deg. of freedom    12
 Full point group                 C1      NOp   1
 Largest Abelian subgroup         C1      NOp   1
 Largest concise Abelian subgroup C1      NOp   1
                         Standard orientation:                         
 ---------------------------------------------------------------------
 Center     Atomic      Atomic             Coordinates (Angstroms)
 Number     Number       Type             X           Y           Z
 ---------------------------------------------------------------------
      1          8           0       -1.512814    0.000615   -0.116387
      2          1           0       -0.546709   -0.000641   -0.012155
      3          1           0       -1.858879   -0.004259    0.782812
      4          8           0        1.342222   -0.000420    0.060435
      5          1           0        1.883464    0.766905   -0.158489
      6          1           0        1.886860   -0.763570   -0.164554
 ---------------------------------------------------------------------
 Rotational constants (GHZ):         244.6106204           6.5414507           6.5165938
 Standard basis: Aug-CC-pVDZ (5D, 7F)
 There are    86 symmetry adapted cartesian basis functions of A   symmetry.
 There are    82 symmetry adapted basis functions of A   symmetry.
    82 basis functions,   130 primitive gaussians,    86 cartesian basis functions
    10 alpha electrons       10 beta electrons
       nuclear repulsion energy        36.7055684516 Hartrees.
 NAtoms=    6 NActive=    6 NUniq=    6 SFac= 1.00D+00 NAtFMM=   60 NAOKFM=F Big=F
 Integral buffers will be    131072 words long.
 Raffenetti 1 integral format.
 Two-electron integral symmetry is turned on.
 One-electron integrals computed using PRISM.
 NBasis=    82 RedAO= T EigKep=  1.74D-03  NBF=    82
 NBsUse=    82 1.00D-06 EigRej= -1.00D+00 NBFU=    82
 Initial guess from the checkpoint file:  "h2o_h2o.chk"
 B after Tr=    -0.000000   -0.000000   -0.000000
         Rot=    1.000000   -0.000344   -0.000115   -0.000018 Ang=  -0.04 deg.
 ExpMin= 2.97D-02 ExpMax= 1.17D+04 ExpMxC= 4.01D+02 IAcc=3 IRadAn=         5 AccDes= 0.00D+00
 Harris functional with IExCor=  205 and IRadAn=       5 diagonalized for initial guess.
 HarFok:  IExCor=  205 AccDes= 0.00D+00 IRadAn=         5 IDoV= 1 UseB2=F ITyADJ=14
 ICtDFT=  3500011 ScaDFX=  1.000000  1.000000  1.000000  1.000000
 FoFCou: FMM=F IPFlag=           0 FMFlag=      100000 FMFlg1=           0
         NFxFlg=           0 DoJE=T BraDBF=F KetDBF=T FulRan=T
         wScrn=  0.000000 ICntrl=       500 IOpCl=  0 I1Cent=   200000004 NGrid=           0
         NMat0=    1 NMatS0=      1 NMatT0=    0 NMatD0=    1 NMtDS0=    0 NMtDT0=    0
 Petite list used in FoFCou.
 Keep R1 ints in memory in canonical form, NReq=11655738.
 Requested convergence on RMS density matrix=1.00D-08 within 128 cycles.
 Requested convergence on MAX density matrix=1.00D-06.
 Requested convergence on             energy=1.00D-06.
 No special actions if energy rises.
 SCF Done:  E(RHF) =  -152.087304367     A.U. after    9 cycles
            NFock=  9  Conv=0.68D-08     -V/T= 2.0018
 ExpMin= 2.97D-02 ExpMax= 1.17D+04 ExpMxC= 4.01D+02 IAcc=3 IRadAn=         5 AccDes= 0.00D+00
 HarFok:  IExCor=  205 AccDes= 0.00D+00 IRadAn=         5 IDoV=-2 UseB2=F ITyADJ=14
 ICtDFT= 12500011 ScaDFX=  1.000000  1.000000  1.000000  1.000000
 Range of M.O.s used for correlation:     3    82
 NBasis=    82 NAE=    10 NBE=    10 NFC=     2 NFV=     0
 NROrb=     80 NOA=     8 NOB=     8 NVA=    72 NVB=    72
 Fully direct method using O(ONN) memory.
 JobTyp=1 Pass  1:  I=   3 to  10 NPSUse= 28 ParTrn=T ParDer=T DoDerP=T.
 Spin components of T(2) and E(2):
     alpha-alpha T2 =       0.1568787150D-01 E2=     -0.5665144590D-01
     alpha-beta  T2 =       0.8773380003D-01 E2=     -0.3291665390D+00
     beta-beta   T2 =       0.1568787150D-01 E2=     -0.5665144590D-01
 ANorm=    0.1057879739D+01
 E2 =    -0.4424694308D+00 EUMP2 =    -0.15252977379805D+03
          IDoAtm=111111
          Differentiating once with respect to electric field.
                with respect to dipole field.
          Differentiating once with respect to nuclear coordinates.
 Keep R1 ints in memory in canonical form, NReq=11657918.
          There are     1 degrees of freedom in the 1st order CPHF.  IDoFFX=0 NUNeed=     1.
 LinEq1:  Iter=  0 NonCon=     1 RMS=5.91D-03 Max=5.95D-02 NDo=     1
 AX will form     1 AO Fock derivatives at one time.
 LinEq1:  Iter=  1 NonCon=     1 RMS=1.24D-03 Max=8.84D-03 NDo=     1
 LinEq1:  Iter=  2 NonCon=     1 RMS=4.52D-04 Max=3.74D-03 NDo=     1
 LinEq1:  Iter=  3 NonCon=     1 RMS=4.79D-05 Max=3.46D-04 NDo=     1
 LinEq1:  Iter=  4 NonCon=     1 RMS=6.80D-06 Max=4.76D-05 NDo=     1
 LinEq1:  Iter=  5 NonCon=     1 RMS=3.00D-06 Max=2.19D-05 NDo=     1
 LinEq1:  Iter=  6 NonCon=     1 RMS=6.72D-07 Max=3.81D-06 NDo=     1
 LinEq1:  Iter=  7 NonCon=     1 RMS=1.24D-07 Max=6.97D-07 NDo=     1
 LinEq1:  Iter=  8 NonCon=     1 RMS=1.51D-08 Max=9.92D-08 NDo=     1
 LinEq1:  Iter=  9 NonCon=     1 RMS=2.45D-09 Max=1.44D-08 NDo=     1
 LinEq1:  Iter= 10 NonCon=     1 RMS=4.76D-10 Max=2.48D-09 NDo=     1
 LinEq1:  Iter= 11 NonCon=     0 RMS=6.87D-11 Max=4.31D-10 NDo=     1
 Linear equations converged to 1.000D-10 1.000D-09 after    11 iterations.
 End of Minotr F.D. properties file   721 does not exist.
 End of Minotr F.D. properties file   722 does not exist.
 End of Minotr F.D. properties file   788 does not exist.
 Calling FoFJK, ICntrl=  10002127 FMM=F ISym2X=0 I1Cent= 0 IOpClX= 0 NMat=1 NMatS=1 NMatT=0.
 ***** Axes restored to original set *****
 -------------------------------------------------------------------
 Center     Atomic                   Forces (Hartrees/Bohr)
 Number     Number              X              Y              Z
 -------------------------------------------------------------------
      1        8          -0.001279033   -0.000161022    0.002185539
      2        1          -0.000434010   -0.000331501   -0.000540350
      3        1           0.000529406    0.000001726   -0.001190868
      4        8          -0.000205970   -0.000540421   -0.001920572
      5        1           0.001072558   -0.000228821    0.000900039
      6        1           0.000317048    0.001260039    0.000566212
 -------------------------------------------------------------------
 Cartesian Forces:  Max     0.002185539 RMS     0.000965281

 GradGradGradGradGradGradGradGradGradGradGradGradGradGradGradGradGradGrad
 Berny optimization.
 Using GEDIIS/GDIIS optimizer.
 FormGI is forming the generalized inverse of G from B-inverse, IUseBI=4.
 Internal  Forces:  Max     0.001724477 RMS     0.000863072
 Search for a local minimum.
 Step number   4 out of a maximum of   24
 All quantities printed in internal units (Hartrees-Bohrs-Radians)
 Mixed Optimization -- En-DIIS/RFO-DIIS
 Update second derivatives using D2CorX and points    1    2    3    4
 DE= -1.55D-04 DEPred=-9.66D-05 R= 1.60D+00
 TightC=F SS=  1.41D+00  RLast= 6.84D-02 DXNew= 8.4853D-01 2.0506D-01
 Trust test= 1.60D+00 RLast= 6.84D-02 DXMaxT set to 5.05D-01
 The second derivative matrix:
                          R1        R2        R3        R4        R5
           R1           0.50604
           R2           0.00590   0.54817
           R3           0.01140   0.00087   0.02318
           R4          -0.02056  -0.02145   0.00149   0.53459
           R5          -0.02057  -0.02146   0.00152   0.00625   0.53463
           A1           0.02060   0.02161   0.00080  -0.00267  -0.00269
           A2          -0.00502  -0.00318   0.01715   0.00974   0.00973
           A3          -0.00400  -0.00226   0.01479   0.00824   0.00823
           A4           0.00563   0.00119  -0.00097   0.01650   0.01650
           A5          -0.00488  -0.00586   0.00023   0.00028   0.00028
           A6           0.00001   0.00001  -0.00002  -0.00002  -0.00002
           D1          -0.00152  -0.00036   0.00180  -0.00210  -0.00211
           D2           0.00151   0.00035  -0.00180   0.00211   0.00212
           D3           0.00120   0.00154  -0.00499  -0.00531  -0.00531
                          A1        A2        A3        A4        A5
           A1           0.16093
           A2          -0.01136   0.15365
           A3          -0.00919  -0.00562   0.15511
           A4          -0.01845  -0.00157  -0.00153   0.15112
           A5          -0.00403   0.00152   0.00015   0.00312   0.01383
           A6           0.00003   0.00001   0.00001   0.00000  -0.00000
           D1           0.00326  -0.00097  -0.00074   0.00079  -0.00144
           D2          -0.00327   0.00098   0.00074  -0.00078   0.00145
           D3           0.00713   0.00179   0.00179   0.00129  -0.00326
                          A6        D1        D2        D3
           A6           0.00230
           D1           0.00000   0.00273
           D2          -0.00000  -0.00043   0.00273
           D3          -0.00000   0.00053  -0.00053   0.01378
 ITU=  1  1  1  0
 Use linear search instead of GDIIS.
     Eigenvalues ---    0.00230   0.00230   0.00718   0.01501   0.02859
     Eigenvalues ---    0.14504   0.15758   0.16164   0.48927   0.52473
     Eigenvalues ---    0.52836   0.58439
 RFO step:  Lambda=-1.20637555D-04 EMin= 2.29991864D-03
 Quartic linear search produced a step of  1.65167.
 Iteration  1 RMS(Cart)=  0.03974182 RMS(Int)=  0.00177520
 Iteration  2 RMS(Cart)=  0.00111092 RMS(Int)=  0.00128061
 Iteration  3 RMS(Cart)=  0.00000158 RMS(Int)=  0.00128061
 Iteration  4 RMS(Cart)=  0.00000000 RMS(Int)=  0.00128061
 Variable       Old X    -DE/DX   Delta X   Delta X   Delta X     New X
                                 (Linear)    (Quad)   (Total)
    R1        1.83627   0.00091  -0.00223   0.00136  -0.00086   1.83540
    R2        1.82076   0.00090  -0.00138   0.00328   0.00190   1.82266
    R3        3.57220   0.00132   0.07401   0.05061   0.12462   3.69682
    R4        1.82205   0.00131   0.00625  -0.00252   0.00373   1.82578
    R5        1.82204   0.00131   0.00625  -0.00253   0.00372   1.82576
    A1        1.83070  -0.00172  -0.02254   0.00467  -0.01787   1.81283
    A2        2.15592  -0.00010  -0.01184  -0.01299  -0.02719   2.12874
    A3        2.15964   0.00008  -0.01005  -0.01110  -0.02381   2.13583
    A4        1.83364  -0.00029  -0.00542  -0.00594  -0.01419   1.81945
    A5        3.21066  -0.00027   0.03072  -0.02568   0.00540   3.21606
    A6        3.14345   0.00000   0.00084   0.00198   0.00282   3.14627
    D1       -1.89341  -0.00031  -0.03640  -0.02650  -0.06196  -1.95537
    D2        1.89173   0.00031   0.03683   0.02622   0.06211   1.95383
    D3       -2.62234   0.00052   0.05271   0.05594   0.10799  -2.51435
         Item               Value     Threshold  Converged?
 Maximum Force            0.001724     0.000450     NO 
 RMS     Force            0.000863     0.000300     NO 
 Maximum Displacement     0.062542     0.001800     NO 
 RMS     Displacement     0.039358     0.001200     NO 
 Predicted change in Energy=-1.357269D-04
 GradGradGradGradGradGradGradGradGradGradGradGradGradGradGradGradGradGrad

                          Input orientation:                          
 ---------------------------------------------------------------------
 Center     Atomic      Atomic             Coordinates (Angstroms)
 Number     Number       Type             X           Y           Z
 ---------------------------------------------------------------------
      1          8           0       -2.878427    2.793139    0.178979
      2          1           0       -2.012555    3.191587   -0.007676
      3          1           0       -3.167258    2.456157   -0.677351
      4          8           0       -0.258271    4.025112   -0.241595
      5          1           0        0.544529    3.641807    0.135314
      6          1           0       -0.124511    4.978966   -0.165956
 ---------------------------------------------------------------------
                    Distance matrix (angstroms):
                    1          2          3          4          5
     1  O    0.000000
     2  H    0.971254   0.000000
     3  H    0.964511   1.524028   0.000000
     4  O    2.925723   1.956270   3.333723   0.000000
     5  H    3.526865   2.600351   3.980396   0.966163   0.000000
     6  H    3.532828   2.604705   3.985524   0.966153   1.525245
                    6
     6  H    0.000000
 Stoichiometry    H4O2
 Framework group  C1[X(H4O2)]
 Deg. of freedom    12
 Full point group                 C1      NOp   1
 Largest Abelian subgroup         C1      NOp   1
 Largest concise Abelian subgroup C1      NOp   1
                         Standard orientation:                         
 ---------------------------------------------------------------------
 Center     Atomic      Atomic             Coordinates (Angstroms)
 Number     Number       Type             X           Y           Z
 ---------------------------------------------------------------------
      1          8           0       -1.543780    0.001226   -0.118089
      2          1           0       -0.578900   -0.001694   -0.007036
      3          1           0       -1.880522   -0.008191    0.785679
      4          8           0        1.375794   -0.000925    0.071494
      5          1           0        1.898201    0.766324   -0.196631
      6          1           0        1.905110   -0.758853   -0.209255
 ---------------------------------------------------------------------
 Rotational constants (GHZ):         238.8030910           6.2746275           6.2568899
 Standard basis: Aug-CC-pVDZ (5D, 7F)
 There are    86 symmetry adapted cartesian basis functions of A   symmetry.
 There are    82 symmetry adapted basis functions of A   symmetry.
    82 basis functions,   130 primitive gaussians,    86 cartesian basis functions
    10 alpha electrons       10 beta electrons
       nuclear repulsion energy        36.2861201097 Hartrees.
 NAtoms=    6 NActive=    6 NUniq=    6 SFac= 1.00D+00 NAtFMM=   60 NAOKFM=F Big=F
 Integral buffers will be    131072 words long.
 Raffenetti 1 integral format.
 Two-electron integral symmetry is turned on.
 One-electron integrals computed using PRISM.
 NBasis=    82 RedAO= T EigKep=  1.73D-03  NBF=    82
 NBsUse=    82 1.00D-06 EigRej= -1.00D+00 NBFU=    82
 Initial guess from the checkpoint file:  "h2o_h2o.chk"
 B after Tr=     0.000000    0.000000   -0.000000
         Rot=    0.999997   -0.002355   -0.000532   -0.000062 Ang=  -0.28 deg.
 ExpMin= 2.97D-02 ExpMax= 1.17D+04 ExpMxC= 4.01D+02 IAcc=3 IRadAn=         5 AccDes= 0.00D+00
 Harris functional with IExCor=  205 and IRadAn=       5 diagonalized for initial guess.
 HarFok:  IExCor=  205 AccDes= 0.00D+00 IRadAn=         5 IDoV= 1 UseB2=F ITyADJ=14
 ICtDFT=  3500011 ScaDFX=  1.000000  1.000000  1.000000  1.000000
 FoFCou: FMM=F IPFlag=           0 FMFlag=      100000 FMFlg1=           0
         NFxFlg=           0 DoJE=T BraDBF=F KetDBF=T FulRan=T
         wScrn=  0.000000 ICntrl=       500 IOpCl=  0 I1Cent=   200000004 NGrid=           0
         NMat0=    1 NMatS0=      1 NMatT0=    0 NMatD0=    1 NMtDS0=    0 NMtDT0=    0
 Petite list used in FoFCou.
 Keep R1 ints in memory in canonical form, NReq=11655298.
 Requested convergence on RMS density matrix=1.00D-08 within 128 cycles.
 Requested convergence on MAX density matrix=1.00D-06.
 Requested convergence on             energy=1.00D-06.
 No special actions if energy rises.
 SCF Done:  E(RHF) =  -152.087434648     A.U. after   10 cycles
            NFock= 10  Conv=0.47D-08     -V/T= 2.0018
 ExpMin= 2.97D-02 ExpMax= 1.17D+04 ExpMxC= 4.01D+02 IAcc=3 IRadAn=         5 AccDes= 0.00D+00
 HarFok:  IExCor=  205 AccDes= 0.00D+00 IRadAn=         5 IDoV=-2 UseB2=F ITyADJ=14
 ICtDFT= 12500011 ScaDFX=  1.000000  1.000000  1.000000  1.000000
 Range of M.O.s used for correlation:     3    82
 NBasis=    82 NAE=    10 NBE=    10 NFC=     2 NFV=     0
 NROrb=     80 NOA=     8 NOB=     8 NVA=    72 NVB=    72
 Fully direct method using O(ONN) memory.
 JobTyp=1 Pass  1:  I=   3 to  10 NPSUse= 28 ParTrn=T ParDer=T DoDerP=T.
 Spin components of T(2) and E(2):
     alpha-alpha T2 =       0.1570061898D-01 E2=     -0.5661064799D-01
     alpha-beta  T2 =       0.8793972962D-01 E2=     -0.3292963864D+00
     beta-beta   T2 =       0.1570061898D-01 E2=     -0.5661064799D-01
 ANorm=    0.1057989115D+01
 E2 =    -0.4425176824D+00 EUMP2 =    -0.15252995233055D+03
          IDoAtm=111111
          Differentiating once with respect to electric field.
                with respect to dipole field.
          Differentiating once with respect to nuclear coordinates.
 Keep R1 ints in memory in canonical form, NReq=11657654.
          There are     1 degrees of freedom in the 1st order CPHF.  IDoFFX=0 NUNeed=     1.
 LinEq1:  Iter=  0 NonCon=     1 RMS=5.92D-03 Max=6.04D-02 NDo=     1
 AX will form     1 AO Fock derivatives at one time.
 LinEq1:  Iter=  1 NonCon=     1 RMS=1.24D-03 Max=8.83D-03 NDo=     1
 LinEq1:  Iter=  2 NonCon=     1 RMS=4.56D-04 Max=3.86D-03 NDo=     1
 LinEq1:  Iter=  3 NonCon=     1 RMS=4.81D-05 Max=3.53D-04 NDo=     1
 LinEq1:  Iter=  4 NonCon=     1 RMS=5.92D-06 Max=4.15D-05 NDo=     1
 LinEq1:  Iter=  5 NonCon=     1 RMS=2.63D-06 Max=1.95D-05 NDo=     1
 LinEq1:  Iter=  6 NonCon=     1 RMS=6.50D-07 Max=3.80D-06 NDo=     1
 LinEq1:  Iter=  7 NonCon=     1 RMS=1.21D-07 Max=6.72D-07 NDo=     1
 LinEq1:  Iter=  8 NonCon=     1 RMS=1.47D-08 Max=1.01D-07 NDo=     1
 LinEq1:  Iter=  9 NonCon=     1 RMS=2.33D-09 Max=1.48D-08 NDo=     1
 LinEq1:  Iter= 10 NonCon=     1 RMS=4.49D-10 Max=2.56D-09 NDo=     1
 LinEq1:  Iter= 11 NonCon=     0 RMS=6.22D-11 Max=3.66D-10 NDo=     1
 Linear equations converged to 1.000D-10 1.000D-09 after    11 iterations.
 End of Minotr F.D. properties file   721 does not exist.
 End of Minotr F.D. properties file   722 does not exist.
 End of Minotr F.D. properties file   788 does not exist.
 Calling FoFJK, ICntrl=  10002127 FMM=F ISym2X=0 I1Cent= 0 IOpClX= 0 NMat=1 NMatS=1 NMatT=0.
 ***** Axes restored to original set *****
 -------------------------------------------------------------------
 Center     Atomic                   Forces (Hartrees/Bohr)
 Number     Number              X              Y              Z
 -------------------------------------------------------------------
      1        8          -0.000238632   -0.000131927   -0.000044439
      2        1           0.000701433    0.000499700    0.000617414
      3        1          -0.000426002   -0.000275096   -0.000267155
      4        8           0.001235281    0.000465298   -0.000633929
      5        1          -0.000558271   -0.000424259    0.000195178
      6        1          -0.000713809   -0.000133716    0.000132931
 -------------------------------------------------------------------
 Cartesian Forces:  Max     0.001235281 RMS     0.000513532

 GradGradGradGradGradGradGradGradGradGradGradGradGradGradGradGradGradGrad
 Berny optimization.
 Using GEDIIS/GDIIS optimizer.
 FormGI is forming the generalized inverse of G from B-inverse, IUseBI=4.
 Internal  Forces:  Max     0.000722195 RMS     0.000426554
 Search for a local minimum.
 Step number   5 out of a maximum of   24
 All quantities printed in internal units (Hartrees-Bohrs-Radians)
 Mixed Optimization -- En-DIIS/RFO-DIIS
 Swapping is turned off.
 Update second derivatives using D2CorX and points    1    2    3    4    5
 DE= -1.79D-04 DEPred=-1.36D-04 R= 1.32D+00
 TightC=F SS=  1.41D+00  RLast= 1.92D-01 DXNew= 8.4853D-01 5.7537D-01
 Trust test= 1.32D+00 RLast= 1.92D-01 DXMaxT set to 5.75D-01
 The second derivative matrix:
                          R1        R2        R3        R4        R5
           R1           0.51084
           R2           0.00832   0.54899
           R3           0.00509  -0.00301   0.02738
           R4          -0.02335  -0.02228   0.00520   0.53532
           R5          -0.02336  -0.02229   0.00523   0.00699   0.53537
           A1           0.02437   0.02258  -0.00581  -0.00545  -0.00547
           A2          -0.00876  -0.00447   0.02803   0.01423   0.01422
           A3          -0.00751  -0.00355   0.02481   0.01239   0.01238
           A4           0.00478   0.00097   0.00252   0.01714   0.01713
           A5          -0.00408  -0.00474   0.00071   0.00076   0.00077
           A6           0.00001   0.00001  -0.00002  -0.00002  -0.00002
           D1          -0.00073  -0.00010  -0.00024  -0.00309  -0.00309
           D2           0.00071   0.00008   0.00025   0.00311   0.00311
           D3           0.00180   0.00153  -0.00770  -0.00632  -0.00631
                          A1        A2        A3        A4        A5
           A1           0.16745
           A2          -0.01791   0.15167
           A3          -0.01521  -0.00753   0.15326
           A4          -0.01859  -0.00468  -0.00439   0.14985
           A5          -0.00514   0.00273   0.00136   0.00285   0.01317
           A6           0.00002   0.00002   0.00001   0.00001  -0.00000
           D1           0.00500  -0.00140  -0.00112   0.00117  -0.00188
           D2          -0.00502   0.00142   0.00113  -0.00116   0.00189
           D3           0.00858   0.00258   0.00252   0.00222  -0.00336
                          A6        D1        D2        D3
           A6           0.00230
           D1          -0.00000   0.00301
           D2           0.00000  -0.00072   0.00302
           D3          -0.00001   0.00062  -0.00063   0.01348
 ITU=  1  1  1  1  0
     Eigenvalues ---    0.00230   0.00230   0.00527   0.01390   0.03498
     Eigenvalues ---    0.14605   0.15822   0.16674   0.48961   0.52584
     Eigenvalues ---    0.52836   0.59077
 En-DIIS/RFO-DIIS/Sim-DIIS IScMMF=       -3 using points:     5    4
 RFO step:  Lambda=-4.05387467D-05.
 DidBck=F Rises=F RFO-DIIS coefs:    1.36847   -0.36847
 Iteration  1 RMS(Cart)=  0.01238367 RMS(Int)=  0.00065965
 Iteration  2 RMS(Cart)=  0.00020226 RMS(Int)=  0.00062592
 Iteration  3 RMS(Cart)=  0.00000009 RMS(Int)=  0.00062592
 Variable       Old X    -DE/DX   Delta X   Delta X   Delta X     New X
                                 (Linear)    (Quad)   (Total)
    R1        1.83540   0.00070  -0.00032   0.00049   0.00017   1.83558
    R2        1.82266   0.00046   0.00070  -0.00009   0.00061   1.82327
    R3        3.69682  -0.00004   0.04592  -0.00594   0.03998   3.73679
    R4        1.82578  -0.00022   0.00138  -0.00113   0.00025   1.82603
    R5        1.82576  -0.00022   0.00137  -0.00113   0.00024   1.82601
    A1        1.81283   0.00062  -0.00659   0.00745   0.00086   1.81369
    A2        2.12874  -0.00061  -0.01002  -0.00530  -0.01644   2.11229
    A3        2.13583  -0.00041  -0.00877  -0.00496  -0.01506   2.12077
    A4        1.81945   0.00072  -0.00523   0.00581  -0.00079   1.81867
    A5        3.21606  -0.00025   0.00199  -0.01133  -0.00918   3.20688
    A6        3.14627  -0.00000   0.00104  -0.00052   0.00052   3.14678
    D1       -1.95537  -0.00004  -0.02283  -0.00056  -0.02294  -1.97831
    D2        1.95383   0.00004   0.02288  -0.00016   0.02227   1.97611
    D3       -2.51435   0.00049   0.03979   0.00734   0.04671  -2.46764
         Item               Value     Threshold  Converged?
 Maximum Force            0.000722     0.000450     NO 
 RMS     Force            0.000427     0.000300     NO 
 Maximum Displacement     0.026201     0.001800     NO 
 RMS     Displacement     0.012332     0.001200     NO 
 Predicted change in Energy=-1.956283D-05
 GradGradGradGradGradGradGradGradGradGradGradGradGradGradGradGradGradGrad

                          Input orientation:                          
 ---------------------------------------------------------------------
 Center     Atomic      Atomic             Coordinates (Angstroms)
 Number     Number       Type             X           Y           Z
 ---------------------------------------------------------------------
      1          8           0       -2.884835    2.789613    0.179647
      2          1           0       -2.018908    3.188995   -0.005217
      3          1           0       -3.173009    2.453288   -0.677524
      4          8           0       -0.246089    4.028460   -0.255460
      5          1           0        0.547175    3.644533    0.140846
      6          1           0       -0.120829    4.981878   -0.160578
 ---------------------------------------------------------------------
                    Distance matrix (angstroms):
                    1          2          3          4          5
     1  O    0.000000
     2  H    0.971345   0.000000
     3  H    0.964832   1.524864   0.000000
     4  O    2.947379   1.977425   3.350547   0.000000
     5  H    3.537102   2.610293   3.991061   0.966295   0.000000
     6  H    3.544222   2.615582   3.997100   0.966281   1.524985
                    6
     6  H    0.000000
 Stoichiometry    H4O2
 Framework group  C1[X(H4O2)]
 Deg. of freedom    12
 Full point group                 C1      NOp   1
 Largest Abelian subgroup         C1      NOp   1
 Largest concise Abelian subgroup C1      NOp   1
                         Standard orientation:                         
 ---------------------------------------------------------------------
 Center     Atomic      Atomic             Coordinates (Angstroms)
 Number     Number       Type             X           Y           Z
 ---------------------------------------------------------------------
      1          8           0       -1.553620    0.001653   -0.118146
      2          1           0       -0.588115   -0.001825   -0.011848
      3          1           0       -1.886799   -0.011152    0.787242
      4          8           0        1.387360   -0.001252    0.075940
      5          1           0        1.898390    0.767316   -0.210203
      6          1           0        1.906605   -0.757548   -0.227540
 ---------------------------------------------------------------------
 Rotational constants (GHZ):         236.1021278           6.1924838           6.1770907
 Standard basis: Aug-CC-pVDZ (5D, 7F)
 There are    86 symmetry adapted cartesian basis functions of A   symmetry.
 There are    82 symmetry adapted basis functions of A   symmetry.
    82 basis functions,   130 primitive gaussians,    86 cartesian basis functions
    10 alpha electrons       10 beta electrons
       nuclear repulsion energy        36.1586763641 Hartrees.
 NAtoms=    6 NActive=    6 NUniq=    6 SFac= 1.00D+00 NAtFMM=   60 NAOKFM=F Big=F
 Integral buffers will be    131072 words long.
 Raffenetti 1 integral format.
 Two-electron integral symmetry is turned on.
 One-electron integrals computed using PRISM.
 NBasis=    82 RedAO= T EigKep=  1.74D-03  NBF=    82
 NBsUse=    82 1.00D-06 EigRej= -1.00D+00 NBFU=    82
 Initial guess from the checkpoint file:  "h2o_h2o.chk"
 B after Tr=    -0.000000   -0.000000    0.000000
         Rot=    0.999999   -0.001684   -0.000235   -0.000024 Ang=  -0.19 deg.
 ExpMin= 2.97D-02 ExpMax= 1.17D+04 ExpMxC= 4.01D+02 IAcc=3 IRadAn=         5 AccDes= 0.00D+00
 Harris functional with IExCor=  205 and IRadAn=       5 diagonalized for initial guess.
 HarFok:  IExCor=  205 AccDes= 0.00D+00 IRadAn=         5 IDoV= 1 UseB2=F ITyADJ=14
 ICtDFT=  3500011 ScaDFX=  1.000000  1.000000  1.000000  1.000000
 FoFCou: FMM=F IPFlag=           0 FMFlag=      100000 FMFlg1=           0
         NFxFlg=           0 DoJE=T BraDBF=F KetDBF=T FulRan=T
         wScrn=  0.000000 ICntrl=       500 IOpCl=  0 I1Cent=   200000004 NGrid=           0
         NMat0=    1 NMatS0=      1 NMatT0=    0 NMatD0=    1 NMtDS0=    0 NMtDT0=    0
 Petite list used in FoFCou.
 Keep R1 ints in memory in canonical form, NReq=11655298.
 Requested convergence on RMS density matrix=1.00D-08 within 128 cycles.
 Requested convergence on MAX density matrix=1.00D-06.
 Requested convergence on             energy=1.00D-06.
 No special actions if energy rises.
 SCF Done:  E(RHF) =  -152.087512597     A.U. after    9 cycles
            NFock=  9  Conv=0.34D-08     -V/T= 2.0019
 ExpMin= 2.97D-02 ExpMax= 1.17D+04 ExpMxC= 4.01D+02 IAcc=3 IRadAn=         5 AccDes= 0.00D+00
 HarFok:  IExCor=  205 AccDes= 0.00D+00 IRadAn=         5 IDoV=-2 UseB2=F ITyADJ=14
 ICtDFT= 12500011 ScaDFX=  1.000000  1.000000  1.000000  1.000000
 Range of M.O.s used for correlation:     3    82
 NBasis=    82 NAE=    10 NBE=    10 NFC=     2 NFV=     0
 NROrb=     80 NOA=     8 NOB=     8 NVA=    72 NVB=    72
 Fully direct method using O(ONN) memory.
 JobTyp=1 Pass  1:  I=   3 to  10 NPSUse= 28 ParTrn=T ParDer=T DoDerP=T.
 Spin components of T(2) and E(2):
     alpha-alpha T2 =       0.1569914305D-01 E2=     -0.5659133047D-01
     alpha-beta  T2 =       0.8796899081D-01 E2=     -0.3292890500D+00
     beta-beta   T2 =       0.1569914305D-01 E2=     -0.5659133047D-01
 ANorm=    0.1058001549D+01
 E2 =    -0.4424717109D+00 EUMP2 =    -0.15252998430751D+03
          IDoAtm=111111
          Differentiating once with respect to electric field.
                with respect to dipole field.
          Differentiating once with respect to nuclear coordinates.
 Keep R1 ints in memory in canonical form, NReq=11657566.
          There are     1 degrees of freedom in the 1st order CPHF.  IDoFFX=0 NUNeed=     1.
 LinEq1:  Iter=  0 NonCon=     1 RMS=5.92D-03 Max=6.06D-02 NDo=     1
 AX will form     1 AO Fock derivatives at one time.
 LinEq1:  Iter=  1 NonCon=     1 RMS=1.24D-03 Max=8.80D-03 NDo=     1
 LinEq1:  Iter=  2 NonCon=     1 RMS=4.56D-04 Max=3.92D-03 NDo=     1
 LinEq1:  Iter=  3 NonCon=     1 RMS=4.81D-05 Max=3.55D-04 NDo=     1
 LinEq1:  Iter=  4 NonCon=     1 RMS=5.77D-06 Max=4.06D-05 NDo=     1
 LinEq1:  Iter=  5 NonCon=     1 RMS=2.56D-06 Max=1.89D-05 NDo=     1
 LinEq1:  Iter=  6 NonCon=     1 RMS=6.42D-07 Max=3.75D-06 NDo=     1
 LinEq1:  Iter=  7 NonCon=     1 RMS=1.18D-07 Max=6.52D-07 NDo=     1
 LinEq1:  Iter=  8 NonCon=     1 RMS=1.45D-08 Max=9.93D-08 NDo=     1
 LinEq1:  Iter=  9 NonCon=     1 RMS=2.27D-09 Max=1.47D-08 NDo=     1
 LinEq1:  Iter= 10 NonCon=     1 RMS=4.35D-10 Max=2.51D-09 NDo=     1
 LinEq1:  Iter= 11 NonCon=     0 RMS=5.96D-11 Max=3.52D-10 NDo=     1
 Linear equations converged to 1.000D-10 1.000D-09 after    11 iterations.
 End of Minotr F.D. properties file   721 does not exist.
 End of Minotr F.D. properties file   722 does not exist.
 End of Minotr F.D. properties file   788 does not exist.
[...]
 6599,-0.01097170,-0.00490187,-0.01756640,-0.00142830,0.12532950,0.0002
 5618,0.00046961,-0.00019046,-0.00019898,-0.00058374,0.00027189,-0.0000
 7811,-0.00011482,0.00005446,-0.00816289,0.36038315,0.10752621,-0.00922
 860,0.01635520,0.00384403,0.01741240,-0.37650940,0.00007127,-0.0000229
 6,-0.00000715,-0.00001497,0.00029346,-0.00022691,-0.00009760,-0.000077
 69,0.00004572,-0.01889354,0.12490180,-0.00620880,0.00672629,-0.0135884
 6,-0.00352423,0.01220855,-0.11150614,0.00992138,-0.04482276,-0.0334331
 9,-0.00585067,-0.01426728,-0.01836157,-0.03465091,0.05191576,0.0258974
 8,-0.01953995,-0.05162553,0.02545872,0.00354486,-0.01113671,-0.0262453
 0,-0.00367327,-0.02148123,-0.01209522,-0.01279517,0.01821536,0.0106905
 9,0.01439889,-0.00453839,0.00882842,0.03306678,0.00172962,0.00185400,0
 .00294161,0.00276108,0.00932898,0.00260148,0.02914861,0.00133656,0.000
 34782,0.00129714,-0.01071000,-0.00296202,0.03531073,0.03026026,0.04723
 448,0.00063022,0.00015065,-0.00158572,-0.03601130,-0.03048068,-0.04579
 019,-0.00216182,-0.00098393,0.00096272,-0.00284968,-0.00151061,0.00024
 358,0.00007621,0.00000858,-0.00007654,-0.00962497,-0.00117752,-0.00034
 469,0.00038777,-0.00123155,-0.00027849,0.00023366,0.00000925,0.0000252
 9,-0.00002612,0.06998826,-0.18490097,-0.00001103,-0.00009933,-0.000235
 03,0.00154566,0.00088733,0.00074184,-0.00004654,-0.00000893,0.00008833
 ,-0.14664364,-0.02811391,-0.01832538,-0.00014266,-0.00003470,-0.000096
 25,0.00037772,-0.00009061,0.00012947,-0.00003710,0.00003903,0.00007782
 ,0.05248515,-0.06615863,0.11184027,-0.05317810,-0.00028254,-0.00005364
 ,-0.00009137,0.00051537,0.00003352,-0.00009512,0.00002262,0.00001486,0
 .00002427,-0.05859133,0.02055141,-0.03411156,0.06084833,-0.01616353,0.
 00028747,0.00014418,0.00024316,-0.00044837,-0.00043586,-0.00034098,0.0
 0001460,0.00003358,0.00002801,0.11471852,-0.04256255,0.03660731,-0.108
 06973,0.04013923,-0.03618860,-0.00025013,-0.00027407,-0.00012601,0.000
 45212,0.00053379,-0.00004879,0.00000858,-0.00000316,0.00006906,-0.0379
 2491,-0.00142981,0.03331529,0.00049499,-0.00251244,-0.00650248,0.03721
 935,0.00010556,0.00010265,0.00005328,-0.00027257,0.00002556,-0.0000310
 5,-0.00000429,-0.00002743,0.00007161,-0.00891097,0.16494741,0.06144639
 ,0.00539659,-0.00438263,0.00268143,0.00368568,-0.16066556,0.00016135,0
 .00015168,0.00020347,-0.00040292,-0.00015601,-0.00041886,0.00003485,0.
 00001028,0.00002509,0.03079536,0.07008115,-0.01887710,-0.00388157,-0.0
 0586545,-0.00034890,-0.02670707,-0.06422166,0.01941629,-0.23164228,-0.
 19497928,-0.03546009,-0.13158191,-0.14386553,-0.26323135,0.26946383,0.
 13346519,-0.10100393,-0.27782724,0.13064068,0.01854040,-0.06001818,-0.
 13891462,-0.02043160,-0.11450946,-0.06679903,-0.06872085,0.10086221,0.
 06099208,0.07593756,-0.03679609,0.06147503,0.23200373,0.00975161,0.010
 34587,0.01570446,0.02606448,0.06420872,0.01771729,0.20374796,0.0073072
 9,0.00119586,0.00665550,-0.07208838,-0.01927411,0.24518867,0.21036722,
 0.33357447,0.00116449,-0.00065042,-0.00993051,-0.24691450,-0.21022792,
 -0.32477998,-0.00183167,0.00013226,0.00201186,0.00108712,-0.00149082,-
 0.00587388,0.00102995,0.00022703,0.00006715,-0.02245705,-0.00008495,-0
 .00114354,0.00080159,-0.00054633,0.00061344,-0.00250916,0.00006481,0.0
 0072193,0.00015480,0.08979670,-0.24172331,0.00076142,0.00019382,-0.002
 18924,-0.00122348,-0.00018878,0.00342664,-0.00057818,-0.00018949,0.001
 14898,-0.18520075,-0.03136796,-0.03147623,0.00023584,0.00016922,-0.000
 74311,-0.00126753,-0.00101066,0.00214356,-0.00000660,0.00029426,0.0001
 9013,0.06930776,-0.08525151,0.14563073,-0.06845438,0.00018912,0.000274
 74,-0.00041781,0.00011751,0.00013593,0.00071845,-0.00008240,-0.0001703
 5,0.00023597,-0.07643024,0.02851697,-0.04797694,0.07939076,-0.02315823
 ,0.00018236,-0.00020771,0.00036039,-0.00025196,0.00022712,-0.00040311,
 -0.00012145,0.00011817,-0.00004659,0.15118995,-0.05947931,0.05115130,-
 0.14269564,0.05534825,-0.05042288,0.00057037,-0.00026241,-0.00068664,-
 0.00120779,0.00042955,0.00167311,-0.00004335,0.00005107,0.00030406,-0.
 04713612,-0.00397873,0.04061027,0.00018491,-0.00318476,-0.00830326,0.0
 4763198,0.00002571,0.00007120,-0.00024801,-0.00142905,-0.00005402,0.00
 094215,0.00028507,-0.00019062,0.00012036,-0.01223494,0.21301450,0.0795
 2935,0.00640792,-0.00559906,0.00399348,0.00694529,-0.20724200,-0.00004
 108,0.00031123,0.00020659,0.00045268,-0.00036182,-0.00030973,-0.000094
 06,-0.00010422,0.00003363,0.03780566,0.09240005,-0.02206146,-0.0045256
 7,-0.00790792,-0.00063911,-0.03359753,-0.08433733,0.02277008,-0.812771
 15,-0.53894682,0.14368006,0.36618276,0.10071159,0.00190551,0.79522205,
 0.52628407,-0.33043405,-0.79896294,0.51949340,-0.12818936,-0.08779944,
 -0.51961690,0.11382637,-0.36100367,-0.10348793,-0.00351140,0.33399257,
 0.09335346,0.00434591,0.02163614,0.01299136,-0.03625193,0.00449126,0.0
 0850691,0.02586324,-0.02588178,0.01985876,-0.01209901,-0.01386399,0.00
 174511,0.00256195,0.01242434,-0.02181646,0.01002774,-0.00493303,0.0021
 8665,0.00181399,-0.00507918,-0.00343941,-0.00455739,0.00998575,0.00104
 781,0.00267601,-0.00450280,-0.00028986,0.00053707,0.00447043,-0.006277
 52,-0.00094980,-0.00080724,-0.00025175,0.00032058,-0.00646535,-0.00034
 722,-0.00379605,0.00102746,-0.00549732,0.01309998,-0.00354923,-0.00014
 529,-0.00019919,0.00027312,0.04965197,-0.10472018,-0.00010580,0.000724
 80,-0.00039746,0.00313661,-0.00151043,0.00288426,0.00070673,0.00045571
 ,0.00023248,-0.04910675,-0.00178773,-0.02913327,-0.00043029,0.00102474
 ,-0.00016289,-0.00038377,-0.00563334,0.00219308,0.00030890,0.00036594,
 -0.00027033,0.03161136,-0.03789567,0.04290208,-0.03010583,-0.00011103,
 0.00084208,-0.00034344,-0.00022348,-0.00277297,0.00079820,0.00002703,-
 0.00009483,0.00014283,-0.04134510,0.00592693,-0.02301184,0.04521051,-0
 .00813856,-0.00018271,0.00005084,0.00010299,-0.00114951,0.00024892,0.0
 0037975,-0.00019135,0.00012389,-0.00016167,0.04775126,-0.02619098,0.02
 708608,-0.04645905,0.02515368,-0.02648822,0.00084606,-0.00106349,0.000
 12904,-0.00483704,0.00352746,-0.00009542,0.00025271,0.00009840,-0.0000
 2379,-0.02430642,-0.00576646,0.00246713,-0.00100038,-0.00355794,0.0002
 3135,0.02904507,0.00005291,-0.00043772,0.00026783,-0.00269148,0.001474
 03,0.00046116,0.00043645,-0.00019665,-0.00021100,-0.00148773,0.0896884
 9,0.02512949,-0.00307217,0.00423735,0.00061365,0.00676203,-0.09476550,
 0.00004245,-0.00018595,0.00008638,-0.00046644,-0.00085310,0.00045886,-
 0.00011244,-0.00018775,-0.00000342,0.00144763,0.03022736,-0.00067212,0
 .00179712,-0.00273943,-0.00091894,-0.00270831,-0.02626113,0.00104924,-
 0.03299616,-0.01473195,-0.00784989,0.01133689,-0.00473369,-0.04783709,
 0.03549188,0.01447749,-0.01730042,-0.03468638,0.01243524,0.00461010,-0
 .00702936,-0.01329051,-0.00460810,-0.02665289,-0.01180585,0.00816725,0
 .02059741,0.00951744,-0.00457799,-0.00157344,0.00073033,0.00607105,-0.
 00214038,0.00010751,0.00562172,0.00370172,0.00274028,0.00353381,0.0118
 3747,-0.00194002,-0.00048484,0.00211391,-0.00083543,-0.00305990,0.0153
 3509,0.01656920,0.03981745,-0.00381865,-0.00270543,-0.00344658,-0.0116
 3027,-0.01393598,-0.03644011,-0.00172971,-0.00069709,0.00037350,0.0028
 7966,0.00081141,-0.00020910,0.00011498,0.00014665,0.00006337,-0.287126
 29,-0.00070237,-0.00053655,0.00017501,0.00088257,0.00153722,-0.0004735
 2,0.00015466,-0.00004884,0.00008775,0.02860878,-0.50202420,0.00012885,
 0.00007109,-0.00021615,0.00045012,-0.00018824,-0.00057165,0.00007646,0
 .00009198,0.00010507,-0.31527988,-0.12397042,-0.34646513,0.00057016,0.
 00001356,-0.00019740,-0.00120937,-0.00007575,0.00040136,-0.00009661,0.
 00001728,-0.00001616,0.31564910,-0.16630062,0.29321581,-0.29594961,-0.
 00000423,-0.00007048,-0.00013783,0.00064816,-0.00008835,0.00010302,-0.
 00009549,0.00008619,0.00002749,-0.07680601,-0.02243949,-0.08232985,0.1
 2064380,0.05449664,0.00000573,-0.00009624,0.00005434,-0.00020005,0.000
 24683,0.00023186,-0.00007980,-0.00003924,-0.00003222,0.32065398,-0.177
 90832,0.27386632,-0.28504845,0.13926659,-0.25095130,0.00023726,0.00020
 767,-0.00028363,-0.00033541,0.00001210,0.00024150,-0.00000627,-0.00012
 876,0.00006661,-0.02978777,0.13735697,0.02140865,-0.01896367,-0.044386
 23,-0.03533140,0.04885586,0.00026303,0.00031300,-0.00011159,-0.0007776
 9,-0.00096602,0.00054501,-0.00006157,-0.00002642,-0.00004303,0.0479362
 5,0.52351185,0.20632545,0.04570173,-0.03198451,0.03853038,-0.09306175,
 -0.49084789,-0.00015367,-0.00000450,0.00001422,0.00027159,0.00015876,0
 .00019712,-0.00005916,-0.00006814,-0.00000361,-0.00560186,0.30208950,0
 .07328152,-0.00835517,-0.05692941,-0.02316900,0.01389826,-0.24524621,-
 0.05032025,-0.45088188,-0.21083489,-0.09881377,0.14078660,-0.05664723,
 -0.57205096,0.47491102,0.20568183,-0.20793458,-0.45115816,0.17913658,0
 .05708366,-0.08705468,-0.18059434,-0.05241685,-0.33042355,-0.14958932,
 0.07299934,0.26130642,0.12391464,-0.03132671,-0.01827922,0.00835136,0.
 07001322,-0.02888020,-0.00083249,0.06968659,0.04663588,0.03387124,0.04
 374853,0.14455690,-0.02675514,-0.00589354,0.02581272,-0.00756589,-0.03
 860090,0.18785661,0.20474039,0.49706586,-0.05000218,-0.03530068,-0.042
 92175,-0.13993259,-0.17024438,-0.45354494,-0.00638905,-0.00359273,-0.0
 0290207,0.00731669,0.00290557,-0.00259254,0.00029800,0.00028131,0.0018
 6134,-0.02682978,-0.00246267,-0.00208551,-0.00098635,0.00247302,0.0015
 4407,-0.00109064,-0.00011518,0.00064593,0.00067643,0.00254846,-0.04190
 611,0.00209551,0.00155580,0.00161483,-0.00424919,-0.00195959,0.0015365
 9,0.00004976,-0.00023867,-0.00066927,-0.02134837,-0.00744327,-0.028228
 89,0.00042476,0.00050596,0.00015970,-0.00154132,-0.00080721,0.00105166
 ,0.00011551,-0.00004483,0.00005675,0.02664606,-0.01294498,0.02213174,-
 0.02397836,-0.00023079,-0.00015278,-0.00028695,0.00078592,0.00022627,0
 .00059208,0.00017203,0.00009660,0.00019568,-0.00679588,-0.00046093,-0.
 00684624,0.00974506,0.00281451,-0.00003921,-0.00006664,0.00027543,0.00
 038122,-0.00026195,-0.00008763,0.00002947,0.00013589,-0.00000811,0.025
 01010,-0.01345083,0.02045784,-0.02257604,0.01071184,-0.01914117,0.0002
 1437,-0.00011153,-0.00012288,-0.00064803,0.00019189,0.00097142,0.00011
 002,0.00021332,0.00016007,-0.00104191,0.01050136,0.00132054,-0.0016666
 5,-0.00367634,-0.00280554,0.00303220,0.00052053,0.00021988,0.00041832,
 -0.00159129,-0.00054361,0.00036052,-0.00000982,0.00000338,-0.00006744,
 0.00465326,0.04226256,0.01493197,0.00354601,-0.00252368,0.00293167,-0.
 00711869,-0.03941853,-0.00027597,0.00000700,0.00009552,0.00049832,0.00
 066226,-0.00019984,0.00015354,-0.00002246,0.00007820,-0.00002847,0.022
 29466,0.00528890,-0.00082381,-0.00436641,-0.00149636,0.00047639,-0.018
 57505,-0.00376642,4.17692242,2.47953066,-0.16031193,-1.51016488,-0.512
 39840,-0.12003387,-4.13912253,-2.34306315,1.75353907,4.12685577,-2.330
 61692,0.16293168,0.75555633,2.34609139,-0.16667278,1.81096072,0.784899
 86,0.54216814,-1.74383226,-0.74609929,-0.53508658,-0.02765413,-0.13032
 820,-0.24286921,-0.00861439,-0.03230950,-0.06491933,0.03700571,-0.1431
 4340,-0.00139522,-0.24283354,-0.01995319,0.00853808,-0.03861333,0.1631
 3038,-0.00725629,-0.30202019,-0.27303932,-0.42348327,-0.00790369,-0.00
 948126,0.00200638,0.30793776,0.28162220,0.42177211,-0.00844812,-0.0055
 3532,-0.00038116,0.01505870,0.01585639,0.00233267,-0.00049821,0.000024
 18,0.00170510,0.00772574,-0.00569104,-0.00057305,-0.00023279,0.0159171
 9,-0.00666044,0.00252523,-0.00039847,0.00012489,0.00076715,-0.01737729
 ,0.03455393,-0.00081678,-0.00048929,0.00205780,0.00204881,0.00246257,-
 0.00885159,-0.00026426,-0.00022091,-0.00023200,0.00546436,-0.00568059,
 0.00733799,-0.00015428,-0.00023354,-0.00021478,-0.00110724,0.00254237,
 -0.00250136,-0.00006893,0.00000014,0.00011241,-0.00992800,0.00394848,-
 0.00916523,0.01041701,-0.00120401,-0.00090995,0.00034955,0.00472263,0.
 00443604,-0.00261135,-0.00016360,-0.00004780,0.00012153,0.00549602,-0.
 00567125,0.01201973,-0.00802807,0.00190843,0.00117233,0.00083688,-0.00
 048707,-0.00228275,-0.00311118,0.00042376,0.00008034,0.00003803,-0.000
 04665,-0.01129285,0.01201153,-0.00525404,0.01178875,-0.01007075,0.0048
 3034,-0.00154337,-0.00037044,0.00009096,0.00692968,-0.00156373,-0.0020
 4044,-0.00017005,-0.00005812,0.00016862,-0.00391012,0.00360114,0.00273
 311,0.00084144,-0.00082297,0.00053417,-0.00214758,0.00112471,0.0002584
 7,-0.00044115,-0.00371487,-0.00257257,-0.00010112,0.00006939,0.0000363
 4,0.00000971,0.00153604,-0.02177412,-0.00809151,0.00177062,0.00028453,
 0.00029548,-0.00078588,0.02376735,0.00086880,0.00019029,-0.00022172,-0
 .00156918,0.00067282,-0.00066012,0.00003470,0.00000754,-0.00001658,0.0
 0217189,-0.00939053,0.00494181,-0.00001978,0.00019129,0.00053365,-0.00
 148643,0.00832858,-0.00457704,0.02486910,0.01736443,-0.00144331,-0.003
 97668,0.00220508,0.00876572,-0.02576874,-0.01460681,0.01082909,0.02748
 719,-0.01446658,0.00101246,0.00458212,0.01603286,-0.00155172,0.0114945
 2,0.00492382,0.00302437,-0.01140467,-0.00477493,-0.00391388,0.00013618
 ,-0.00323590,-0.00649289,-0.00041816,-0.00046838,-0.00057414,0.0002467
 9,-0.00341605,0.00053178,-0.00663846,-0.00027958,0.00004508,-0.0002925
 8,0.00369895,-0.00057702,-0.00732308,-0.00706501,-0.01160816,0.0002891
 2,0.00015129,0.00026240,0.00710991,0.00695965,0.01137028,0.00056756,0.
 00011933,-0.00074835,0.00042317,0.00085463,0.00041644,-0.00014170,-0.0
 0011367,0.00026945,0.52562766,0.00028688,0.00007629,-0.00032006,0.0007
 5278,-0.00059811,0.00027217,-0.00016148,0.00012805,0.00006563,-1.18309
 289,3.06736300,-0.00001521,0.00005845,0.00028810,0.00000935,0.00006391
 ,-0.00081241,0.00004721,-0.00004519,-0.00011020,1.62833534,0.06613888,
 0.40073917,-0.00005546,0.00001938,0.00024568,-0.00062801,-0.00060865,-
 0.00006945,0.00010181,0.00006082,-0.00014217,-1.17620440,1.18571272,-1
 .60651214,1.16087365,0.00052691,0.00005826,0.00002331,-0.00167209,0.00
 031099,0.00004938,0.00006237,-0.00007869,-0.00011867,1.12710388,-0.087
 68128,0.96755171,-1.19352797,0.13021478,-0.00016765,-0.00012397,-0.000
 21683,0.00037897,-0.00008769,0.00072952,-0.00006791,0.00006312,0.00004
 570,-1.62461779,1.03092927,-0.73871889,1.62503074,-1.01568498,0.708555
 33,0.00025137,0.00033957,0.00014315,-0.00109545,-0.00134388,0.00013731
 ,0.00007509,0.00004952,-0.00020323,0.64972770,-0.00349800,-0.02186455,
 0.01591240,0.06750691,-0.00055636,-0.66487111,-0.00029560,-0.00023548,
 0.00014801,-0.00022716,0.00078129,-0.00017787,0.00010444,-0.00004921,0
 .00000711,0.05512872,-2.97928796,-1.03376776,0.00834371,-0.04282406,-0
 .01509575,-0.06305412,3.02161543,-0.00001190,0.00000162,-0.00025319,-0
 .00010185,0.00006530,0.00071000,-0.00002218,-0.00004654,0.00003998,-0.
 00365508,-1.09708589,0.33861423,-0.01855267,0.04817925,0.02960517,0.02
 234369,1.04888625,-0.36871618,0.29957379,1.37152641,-0.29516899,2.1121
 5889,2.27358269,4.02178114,-0.52837971,-0.29863508,0.25513653,0.538821
 10,-0.29642937,0.03566102,0.10511312,0.30175776,-0.03638462,0.26519152
 ,0.11023140,0.04788614,-0.26776916,-0.11665730,-0.07224000,0.22928762,
 -1.07210852,-2.36562575,-0.01449585,-0.00841882,0.00404200,-0.21371746
 ,-1.07454231,0.25957739,-2.37801372,-0.00646297,0.00186280,0.00686113,
 1.08106140,-0.26155190,-2.37680481,-2.38370281,-4.07076155,0.01305538,
 0.01144718,0.02570267,2.36116135,2.37124442,4.04627078,-0.00017408,-0.
 00078979,-0.00171035,0.00326191,0.00309231,-0.00047090,-0.00137409,-0.
 00013095,0.00247958,0.00069352,-0.00063603,0.00020675,-0.00069892,0.00
 321905,-0.00144057,0.00008661,-0.00051259,-0.00010301,0.00099908,-0.00
 199207,0.00373343,-0.00084688,-0.00027053,0.00141134,-0.00003656,0.000
 32713,-0.00154865,0.00067362,0.00008183,-0.00123698,0.00019893,-0.0006
 3251,0.00121234,0.00003357,-0.00004296,0.00002767,-0.00016883,0.000303
 76,-0.00053123,0.00008666,0.00014583,-0.00001324,-0.00117128,-0.000443
 19,-0.00036188,0.00109820,-0.00021931,-0.00031495,0.00006119,0.0006307
 0,0.00064734,-0.00044451,-0.00001674,0.00018634,0.00006731,0.00005453,
 -0.00076038,0.00111617,-0.00029044,0.00020641,0.00018077,0.00017481,-0
 .00018381,-0.00024926,-0.00036432,0.00017273,-0.00011475,-0.00012353,0
 .00000598,-0.00078491,0.00106763,-0.00034729,0.00086191,-0.00083200,0.
 00026668,-0.00034118,0.00004995,0.00001300,0.00096139,-0.00030565,-0.0
 0046223,0.00021313,-0.00007101,0.00012175,-0.00123598,0.00036484,0.000
 37278,0.00012169,-0.00015875,0.00010624,0.00028096,0.00030061,0.000038
 78,-0.00004436,-0.00050946,-0.00034597,-0.00007732,-0.00000473,0.00002
 839,-0.00005518,-0.00023403,-0.00163624,-0.00062209,0.00032699,0.00003
 524,0.00007742,0.00012062,0.00187980,0.00012051,-0.00001555,-0.0001332
 3,-0.00013693,0.00013419,0.00002711,-0.00013648,-0.00005013,0.00001910
 ,0.00028765,-0.00082188,0.00050922,0.00001677,0.00003184,0.00008571,-0
 .00015153,0.00072153,-0.00050791,0.00043820,0.00001448,0.00042310,-0.0
 0000006,-0.00002774,0.00032621,-0.00031400,0.00009012,0.00001972,-0.00
 007618,0.00004514,-0.00045686,0.00007906,-0.00033928,0.00071433,-0.000
 16325,-0.00001177,-0.00019383,0.00049183,0.00005805,-0.00001869,-0.000
 08621,0.00001165,-0.00012694,0.00006293,0.00003074,-0.00001878,-0.0000
 4190,0.00003937,-0.00015458,-0.00007282,0.00001936,0.00001101,0.000032
 11,-0.00008453,0.00012005,-0.00000261,-0.00001206,-0.00022361,-0.00007
 447,0.00000773,0.00020199,0.00008047,0.00003811,0.00015632,0.00040254,
 -0.00021765,-0.00037621,0.00017514,0.00104075,-0.00021190,-0.00004822,
 -0.00002630,0.00022517,0.49425284,-0.00004591,0.00062170,-0.00016558,0
 .00070970,-0.00158404,0.00003420,-0.00003215,0.00008001,-0.00000172,-1
 .12115087,3.08198110,0.00044133,0.00025608,0.00080669,-0.00168025,-0.0
 0071769,-0.00136491,0.00018566,-0.00001634,-0.00040856,1.78421651,0.18
 333717,0.43552102,-0.00018994,-0.00004590,0.00024836,-0.00009546,-0.00
 018380,-0.00011605,0.00011799,-0.00005531,-0.00006962,-1.23095734,1.16
 708071,-1.74919783,1.23021019,-0.00000182,-0.00015723,0.00010884,-0.00
 011517,0.00071923,-0.00000439,0.00003378,-0.00009150,-0.00005426,1.166
 66257,0.02785698,1.01959655,-1.16409327,-0.03543441,-0.00032335,0.0002
 2394,-0.00044291,0.00090052,-0.00031195,0.00081438,-0.00007102,0.00004
 275,0.00014144,-1.74964133,1.01977221,-0.79575813,1.74488728,-1.020300
 87,0.79397861,-0.00025059,0.00014731,0.00023514,0.00024758,-0.00059355
 ,0.00001815,-0.00000460,0.00010741,-0.00015894,0.73617501,-0.04656149,
 -0.03396542,0.00091454,-0.00248610,0.00424790,-0.73708195,-0.00005127,
 -0.00027614,0.00007825,-0.00036473,0.00059633,-0.00010820,0.00004051,0
 .00003500,0.00002219,-0.04630851,-3.10895577,-1.20245578,-0.00270243,0
 .00710692,0.00057391,0.04938643,3.10149364,0.00004795,-0.00042845,-0.0
 0027253,0.00034266,0.00088480,0.00056107,-0.00004939,-0.00002381,0.000
 13242,-0.03421224,-1.20297629,0.36120386,0.00424785,0.00065413,0.00126
 661,0.02962317,1.20188962,-0.36289144\\@


 I WOULD TAKE COUNSEL OF MYSELF.
 I WOULD STOP AND LOOK WITHIN
 AND LOOKING WITHIN, LOOK BACK, ALSO
 THAT I MAY LOOK AHEAD WITH CLEARER UNDERSTANDING
 OF THE WAY I HAVE BEEN MOVING, AND IN WHAT DIRECTION.
 I NEED TO KNOW IF I AM GOING FORWARD OR RETREATING,
 WHETHER I HAVE BEEN WASTING, OR ENJOYING
 THE PRECIOUS MOMENTS OF LIFE.  THERE HAVE BEEN FRICTIONS,
 ANNOYANCES AND SOMETIMES WRATH,
 BUT WERE THEY BECAUSE I WAS RIGHT AND OTHERS WRONG.....
 HAVE I HAD MY THOUGHTS TOO SHARPLY FOCUSED
 ON THAT WHICH PLEASED ME, SERVED MY SELF-ESTEEM,
 UNDERGIRDED MY SECURITY,
 OF WHICH I DID NOT INQUIRE WHETHER IT SERVED OR HAMPERED OTHERS.....
 HAVE I BEEN TRYING TO STOP THE CLOCK
 TO HOLD THE WORLD
 IN PERPETUATION OF WHAT WAS AN IS ALREADY SLIPPING AWAY.....
 HAVE I BEEN CRITICAL OF OTHERS FOR WHAT REALLY NEEDED CHANGING IN ME...
 LET ME INDEED TAKE COUNSEL OF MYSELF
 AND SET MY DIRECTIONS STRAIGHT.

                          R.T. WESTON AS ADAPTED BY D. OSBORN 1967
 Job cpu time:       0 days  3 hours 23 minutes 11.6 seconds.
 Elapsed time:       0 days  0 hours  7 minutes 36.3 seconds.
 File lengths (MBytes):  RWF=    368 Int=      0 D2E=      0 Chk=     44 Scr=      8
 Normal termination of Gaussian 16 at Tue Aug  4 16:38:24 2020.
