 Entering Gaussian System, Link 0=g16
 Input=h2o_meome_mp2_opt_anharm.gjf
 Output=h2o_meome_mp2_opt_anharm.log
 Initial command:
 /sw/contrib/gaussian/g16/A03/g16/l1.exe "/gscratch/scrubbed/gds001/Gau-24766.inp" -scrdir="/gscratch/scrubbed/gds001/"
 Entering Link 1 = /sw/contrib/gaussian/g16/A03/g16/l1.exe PID=     24767.
  
 Copyright (c) 1988,1990,1992,1993,1995,1998,2003,2009,2016,
            Gaussian, Inc.  All Rights Reserved.
  
 This is part of the Gaussian(R) 16 program.  It is based on
 the Gaussian(R) 09 system (copyright 2009, Gaussian, Inc.),
 the Gaussian(R) 03 system (copyright 2003, Gaussian, Inc.),
 the Gaussian(R) 98 system (copyright 1998, Gaussian, Inc.),
 the Gaussian(R) 94 system (copyright 1995, Gaussian, Inc.),
 the Gaussian 92(TM) system (copyright 1992, Gaussian, Inc.),
 the Gaussian 90(TM) system (copyright 1990, Gaussian, Inc.),
 the Gaussian 88(TM) system (copyright 1988, Gaussian, Inc.),
 the Gaussian 86(TM) system (copyright 1986, Carnegie Mellon
 University), and the Gaussian 82(TM) system (copyright 1983,
 Carnegie Mellon University). Gaussian is a federally registered
 trademark of Gaussian, Inc.
  
 This software contains proprietary and confidential information,
 including trade secrets, belonging to Gaussian, Inc.
  
 This software is provided under written license and may be
 used, copied, transmitted, or stored only in accord with that
 written license.
  
 The following legend is applicable only to US Government
 contracts under FAR:
  
                    RESTRICTED RIGHTS LEGEND
  
 Use, reproduction and disclosure by the US Government is
 subject to restrictions as set forth in subparagraphs (a)
 and (c) of the Commercial Computer Software - Restricted
 Rights clause in FAR 52.227-19.
  
 Gaussian, Inc.
 340 Quinnipiac St., Bldg. 40, Wallingford CT 06492
  
  
 ---------------------------------------------------------------
 Warning -- This program may not be used in any manner that
 competes with the business of Gaussian, Inc. or will provide
 assistance to any competitor of Gaussian, Inc.  The licensee
 of this program is prohibited from giving any competitor of
 Gaussian, Inc. access to this program.  By using this program,
 the user acknowledges that Gaussian, Inc. is engaged in the
 business of creating and licensing software in the field of
 computational chemistry and represents and warrants to the
 licensee that it is not a competitor of Gaussian, Inc. and that
 it will not use this program in any manner prohibited above.
 ---------------------------------------------------------------
  

 Cite this work as:
 Gaussian 16, Revision A.03,
 M. J. Frisch, G. W. Trucks, H. B. Schlegel, G. E. Scuseria, 
 M. A. Robb, J. R. Cheeseman, G. Scalmani, V. Barone, 
 G. A. Petersson, H. Nakatsuji, X. Li, M. Caricato, A. V. Marenich, 
 J. Bloino, B. G. Janesko, R. Gomperts, B. Mennucci, H. P. Hratchian, 
 J. V. Ortiz, A. F. Izmaylov, J. L. Sonnenberg, D. Williams-Young, 
 F. Ding, F. Lipparini, F. Egidi, J. Goings, B. Peng, A. Petrone, 
 T. Henderson, D. Ranasinghe, V. G. Zakrzewski, J. Gao, N. Rega, 
 G. Zheng, W. Liang, M. Hada, M. Ehara, K. Toyota, R. Fukuda, 
 J. Hasegawa, M. Ishida, T. Nakajima, Y. Honda, O. Kitao, H. Nakai, 
 T. Vreven, K. Throssell, J. A. Montgomery, Jr., J. E. Peralta, 
 F. Ogliaro, M. J. Bearpark, J. J. Heyd, E. N. Brothers, K. N. Kudin, 
 V. N. Staroverov, T. A. Keith, R. Kobayashi, J. Normand, 
 K. Raghavachari, A. P. Rendell, J. C. Burant, S. S. Iyengar, 
 J. Tomasi, M. Cossi, J. M. Millam, M. Klene, C. Adamo, R. Cammi, 
 J. W. Ochterski, R. L. Martin, K. Morokuma, O. Farkas, 
 J. B. Foresman, and D. J. Fox, Gaussian, Inc., Wallingford CT, 2016.
 
 ******************************************
 Gaussian 16:  ES64L-G16RevA.03 25-Dec-2016
                 6-Aug-2020 
 ******************************************
 %nprocshared=28
 Will use up to   28 processors via shared memory.
 %mem=41GB
 %chk=h2o_meome.chk
 ---------------------------------------------
 # MP2/aug-cc-pVDZ Opt Freq(vibrot,anharmonic)
 ---------------------------------------------
 1/18=20,19=15,38=1,80=1/1,3;
 2/9=110,12=2,17=6,18=5,40=1/2;
 3/5=16,7=10,11=9,25=1,30=1,71=1/1,2,3;
 4//1;
 5/5=2,38=5/2;
 8/6=4,10=1/1;
 9/15=2,16=-3/6;
 10/5=1/2;
 6/7=2,8=2,9=2,10=2/1;
 7/12=2/1,2,3,16;
 1/18=20,19=15,80=1/3(2);
 2/9=110/2;
 99//99;
 2/9=110/2;
 3/5=16,7=10,11=9,25=1,30=1,71=1/1,2,3;
 4/5=5,16=3,69=1/1;
 5/5=2,38=5/2;
 8/6=4,10=1/1;
 9/15=2,16=-3/6;
 10/5=1/2;
 7/12=2/1,2,3,16;
 1/18=20,19=15,80=1/3(-8);
 2/9=110/2;
 6/7=2,8=2,9=2,10=2/1;
 99//99;
 ---------
 h2o meome
 ---------
 Symbolic Z-matrix:
 Charge =  0 Multiplicity = 1
 C                    -3.95864   0.07738   0.03396 
 O                    -2.59373   0.33129  -0.287 
 H                    -4.03929  -0.77914   0.71013 
 H                    -4.53795  -0.10287  -0.87666 
 H                    -4.36246   0.96006   0.53696 
 C                    -2.0056   -0.7862   -0.94715 
 H                    -0.96345  -0.54288  -1.17054 
 H                    -2.52668  -0.99219  -1.88702 
 H                    -2.0288   -1.66812  -0.29984 
 O                    -1.58975   2.89976  -0.54921 
 H                    -2.00283   2.0125   -0.59053 
 H                    -1.16321   2.87657   0.32029 
 
 Add virtual bond connecting atoms H11        and O2         Dist= 3.42D+00.

 GradGradGradGradGradGradGradGradGradGradGradGradGradGradGradGradGradGrad
 Berny optimization.
 Initialization pass.
                           ----------------------------
                           !    Initial Parameters    !
                           ! (Angstroms and Degrees)  !
 --------------------------                            --------------------------
 ! Name  Definition              Value          Derivative Info.                !
 --------------------------------------------------------------------------------
 ! R1    R(1,2)                  1.4249         estimate D2E/DX2                !
 ! R2    R(1,3)                  1.0942         estimate D2E/DX2                !
 ! R3    R(1,4)                  1.0942         estimate D2E/DX2                !
 ! R4    R(1,5)                  1.0933         estimate D2E/DX2                !
 ! R5    R(2,6)                  1.4249         estimate D2E/DX2                !
 ! R6    R(2,11)                 1.8077         estimate D2E/DX2                !
 ! R7    R(6,7)                  1.0933         estimate D2E/DX2                !
 ! R8    R(6,8)                  1.0942         estimate D2E/DX2                !
 ! R9    R(6,9)                  1.0942         estimate D2E/DX2                !
 ! R10   R(10,11)                0.9796         estimate D2E/DX2                !
 ! R11   R(10,12)                0.9688         estimate D2E/DX2                !
 ! A1    A(2,1,3)              110.4428         estimate D2E/DX2                !
 ! A2    A(2,1,4)              110.4274         estimate D2E/DX2                !
 ! A3    A(2,1,5)              108.2745         estimate D2E/DX2                !
 ! A4    A(3,1,4)              110.2608         estimate D2E/DX2                !
 ! A5    A(3,1,5)              108.691          estimate D2E/DX2                !
 ! A6    A(4,1,5)              108.6833         estimate D2E/DX2                !
 ! A7    A(1,2,6)              111.0972         estimate D2E/DX2                !
 ! A8    A(1,2,11)             121.1081         estimate D2E/DX2                !
 ! A9    A(6,2,11)             121.1081         estimate D2E/DX2                !
 ! A10   A(2,6,7)              108.2745         estimate D2E/DX2                !
 ! A11   A(2,6,8)              110.4274         estimate D2E/DX2                !
 ! A12   A(2,6,9)              110.4428         estimate D2E/DX2                !
 ! A13   A(7,6,8)              108.6833         estimate D2E/DX2                !
 ! A14   A(7,6,9)              108.691          estimate D2E/DX2                !
 ! A15   A(8,6,9)              110.2608         estimate D2E/DX2                !
 ! A16   A(11,10,12)           101.6452         estimate D2E/DX2                !
 ! A17   L(2,11,10,5,-1)       178.9253         estimate D2E/DX2                !
 ! A18   L(2,11,10,5,-2)       161.8433         estimate D2E/DX2                !
 ! D1    D(3,1,2,6)             61.0703         estimate D2E/DX2                !
 ! D2    D(3,1,2,11)          -147.3363         estimate D2E/DX2                !
 ! D3    D(4,1,2,6)            -61.1512         estimate D2E/DX2                !
 ! D4    D(4,1,2,11)            90.4422         estimate D2E/DX2                !
 ! D5    D(5,1,2,6)            179.9687         estimate D2E/DX2                !
 ! D6    D(5,1,2,11)           -28.4379         estimate D2E/DX2                !
 ! D7    D(1,2,6,7)           -179.9687         estimate D2E/DX2                !
 ! D8    D(1,2,6,8)             61.1512         estimate D2E/DX2                !
 ! D9    D(1,2,6,9)            -61.0703         estimate D2E/DX2                !
 ! D10   D(11,2,6,7)            28.4379         estimate D2E/DX2                !
 ! D11   D(11,2,6,8)           -90.4422         estimate D2E/DX2                !
 ! D12   D(11,2,6,9)           147.3363         estimate D2E/DX2                !
 ! D13   D(1,2,10,12)          102.8164         estimate D2E/DX2                !
 ! D14   D(6,2,10,12)         -102.8163         estimate D2E/DX2                !
 --------------------------------------------------------------------------------
 Trust Radius=3.00D-01 FncErr=1.00D-07 GrdErr=1.00D-07 EigMax=2.50D+02 EigMin=1.00D-04
 Number of steps in this run=     53 maximum allowed number of steps=    100.
 GradGradGradGradGradGradGradGradGradGradGradGradGradGradGradGradGradGrad

                          Input orientation:                          
 ---------------------------------------------------------------------
 Center     Atomic      Atomic             Coordinates (Angstroms)
 Number     Number       Type             X           Y           Z
 ---------------------------------------------------------------------
      1          6           0       -3.958641    0.077380    0.033964
      2          8           0       -2.593728    0.331295   -0.286995
      3          1           0       -4.039294   -0.779141    0.710130
      4          1           0       -4.537949   -0.102866   -0.876665
      5          1           0       -4.362456    0.960062    0.536957
      6          6           0       -2.005604   -0.786197   -0.947145
      7          1           0       -0.963448   -0.542882   -1.170536
      8          1           0       -2.526684   -0.992190   -1.887025
      9          1           0       -2.028798   -1.668125   -0.299843
     10          8           0       -1.589747    2.899760   -0.549206
     11          1           0       -2.002830    2.012500   -0.590534
     12          1           0       -1.163210    2.876567    0.320289
 ---------------------------------------------------------------------
                    Distance matrix (angstroms):
                    1          2          3          4          5
     1  C    0.000000
     2  O    1.424947   0.000000
     3  H    1.094228   2.077736   0.000000
     4  H    1.094226   2.077547   1.795529   0.000000
     5  H    1.093250   2.050035   1.777428   1.777341   0.000000
     6  C    2.350041   1.424947   2.623453   2.623867   3.287359
     7  H    3.287359   2.050035   3.612971   3.613452   4.089943
     8  H    2.623867   2.077547   3.013070   2.420105   3.613452
     9  H    2.623453   2.077736   2.419180   3.013070   3.612971
    10  O    3.730627   2.770153   4.595707   4.220768   3.553884
    11  H    2.821327   1.807691   3.692178   3.314132   2.818988
    12  H    3.966341   2.982212   4.667766   4.658173   3.735653
                    6          7          8          9         10
     6  C    0.000000
     7  H    1.093250   0.000000
     8  H    1.094226   1.777341   0.000000
     9  H    1.094228   1.777428   1.795529   0.000000
    10  O    3.730626   3.553883   4.220768   4.595707   0.000000
    11  H    2.821326   2.818988   3.314132   3.692177   0.979580
    12  H    3.966340   3.735652   4.658173   4.667765   0.968759
                   11         12
    11  H    0.000000
    12  H    1.510355   0.000000
 Stoichiometry    C2H8O2
 Framework group  C1[X(C2H8O2)]
 Deg. of freedom    30
 Full point group                 C1      NOp   1
 Largest Abelian subgroup         C1      NOp   1
 Largest concise Abelian subgroup C1      NOp   1
                         Standard orientation:                         
 ---------------------------------------------------------------------
 Center     Atomic      Atomic             Coordinates (Angstroms)
 Number     Number       Type             X           Y           Z
 ---------------------------------------------------------------------
      1          6           0       -1.102550   -1.175020    0.035643
      2          8           0       -0.319158   -0.000000   -0.154356
      3          1           0       -1.921639   -1.209590   -0.689086
      4          1           0       -1.497304   -1.210052    1.055581
      5          1           0       -0.459235   -2.044971   -0.120967
      6          6           0       -1.102549    1.175021    0.035643
      7          1           0       -0.459233    2.044971   -0.120967
      8          1           0       -1.497303    1.210053    1.055581
      9          1           0       -1.921639    1.209590   -0.689086
     10          8           0        2.437136   -0.000000    0.122391
     11          1           0        1.458817   -0.000000    0.172068
     12          1           0        2.584312    0.000001   -0.835123
 ---------------------------------------------------------------------
 Rotational constants (GHZ):           9.7103510           3.3363589           2.6001860
 Standard basis: Aug-CC-pVDZ (5D, 7F)
 There are   172 symmetry adapted cartesian basis functions of A   symmetry.
 There are   164 symmetry adapted basis functions of A   symmetry.
   164 basis functions,   260 primitive gaussians,   172 cartesian basis functions
    18 alpha electrons       18 beta electrons
       nuclear repulsion energy       133.9574214729 Hartrees.
 NAtoms=   12 NActive=   12 NUniq=   12 SFac= 1.00D+00 NAtFMM=   60 NAOKFM=F Big=F
 Integral buffers will be    131072 words long.
 Raffenetti 1 integral format.
 Two-electron integral symmetry is turned on.
 One-electron integrals computed using PRISM.
 NBasis=   164 RedAO= T EigKep=  2.33D-04  NBF=   164
 NBsUse=   164 1.00D-06 EigRej= -1.00D+00 NBFU=   164
 ExpMin= 2.97D-02 ExpMax= 1.17D+04 ExpMxC= 4.01D+02 IAcc=3 IRadAn=         5 AccDes= 0.00D+00
 Harris functional with IExCor=  205 and IRadAn=       5 diagonalized for initial guess.
 HarFok:  IExCor=  205 AccDes= 0.00D+00 IRadAn=         5 IDoV= 1 UseB2=F ITyADJ=14
 ICtDFT=  3500011 ScaDFX=  1.000000  1.000000  1.000000  1.000000
 FoFCou: FMM=F IPFlag=           0 FMFlag=      100000 FMFlg1=           0
         NFxFlg=           0 DoJE=T BraDBF=F KetDBF=T FulRan=T
         wScrn=  0.000000 ICntrl=       500 IOpCl=  0 I1Cent=   200000004 NGrid=           0
         NMat0=    1 NMatS0=      1 NMatT0=    0 NMatD0=    1 NMtDS0=    0 NMtDT0=    0
 Petite list used in FoFCou.
 Keep R1 ints in memory in canonical form, NReq=97722551.
 Requested convergence on RMS density matrix=1.00D-08 within 128 cycles.
 Requested convergence on MAX density matrix=1.00D-06.
 Requested convergence on             energy=1.00D-06.
 No special actions if energy rises.
 SCF Done:  E(RHF) =  -230.130977944     A.U. after   12 cycles
            NFock= 12  Conv=0.18D-08     -V/T= 2.0018
 ExpMin= 2.97D-02 ExpMax= 1.17D+04 ExpMxC= 4.01D+02 IAcc=3 IRadAn=         5 AccDes= 0.00D+00
 HarFok:  IExCor=  205 AccDes= 0.00D+00 IRadAn=         5 IDoV=-2 UseB2=F ITyADJ=14
 ICtDFT= 12500011 ScaDFX=  1.000000  1.000000  1.000000  1.000000
 Range of M.O.s used for correlation:     5   164
 NBasis=   164 NAE=    18 NBE=    18 NFC=     4 NFV=     0
 NROrb=    160 NOA=    14 NOB=    14 NVA=   146 NVB=   146

 **** Warning!!: The largest alpha MO coefficient is  0.17046158D+02

 Fully direct method using O(ONN) memory.
 JobTyp=1 Pass  1:  I=   5 to  18 NPSUse= 28 ParTrn=T ParDer=T DoDerP=T.
 Spin components of T(2) and E(2):
     alpha-alpha T2 =       0.2677200588D-01 E2=     -0.8829230388D-01
     alpha-beta  T2 =       0.1627843767D+00 E2=     -0.5536483254D+00
     beta-beta   T2 =       0.2677200588D-01 E2=     -0.8829230388D-01
 ANorm=    0.1102872789D+01
 E2 =    -0.7302329332D+00 EUMP2 =    -0.23086121087746D+03
          IDoAtm=111111111111
          Differentiating once with respect to electric field.
                with respect to dipole field.
          Differentiating once with respect to nuclear coordinates.
 Keep R1 ints in memory in canonical form, NReq=97729707.
          There are     1 degrees of freedom in the 1st order CPHF.  IDoFFX=0 NUNeed=     1.
 LinEq1:  Iter=  0 NonCon=     1 RMS=3.93D-03 Max=5.93D-02 NDo=     1
 AX will form     1 AO Fock derivatives at one time.
 LinEq1:  Iter=  1 NonCon=     1 RMS=9.14D-04 Max=9.45D-03 NDo=     1
 LinEq1:  Iter=  2 NonCon=     1 RMS=2.91D-04 Max=3.12D-03 NDo=     1
 LinEq1:  Iter=  3 NonCon=     1 RMS=6.99D-05 Max=8.96D-04 NDo=     1
 LinEq1:  Iter=  4 NonCon=     1 RMS=2.50D-05 Max=2.97D-04 NDo=     1
 LinEq1:  Iter=  5 NonCon=     1 RMS=7.23D-06 Max=1.10D-04 NDo=     1
 LinEq1:  Iter=  6 NonCon=     1 RMS=2.20D-06 Max=1.64D-05 NDo=     1
 LinEq1:  Iter=  7 NonCon=     1 RMS=4.67D-07 Max=3.51D-06 NDo=     1
 LinEq1:  Iter=  8 NonCon=     1 RMS=9.90D-08 Max=8.32D-07 NDo=     1
 LinEq1:  Iter=  9 NonCon=     1 RMS=1.63D-08 Max=1.83D-07 NDo=     1
 LinEq1:  Iter= 10 NonCon=     1 RMS=2.88D-09 Max=2.51D-08 NDo=     1
 LinEq1:  Iter= 11 NonCon=     1 RMS=3.26D-10 Max=3.00D-09 NDo=     1
 LinEq1:  Iter= 12 NonCon=     0 RMS=4.88D-11 Max=4.64D-10 NDo=     1
 Linear equations converged to 1.000D-10 1.000D-09 after    12 iterations.
 End of Minotr F.D. properties file   721 does not exist.
 End of Minotr F.D. properties file   722 does not exist.
 End of Minotr F.D. properties file   788 does not exist.

 **********************************************************************

            Population analysis using the SCF density.

 **********************************************************************

 Orbital symmetries:
       Occupied  (A) (A) (A) (A) (A) (A) (A) (A) (A) (A) (A) (A)
                 (A) (A) (A) (A) (A) (A)
       Virtual   (A) (A) (A) (A) (A) (A) (A) (A) (A) (A) (A) (A)
                 (A) (A) (A) (A) (A) (A) (A) (A) (A) (A) (A) (A)
                 (A) (A) (A) (A) (A) (A) (A) (A) (A) (A) (A) (A)
                 (A) (A) (A) (A) (A) (A) (A) (A) (A) (A) (A) (A)
                 (A) (A) (A) (A) (A) (A) (A) (A) (A) (A) (A) (A)
                 (A) (A) (A) (A) (A) (A) (A) (A) (A) (A) (A) (A)
                 (A) (A) (A) (A) (A) (A) (A) (A) (A) (A) (A) (A)
                 (A) (A) (A) (A) (A) (A) (A) (A) (A) (A) (A) (A)
                 (A) (A) (A) (A) (A) (A) (A) (A) (A) (A) (A) (A)
                 (A) (A) (A) (A) (A) (A) (A) (A) (A) (A) (A) (A)
                 (A) (A) (A) (A) (A) (A) (A) (A) (A) (A) (A) (A)
                 (A) (A) (A) (A) (A) (A) (A) (A) (A) (A) (A) (A)
                 (A) (A)
 The electronic state is 1-A.
 Alpha  occ. eigenvalues --  -20.59033 -20.53737 -11.29383 -11.29380  -1.39496
 Alpha  occ. eigenvalues --   -1.31099  -0.98485  -0.89623  -0.69248  -0.67552
 Alpha  occ. eigenvalues --   -0.65289  -0.64972  -0.56956  -0.55632  -0.54132
 Alpha  occ. eigenvalues --   -0.49643  -0.46986  -0.44878
 Alpha virt. eigenvalues --    0.03118   0.04543   0.04900   0.05385   0.07332
 Alpha virt. eigenvalues --    0.07393   0.07527   0.09484   0.11240   0.14082
 Alpha virt. eigenvalues --    0.15217   0.15670   0.16789   0.16937   0.17690
 Alpha virt. eigenvalues --    0.19627   0.20756   0.25112   0.25321   0.25772
 Alpha virt. eigenvalues --    0.26533   0.27454   0.28689   0.30038   0.30270
 Alpha virt. eigenvalues --    0.31894   0.34299   0.35045   0.36038   0.38318
 Alpha virt. eigenvalues --    0.38662   0.40224   0.42622   0.42706   0.43099
 Alpha virt. eigenvalues --    0.44786   0.46155   0.47580   0.47616   0.49537
 Alpha virt. eigenvalues --    0.50642   0.50885   0.54566   0.56067   0.56433
 Alpha virt. eigenvalues --    0.57674   0.60210   0.61190   0.61381   0.62174
 Alpha virt. eigenvalues --    0.62343   0.63564   0.64806   0.65891   0.66319
 Alpha virt. eigenvalues --    0.67628   0.68942   0.69412   0.70384   0.72401
 Alpha virt. eigenvalues --    0.72821   0.75459   0.77390   0.79691   0.81985
 Alpha virt. eigenvalues --    0.82782   0.85328   0.88669   1.00112   1.01808
 Alpha virt. eigenvalues --    1.02940   1.05785   1.06925   1.08077   1.12644
 Alpha virt. eigenvalues --    1.15432   1.15913   1.18854   1.23188   1.24896
 Alpha virt. eigenvalues --    1.25940   1.25975   1.34654   1.35338   1.42849
 Alpha virt. eigenvalues --    1.47488   1.52064   1.53860   1.56472   1.59350
 Alpha virt. eigenvalues --    1.59913   1.65893   1.72325   1.72811   1.77186
 Alpha virt. eigenvalues --    1.78879   1.83131   1.85249   1.85663   1.90255
 Alpha virt. eigenvalues --    1.92737   1.95545   2.00795   2.03759   2.08247
 Alpha virt. eigenvalues --    2.10926   2.12864   2.16642   2.16762   2.17641
 Alpha virt. eigenvalues --    2.21443   2.24552   2.24663   2.26645   2.30770
 Alpha virt. eigenvalues --    2.35212   2.36109   2.44632   2.51055   2.54638
 Alpha virt. eigenvalues --    2.57449   2.60246   2.63742   2.71077   2.72105
 Alpha virt. eigenvalues --    2.76165   2.79775   2.84674   2.88826   2.91950
 Alpha virt. eigenvalues --    2.98481   2.99106   3.07272   3.11939   3.14576
 Alpha virt. eigenvalues --    3.28063   3.72304   3.76777   3.81109   3.85982
 Alpha virt. eigenvalues --    3.91381   3.96684   4.07659   4.10367   4.19606
 Alpha virt. eigenvalues --    4.48120
          Condensed to atoms (all electrons):
               1          2          3          4          5          6
     1  C    3.974460   0.071857   0.359637   0.333406   0.506583  -0.038814
     2  O    0.071857   8.994542  -0.042095   0.042935  -0.116231   0.071857
     3  H    0.359637  -0.042095   1.042708  -0.083350  -0.200767   0.007730
     4  H    0.333406   0.042935  -0.083350   0.922110  -0.178015   0.017713
     5  H    0.506583  -0.116231  -0.200767  -0.178015   1.249619  -0.023975
     6  C   -0.038814   0.071857   0.007730   0.017713  -0.023975   3.974460
     7  H   -0.023975  -0.116231   0.005930   0.005629  -0.006480   0.506583
     8  H    0.017713   0.042935  -0.011867  -0.009747   0.005629   0.333406
     9  H    0.007730  -0.042095   0.001165  -0.011867   0.005930   0.359637
    10  O    0.006069  -0.027801  -0.000241   0.000694  -0.001244   0.006069
    11  H   -0.000905   0.026365  -0.001823   0.000749   0.001165  -0.000905
    12  H   -0.000882   0.002809   0.000184  -0.000347  -0.000053  -0.000882
               7          8          9         10         11         12
     1  C   -0.023975   0.017713   0.007730   0.006069  -0.000905  -0.000882
     2  O   -0.116231   0.042935  -0.042095  -0.027801   0.026365   0.002809
     3  H    0.005930  -0.011867   0.001165  -0.000241  -0.001823   0.000184
     4  H    0.005629  -0.009747  -0.011867   0.000694   0.000749  -0.000347
     5  H   -0.006480   0.005629   0.005930  -0.001244   0.001165  -0.000053
     6  C    0.506583   0.333406   0.359637   0.006069  -0.000905  -0.000882
     7  H    1.249619  -0.178015  -0.200767  -0.001244   0.001165  -0.000053
     8  H   -0.178015   0.922110  -0.083350   0.000694   0.000749  -0.000347
     9  H   -0.200767  -0.083350   1.042708  -0.000241  -0.001823   0.000184
    10  O   -0.001244   0.000694  -0.000241   7.855000   0.221695   0.332936
    11  H    0.001165   0.000749  -0.001823   0.221695   0.492179  -0.031530
    12  H   -0.000053  -0.000347   0.000184   0.332936  -0.031530   0.545347
 Mulliken charges:
               1
     1  C    0.787121
     2  O   -0.908848
     3  H   -0.077210
     4  H   -0.039911
     5  H   -0.242160
     6  C    0.787121
     7  H   -0.242160
     8  H   -0.039911
     9  H   -0.077210
    10  O   -0.392383
    11  H    0.292917
    12  H    0.152636
 Sum of Mulliken charges =  -0.00000
 Mulliken charges with hydrogens summed into heavy atoms:
               1
     1  C    0.427839
     2  O   -0.908848
     6  C    0.427839
    10  O    0.053170
 Electronic spatial extent (au):  <R**2>=            485.8082
 Charge=             -0.0000 electrons
 Dipole moment (field-independent basis, Debye):
    X=             -3.7515    Y=              0.0000    Z=             -1.1140  Tot=              3.9134
 Quadrupole moment (field-independent basis, Debye-Ang):
   XX=            -31.8177   YY=            -24.2312   ZZ=            -25.4915
   XY=              0.0000   XZ=             -4.5419   YZ=             -0.0000
 Traceless Quadrupole moment (field-independent basis, Debye-Ang):
   XX=             -4.6376   YY=              2.9489   ZZ=              1.6886
   XY=              0.0000   XZ=             -4.5419   YZ=             -0.0000
 Octapole moment (field-independent basis, Debye-Ang**2):
  XXX=            -13.8121  YYY=             -0.0000  ZZZ=             -1.0690  XYY=             -1.2717
  XXY=              0.0000  XXZ=            -13.8352  XZZ=              4.1622  YZZ=              0.0000
  YYZ=             -0.7572  XYZ=             -0.0000
 Hexadecapole moment (field-independent basis, Debye-Ang**3):
 XXXX=           -443.7804 YYYY=           -164.4109 ZZZZ=            -40.4205 XXXY=              0.0000
 XXXZ=            -33.3205 YYYX=              0.0000 YYYZ=             -0.0000 ZZZX=             -5.7361
 ZZZY=             -0.0000 XXYY=            -98.5195 XXZZ=            -62.1300 YYZZ=            -36.5679
 XXYZ=             -0.0000 YYXZ=             -0.8678 ZZXY=              0.0000
 N-N= 1.339574214729D+02 E-N=-8.097947237334D+02  KE= 2.297284038880D+02
 Calling FoFJK, ICntrl=  10002127 FMM=F ISym2X=0 I1Cent= 0 IOpClX= 0 NMat=1 NMatS=1 NMatT=0.
 ***** Axes restored to original set *****
 -------------------------------------------------------------------
 Center     Atomic                   Forces (Hartrees/Bohr)
 Number     Number              X              Y              Z
 -------------------------------------------------------------------
      1        6           0.001093505    0.003658511    0.000610295
      2        8           0.001860675    0.001887561    0.002042504
      3        1          -0.001008720   -0.006392743    0.002838747
      4        1          -0.004046722   -0.002994496   -0.005280260
      5        1           0.001318739    0.004045651    0.001169638
      6        6           0.002241073    0.003151090    0.000033813
      7        1           0.002779780    0.003399620    0.000435682
      8        1          -0.003949890   -0.003037313   -0.005328904
      9        1          -0.001550096   -0.006153362    0.003110708
     10        8          -0.000017526   -0.003591783    0.003126611
     11        1           0.001819257    0.003794171    0.000281832
     12        1          -0.000540076    0.002233093   -0.003040666
 -------------------------------------------------------------------
 Cartesian Forces:  Max     0.006392743 RMS     0.003079375

 GradGradGradGradGradGradGradGradGradGradGradGradGradGradGradGradGradGrad
 Berny optimization.
 FormGI is forming the generalized inverse of G from B-inverse, IUseBI=4.
 Internal  Forces:  Max     0.007029992 RMS     0.002787024
 Search for a local minimum.
 Step number   1 out of a maximum of   53
 All quantities printed in internal units (Hartrees-Bohrs-Radians)
 Mixed Optimization -- RFO/linear search
 Second derivative matrix not updated -- first step.
 ITU=  0
     Eigenvalues ---    0.00230   0.01218   0.01299   0.01362   0.01362
     Eigenvalues ---    0.01569   0.06026   0.07653   0.07653   0.07979
     Eigenvalues ---    0.07979   0.13977   0.16000   0.16000   0.16000
     Eigenvalues ---    0.16000   0.16000   0.16000   0.16000   0.21503
     Eigenvalues ---    0.34329   0.34329   0.34329   0.34329   0.34436
     Eigenvalues ---    0.34440   0.41724   0.41724   0.51443   0.53631
 RFO step:  Lambda=-1.88218636D-03 EMin= 2.30000000D-03
 Linear search not attempted -- first point.
 Iteration  1 RMS(Cart)=  0.05990455 RMS(Int)=  0.00369487
 Iteration  2 RMS(Cart)=  0.00476347 RMS(Int)=  0.00039035
 Iteration  3 RMS(Cart)=  0.00002235 RMS(Int)=  0.00039005
 Iteration  4 RMS(Cart)=  0.00000001 RMS(Int)=  0.00039005
 Variable       Old X    -DE/DX   Delta X   Delta X   Delta X     New X
                                 (Linear)    (Quad)   (Total)
    R1        2.69276   0.00265   0.00000   0.00633   0.00632   2.69908
    R2        2.06779   0.00683   0.00000   0.01979   0.01979   2.08759
    R3        2.06779   0.00703   0.00000   0.02037   0.02037   2.08815
    R4        2.06594   0.00317   0.00000   0.00915   0.00914   2.07509
    R5        2.69276   0.00268   0.00000   0.00640   0.00640   2.69916
    R6        3.41604   0.00272   0.00000   0.04387   0.04389   3.45993
    R7        2.06594   0.00332   0.00000   0.00958   0.00958   2.07552
    R8        2.06779   0.00703   0.00000   0.02037   0.02037   2.08815
    R9        2.06779   0.00683   0.00000   0.01979   0.01979   2.08759
   R10        1.85114  -0.00145   0.00000  -0.00282  -0.00284   1.84830
   R11        1.83069  -0.00302   0.00000  -0.00561  -0.00561   1.82508
    A1        1.92759   0.00078   0.00000   0.00400   0.00400   1.93159
    A2        1.92732   0.00156   0.00000   0.00916   0.00918   1.93650
    A3        1.88975  -0.00419   0.00000  -0.02462  -0.02459   1.86516
    A4        1.92441  -0.00172   0.00000  -0.01305  -0.01305   1.91137
    A5        1.89702   0.00190   0.00000   0.01270   0.01271   1.90973
    A6        1.89688   0.00166   0.00000   0.01185   0.01191   1.90879
    A7        1.93901   0.00046   0.00000   0.00046  -0.00008   1.93893
    A8        2.11373  -0.00005   0.00000  -0.00162  -0.00152   2.11221
    A9        2.11373  -0.00044   0.00000  -0.00448  -0.00441   2.10932
   A10        1.88975  -0.00422   0.00000  -0.02480  -0.02476   1.86499
   A11        1.92732   0.00156   0.00000   0.00908   0.00911   1.93643
   A12        1.92759   0.00079   0.00000   0.00414   0.00414   1.93173
   A13        1.89688   0.00165   0.00000   0.01167   0.01173   1.90861
   A14        1.89702   0.00193   0.00000   0.01296   0.01297   1.90999
   A15        1.92441  -0.00172   0.00000  -0.01302  -0.01302   1.91140
   A16        1.77404   0.00425   0.00000   0.02628   0.02628   1.80033
   A17        3.12284   0.00070   0.00000   0.04893   0.04898   3.17182
   A18        2.82470   0.00272   0.00000   0.18953   0.18998   3.01468
    D1        1.06588  -0.00016   0.00000   0.00436   0.00466   1.07054
    D2       -2.57150  -0.00033   0.00000  -0.00794  -0.00823  -2.57973
    D3       -1.06729   0.00044   0.00000   0.01195   0.01222  -1.05507
    D4        1.57851   0.00026   0.00000  -0.00035  -0.00067   1.57785
    D5        3.14105   0.00006   0.00000   0.00717   0.00747  -3.13467
    D6       -0.49633  -0.00011   0.00000  -0.00513  -0.00541  -0.50175
    D7       -3.14105  -0.00003   0.00000  -0.00796  -0.00825   3.13389
    D8        1.06729  -0.00038   0.00000  -0.01238  -0.01263   1.05466
    D9       -1.06588   0.00021   0.00000  -0.00487  -0.00515  -1.07103
   D10        0.49633   0.00002   0.00000   0.00341   0.00367   0.50000
   D11       -1.57851  -0.00033   0.00000  -0.00101  -0.00071  -1.57923
   D12        2.57150   0.00026   0.00000   0.00650   0.00677   2.57827
   D13        1.79449   0.00047   0.00000   0.03856   0.03697   1.83145
   D14       -1.79448  -0.00047   0.00000  -0.03856  -0.03697  -1.83145
         Item               Value     Threshold  Converged?
 Maximum Force            0.007030     0.000450     NO 
 RMS     Force            0.002787     0.000300     NO 
 Maximum Displacement     0.242124     0.001800     NO 
 RMS     Displacement     0.059399     0.001200     NO 
 Predicted change in Energy=-9.855686D-04
 GradGradGradGradGradGradGradGradGradGradGradGradGradGradGradGradGradGrad

                          Input orientation:                          
 ---------------------------------------------------------------------
 Center     Atomic      Atomic             Coordinates (Angstroms)
 Number     Number       Type             X           Y           Z
 ---------------------------------------------------------------------
      1          6           0       -3.971969    0.058706    0.036498
      2          8           0       -2.595526    0.306112   -0.253707
      3          1           0       -4.079926   -0.825193    0.690284
      4          1           0       -4.549972   -0.096469   -0.892408
      5          1           0       -4.352310    0.947118    0.557903
      6          6           0       -2.009563   -0.797701   -0.945361
      7          1           0       -0.961643   -0.532028   -1.139239
      8          1           0       -2.524687   -0.980659   -1.905677
      9          1           0       -2.048510   -1.711450   -0.325753
     10          8           0       -1.583330    2.902888   -0.579849
     11          1           0       -1.976692    2.010147   -0.509745
     12          1           0       -1.118261    3.004693    0.260446
 ---------------------------------------------------------------------
                    Distance matrix (angstroms):
                    1          2          3          4          5
     1  C    0.000000
     2  O    1.428294   0.000000
     3  H    1.104703   2.091510   0.000000
     4  H    1.105004   2.095201   1.804687   0.000000
     5  H    1.098088   2.038600   1.798000   1.797650   0.000000
     6  C    2.355529   1.428335   2.638653   2.635945   3.285218
     7  H    3.285329   2.038681   3.627228   3.623084   4.069986
     8  H    2.635706   2.095185   3.030174   2.431108   3.622949
     9  H    2.639009   2.091643   2.438120   3.030936   3.627165
    10  O    3.764950   2.806092   4.663134   4.230225   3.575859
    11  H    2.843876   1.830914   3.728648   3.347541   2.813088
    12  H    4.107633   3.119136   4.860479   4.766857   3.844629
                    6          7          8          9         10
     6  C    0.000000
     7  H    1.098320   0.000000
     8  H    1.105004   1.797721   0.000000
     9  H    1.104703   1.798353   1.804705   0.000000
    10  O    3.742944   3.535259   4.210214   4.644682   0.000000
    11  H    2.841629   2.808780   3.345721   3.726835   0.978077
    12  H    4.087370   3.806842   4.749016   4.842623   0.965789
                   11         12
    11  H    0.000000
    12  H    1.522899   0.000000
 Stoichiometry    C2H8O2
 Framework group  C1[X(C2H8O2)]
 Deg. of freedom    30
 Full point group                 C1      NOp   1
 Largest Abelian subgroup         C1      NOp   1
 Largest concise Abelian subgroup C1      NOp   1
                         Standard orientation:                         
 ---------------------------------------------------------------------
 Center     Atomic      Atomic             Coordinates (Angstroms)
 Number     Number       Type             X           Y           Z
 ---------------------------------------------------------------------
      1          6           0       -1.128069   -1.170567    0.043874
      2          8           0       -0.335926   -0.004137   -0.184103
      3          1           0       -1.987882   -1.199633   -0.649122
      4          1           0       -1.492995   -1.202857    1.086381
      5          1           0       -0.479867   -2.037213   -0.142020
      6          6           0       -1.094351    1.184720    0.042943
      7          1           0       -0.421086    2.032348   -0.142926
      8          1           0       -1.458509    1.228006    1.085319
      9          1           0       -1.952740    1.238234   -0.650362
     10          8           0        2.452012   -0.008823    0.134539
     11          1           0        1.475593   -0.027228    0.080689
     12          1           0        2.723317   -0.012897   -0.792351
 ---------------------------------------------------------------------
 Rotational constants (GHZ):           9.6543443           3.2711321           2.5606540
 Standard basis: Aug-CC-pVDZ (5D, 7F)
 There are   172 symmetry adapted cartesian basis functions of A   symmetry.
 There are   164 symmetry adapted basis functions of A   symmetry.
   164 basis functions,   260 primitive gaussians,   172 cartesian basis functions
    18 alpha electrons       18 beta electrons
       nuclear repulsion energy       133.1993251186 Hartrees.
 NAtoms=   12 NActive=   12 NUniq=   12 SFac= 1.00D+00 NAtFMM=   60 NAOKFM=F Big=F
 Integral buffers will be    131072 words long.
 Raffenetti 1 integral format.
 Two-electron integral symmetry is turned on.
 One-electron integrals computed using PRISM.
 NBasis=   164 RedAO= T EigKep=  2.47D-04  NBF=   164
 NBsUse=   164 1.00D-06 EigRej= -1.00D+00 NBFU=   164
 Initial guess from the checkpoint file:  "h2o_meome.chk"
 B after Tr=     0.000000   -0.000000    0.000000
         Rot=    0.999993    0.000246   -0.000357    0.003800 Ang=   0.44 deg.
 ExpMin= 2.97D-02 ExpMax= 1.17D+04 ExpMxC= 4.01D+02 IAcc=3 IRadAn=         5 AccDes= 0.00D+00
 Harris functional with IExCor=  205 and IRadAn=       5 diagonalized for initial guess.
 HarFok:  IExCor=  205 AccDes= 0.00D+00 IRadAn=         5 IDoV= 1 UseB2=F ITyADJ=14
 ICtDFT=  3500011 ScaDFX=  1.000000  1.000000  1.000000  1.000000
 FoFCou: FMM=F IPFlag=           0 FMFlag=      100000 FMFlg1=           0
         NFxFlg=           0 DoJE=T BraDBF=F KetDBF=T FulRan=T
         wScrn=  0.000000 ICntrl=       500 IOpCl=  0 I1Cent=   200000004 NGrid=           0
         NMat0=    1 NMatS0=      1 NMatT0=    0 NMatD0=    1 NMtDS0=    0 NMtDT0=    0
 Petite list used in FoFCou.
 Keep R1 ints in memory in canonical form, NReq=97721583.
 Requested convergence on RMS density matrix=1.00D-08 within 128 cycles.
 Requested convergence on MAX density matrix=1.00D-06.
 Requested convergence on             energy=1.00D-06.
 No special actions if energy rises.
 SCF Done:  E(RHF) =  -230.131329222     A.U. after   10 cycles
            NFock= 10  Conv=0.92D-08     -V/T= 2.0021
 ExpMin= 2.97D-02 ExpMax= 1.17D+04 ExpMxC= 4.01D+02 IAcc=3 IRadAn=         5 AccDes= 0.00D+00
 HarFok:  IExCor=  205 AccDes= 0.00D+00 IRadAn=         5 IDoV=-2 UseB2=F ITyADJ=14
 ICtDFT= 12500011 ScaDFX=  1.000000  1.000000  1.000000  1.000000
 Range of M.O.s used for correlation:     5   164
 NBasis=   164 NAE=    18 NBE=    18 NFC=     4 NFV=     0
 NROrb=    160 NOA=    14 NOB=    14 NVA=   146 NVB=   146

 **** Warning!!: The largest alpha MO coefficient is  0.16754444D+02

 Fully direct method using O(ONN) memory.
 JobTyp=1 Pass  1:  I=   5 to  18 NPSUse= 28 ParTrn=T ParDer=T DoDerP=T.
 Spin components of T(2) and E(2):
     alpha-alpha T2 =       0.2686038299D-01 E2=     -0.8829286398D-01
     alpha-beta  T2 =       0.1637075313D+00 E2=     -0.5543938757D+00
     beta-beta   T2 =       0.2686038299D-01 E2=     -0.8829286398D-01
 ANorm=    0.1103371332D+01
 E2 =    -0.7309796037D+00 EUMP2 =    -0.23086230882571D+03
          IDoAtm=111111111111
          Differentiating once with respect to electric field.
                with respect to dipole field.
          Differentiating once with respect to nuclear coordinates.
 Keep R1 ints in memory in canonical form, NReq=97729223.
          There are     1 degrees of freedom in the 1st order CPHF.  IDoFFX=0 NUNeed=     1.
 LinEq1:  Iter=  0 NonCon=     1 RMS=3.94D-03 Max=5.86D-02 NDo=     1
 AX will form     1 AO Fock derivatives at one time.
 LinEq1:  Iter=  1 NonCon=     1 RMS=9.26D-04 Max=8.37D-03 NDo=     1
 LinEq1:  Iter=  2 NonCon=     1 RMS=2.93D-04 Max=3.33D-03 NDo=     1
 LinEq1:  Iter=  3 NonCon=     1 RMS=7.25D-05 Max=9.10D-04 NDo=     1
 LinEq1:  Iter=  4 NonCon=     1 RMS=2.58D-05 Max=2.97D-04 NDo=     1
 LinEq1:  Iter=  5 NonCon=     1 RMS=7.46D-06 Max=1.12D-04 NDo=     1
 LinEq1:  Iter=  6 NonCon=     1 RMS=2.27D-06 Max=1.75D-05 NDo=     1
 LinEq1:  Iter=  7 NonCon=     1 RMS=4.83D-07 Max=3.60D-06 NDo=     1
 LinEq1:  Iter=  8 NonCon=     1 RMS=1.01D-07 Max=8.45D-07 NDo=     1
 LinEq1:  Iter=  9 NonCon=     1 RMS=1.68D-08 Max=1.89D-07 NDo=     1
 LinEq1:  Iter= 10 NonCon=     1 RMS=2.95D-09 Max=2.72D-08 NDo=     1
 LinEq1:  Iter= 11 NonCon=     1 RMS=3.32D-10 Max=2.62D-09 NDo=     1
 LinEq1:  Iter= 12 NonCon=     0 RMS=5.38D-11 Max=4.61D-10 NDo=     1
 Linear equations converged to 1.000D-10 1.000D-09 after    12 iterations.
 End of Minotr F.D. properties file   721 does not exist.
 End of Minotr F.D. properties file   722 does not exist.
 End of Minotr F.D. properties file   788 does not exist.
 Calling FoFJK, ICntrl=  10002127 FMM=F ISym2X=0 I1Cent= 0 IOpClX= 0 NMat=1 NMatS=1 NMatT=0.
 ***** Axes restored to original set *****
 -------------------------------------------------------------------
 Center     Atomic                   Forces (Hartrees/Bohr)
 Number     Number              X              Y              Z
 -------------------------------------------------------------------
      1        6          -0.000970761    0.001806974    0.000920235
      2        8          -0.001083887   -0.002192796    0.000286370
      3        1           0.000008139   -0.000266959   -0.000529884
      4        1           0.000340092   -0.000470411    0.000100876
      5        1          -0.000115735   -0.000168514   -0.000136927
      6        6           0.002363464    0.000605386   -0.000739989
      7        1          -0.000329438   -0.000162222   -0.000078072
      8        1          -0.000356298   -0.000159942    0.000455959
      9        1          -0.000553948    0.000003881   -0.000225727
     10        8          -0.000838434   -0.002026485    0.000815881
     11        1           0.001556547    0.002267314   -0.000130043
     12        1          -0.000019741    0.000763773   -0.000738680
 -------------------------------------------------------------------
 Cartesian Forces:  Max     0.002363464 RMS     0.000963553

 GradGradGradGradGradGradGradGradGradGradGradGradGradGradGradGradGradGrad
 Berny optimization.
 Using GEDIIS/GDIIS optimizer.
 FormGI is forming the generalized inverse of G from B-inverse, IUseBI=4.
 Internal  Forces:  Max     0.001635367 RMS     0.000573788
 Search for a local minimum.
 Step number   2 out of a maximum of   53
 All quantities printed in internal units (Hartrees-Bohrs-Radians)
 Mixed Optimization -- En-DIIS/RFO-DIIS
 Update second derivatives using D2CorX and points    1    2
 DE= -1.10D-03 DEPred=-9.86D-04 R= 1.11D+00
 TightC=F SS=  1.41D+00  RLast= 2.21D-01 DXNew= 5.0454D-01 6.6258D-01
 Trust test= 1.11D+00 RLast= 2.21D-01 DXMaxT set to 5.05D-01
 ITU=  1  0
 Use linear search instead of GDIIS.
     Eigenvalues ---    0.00230   0.00991   0.01332   0.01362   0.01362
     Eigenvalues ---    0.01595   0.05728   0.07513   0.07624   0.08080
     Eigenvalues ---    0.08083   0.13885   0.15371   0.16000   0.16000
     Eigenvalues ---    0.16000   0.16000   0.16000   0.17041   0.21281
     Eigenvalues ---    0.34326   0.34329   0.34329   0.34403   0.34439
     Eigenvalues ---    0.37518   0.41516   0.41726   0.51456   0.53552
 RFO step:  Lambda=-2.70236346D-04 EMin= 2.29997367D-03
 Quartic linear search produced a step of  0.23639.
 Iteration  1 RMS(Cart)=  0.04215047 RMS(Int)=  0.00211204
 Iteration  2 RMS(Cart)=  0.00287004 RMS(Int)=  0.00016468
 Iteration  3 RMS(Cart)=  0.00001131 RMS(Int)=  0.00016451
 Iteration  4 RMS(Cart)=  0.00000000 RMS(Int)=  0.00016451
 Variable       Old X    -DE/DX   Delta X   Delta X   Delta X     New X
                                 (Linear)    (Quad)   (Total)
    R1        2.69908   0.00062   0.00149   0.00112   0.00261   2.70169
    R2        2.08759  -0.00010   0.00468  -0.00260   0.00208   2.08967
    R3        2.08815  -0.00020   0.00481  -0.00300   0.00181   2.08996
    R4        2.07509  -0.00019   0.00216  -0.00172   0.00045   2.07553
    R5        2.69916   0.00052   0.00151   0.00082   0.00234   2.70150
    R6        3.45993   0.00120   0.01037   0.01957   0.02994   3.48987
    R7        2.07552  -0.00034   0.00226  -0.00230  -0.00003   2.07549
    R8        2.08815  -0.00020   0.00481  -0.00303   0.00178   2.08994
    R9        2.08759  -0.00011   0.00468  -0.00263   0.00205   2.08963
   R10        1.84830  -0.00150  -0.00067  -0.00328  -0.00395   1.84434
   R11        1.82508  -0.00057  -0.00133  -0.00068  -0.00201   1.82307
    A1        1.93159  -0.00014   0.00095  -0.00240  -0.00146   1.93013
    A2        1.93650  -0.00042   0.00217  -0.00550  -0.00333   1.93317
    A3        1.86516   0.00052  -0.00581   0.00878   0.00298   1.86813
    A4        1.91137  -0.00027  -0.00308  -0.00435  -0.00745   1.90391
    A5        1.90973   0.00018   0.00301   0.00238   0.00539   1.91512
    A6        1.90879   0.00016   0.00282   0.00152   0.00435   1.91314
    A7        1.93893   0.00119  -0.00002   0.00469   0.00437   1.94330
    A8        2.11221  -0.00040  -0.00036  -0.00432  -0.00469   2.10752
    A9        2.10932  -0.00082  -0.00104  -0.00770  -0.00874   2.10058
   A10        1.86499   0.00048  -0.00585   0.00851   0.00267   1.86765
   A11        1.93643  -0.00042   0.00215  -0.00553  -0.00338   1.93305
   A12        1.93173  -0.00021   0.00098  -0.00291  -0.00194   1.92979
   A13        1.90861   0.00019   0.00277   0.00170   0.00448   1.91309
   A14        1.90999   0.00023   0.00307   0.00275   0.00582   1.91580
   A15        1.91140  -0.00024  -0.00308  -0.00408  -0.00718   1.90422
   A16        1.80033   0.00164   0.00621   0.00962   0.01583   1.81616
   A17        3.17182  -0.00032   0.01158  -0.03445  -0.02288   3.14893
   A18        3.01468   0.00132   0.04491   0.10387   0.14896   3.16364
    D1        1.07054  -0.00025   0.00110   0.00232   0.00355   1.07409
    D2       -2.57973  -0.00053  -0.00195  -0.01371  -0.01577  -2.59550
    D3       -1.05507   0.00048   0.00289   0.01322   0.01621  -1.03885
    D4        1.57785   0.00020  -0.00016  -0.00281  -0.00311   1.57474
    D5       -3.13467   0.00020   0.00177   0.00913   0.01102  -3.12364
    D6       -0.50175  -0.00008  -0.00128  -0.00690  -0.00830  -0.51004
    D7        3.13389  -0.00014  -0.00195  -0.00929  -0.01135   3.12254
    D8        1.05466  -0.00042  -0.00299  -0.01341  -0.01649   1.03817
    D9       -1.07103   0.00031  -0.00122  -0.00248  -0.00381  -1.07484
   D10        0.50000  -0.00000   0.00087   0.00559   0.00655   0.50655
   D11       -1.57923  -0.00028  -0.00017   0.00146   0.00141  -1.57781
   D12        2.57827   0.00045   0.00160   0.01240   0.01409   2.59236
   D13        1.83145   0.00007   0.00874   0.01466   0.02273   1.85419
   D14       -1.83145  -0.00010  -0.00874  -0.02892  -0.03699  -1.86844
         Item               Value     Threshold  Converged?
 Maximum Force            0.001635     0.000450     NO 
 RMS     Force            0.000574     0.000300     NO 
 Maximum Displacement     0.172252     0.001800     NO 
 RMS     Displacement     0.042013     0.001200     NO 
 Predicted change in Energy=-1.645742D-04
 GradGradGradGradGradGradGradGradGradGradGradGradGradGradGradGradGradGrad

                          Input orientation:                          
 ---------------------------------------------------------------------
 Center     Atomic      Atomic             Coordinates (Angstroms)
 Number     Number       Type             X           Y           Z
 ---------------------------------------------------------------------
      1          6           0       -3.973697    0.054436    0.040851
      2          8           0       -2.588082    0.283518   -0.226664
      3          1           0       -4.104598   -0.844815    0.670945
      4          1           0       -4.538055   -0.078600   -0.900931
      5          1           0       -4.348959    0.938420    0.573832
      6          6           0       -2.009158   -0.809001   -0.944246
      7          1           0       -0.957370   -0.551480   -1.127810
      8          1           0       -2.527498   -0.962834   -1.909016
      9          1           0       -2.068088   -1.739290   -0.349391
     10          8           0       -1.600026    2.901862   -0.594557
     11          1           0       -1.941564    1.998102   -0.456303
     12          1           0       -1.115295    3.095845    0.216681
 ---------------------------------------------------------------------
                    Distance matrix (angstroms):
                    1          2          3          4          5
     1  C    0.000000
     2  O    1.429675   0.000000
     3  H    1.105805   2.092524   0.000000
     4  H    1.105962   2.094793   1.801600   0.000000
     5  H    1.098325   2.042150   1.802517   1.801391   0.000000
     6  C    2.361218   1.429571   2.645939   2.632619   3.291308
     7  H    3.291068   2.041692   3.636840   3.618894   4.076550
     8  H    2.632168   2.094605   3.026115   2.416702   3.618980
     9  H    2.645957   2.092178   2.447150   3.027016   3.636598
    10  O    3.761103   2.822646   4.681022   4.196312   3.574475
    11  H    2.855619   1.846759   3.745875   3.354422   2.824828
    12  H    4.177504   3.205439   4.967000   4.800150   3.903668
                    6          7          8          9         10
     6  C    0.000000
     7  H    1.098303   0.000000
     8  H    1.105948   1.801332   0.000000
     9  H    1.105787   1.802921   1.801769   0.000000
    10  O    3.749690   3.552877   4.186154   4.671133   0.000000
    11  H    2.849997   2.814236   3.349752   3.741062   0.975984
    12  H    4.170679   3.890446   4.794349   4.960523   0.964728
                   11         12
    11  H    0.000000
    12  H    1.529924   0.000000
 Stoichiometry    C2H8O2
 Framework group  C1[X(C2H8O2)]
 Deg. of freedom    30
 Full point group                 C1      NOp   1
 Largest Abelian subgroup         C1      NOp   1
 Largest concise Abelian subgroup C1      NOp   1
                         Standard orientation:                         
 ---------------------------------------------------------------------
 Center     Atomic      Atomic             Coordinates (Angstroms)
 Number     Number       Type             X           Y           Z
 ---------------------------------------------------------------------
      1          6           0       -1.119885   -1.177070    0.050424
      2          8           0       -0.348139   -0.002065   -0.209847
      3          1           0       -2.006627   -1.213911   -0.609225
      4          1           0       -1.452319   -1.202180    1.104942
      5          1           0       -0.470954   -2.039704   -0.152233
      6          6           0       -1.102814    1.184086    0.049356
      7          1           0       -0.440788    2.036734   -0.153085
      8          1           0       -1.435374    1.214461    1.103682
      9          1           0       -1.988403    1.233171   -0.611014
     10          8           0        2.452437   -0.004064    0.142428
     11          1           0        1.485381   -0.008491    0.010789
     12          1           0        2.810896   -0.013146   -0.753186
 ---------------------------------------------------------------------
 Rotational constants (GHZ):           9.5985145           3.2528935           2.5487838
 Standard basis: Aug-CC-pVDZ (5D, 7F)
 There are   172 symmetry adapted cartesian basis functions of A   symmetry.
 There are   164 symmetry adapted basis functions of A   symmetry.
   164 basis functions,   260 primitive gaussians,   172 cartesian basis functions
    18 alpha electrons       18 beta electrons
       nuclear repulsion energy       132.9494553331 Hartrees.
 NAtoms=   12 NActive=   12 NUniq=   12 SFac= 1.00D+00 NAtFMM=   60 NAOKFM=F Big=F
 Integral buffers will be    131072 words long.
 Raffenetti 1 integral format.
 Two-electron integral symmetry is turned on.
 One-electron integrals computed using PRISM.
 NBasis=   164 RedAO= T EigKep=  2.52D-04  NBF=   164
 NBsUse=   164 1.00D-06 EigRej= -1.00D+00 NBFU=   164
 Initial guess from the checkpoint file:  "h2o_meome.chk"
 B after Tr=    -0.000000    0.000000   -0.000000
         Rot=    0.999998   -0.000032   -0.000643   -0.001871 Ang=  -0.23 deg.
 ExpMin= 2.97D-02 ExpMax= 1.17D+04 ExpMxC= 4.01D+02 IAcc=3 IRadAn=         5 AccDes= 0.00D+00
 Harris functional with IExCor=  205 and IRadAn=       5 diagonalized for initial guess.
 HarFok:  IExCor=  205 AccDes= 0.00D+00 IRadAn=         5 IDoV= 1 UseB2=F ITyADJ=14
 ICtDFT=  3500011 ScaDFX=  1.000000  1.000000  1.000000  1.000000
 FoFCou: FMM=F IPFlag=           0 FMFlag=      100000 FMFlg1=           0
         NFxFlg=           0 DoJE=T BraDBF=F KetDBF=T FulRan=T
         wScrn=  0.000000 ICntrl=       500 IOpCl=  0 I1Cent=   200000004 NGrid=           0
         NMat0=    1 NMatS0=      1 NMatT0=    0 NMatD0=    1 NMtDS0=    0 NMtDT0=    0
 Petite list used in FoFCou.
 Keep R1 ints in memory in canonical form, NReq=97721319.
 Requested convergence on RMS density matrix=1.00D-08 within 128 cycles.
 Requested convergence on MAX density matrix=1.00D-06.
 Requested convergence on             energy=1.00D-06.
 No special actions if energy rises.
 SCF Done:  E(RHF) =  -230.131695990     A.U. after   10 cycles
            NFock= 10  Conv=0.34D-08     -V/T= 2.0022
 ExpMin= 2.97D-02 ExpMax= 1.17D+04 ExpMxC= 4.01D+02 IAcc=3 IRadAn=         5 AccDes= 0.00D+00
 HarFok:  IExCor=  205 AccDes= 0.00D+00 IRadAn=         5 IDoV=-2 UseB2=F ITyADJ=14
 ICtDFT= 12500011 ScaDFX=  1.000000  1.000000  1.000000  1.000000
 Range of M.O.s used for correlation:     5   164
 NBasis=   164 NAE=    18 NBE=    18 NFC=     4 NFV=     0
 NROrb=    160 NOA=    14 NOB=    14 NVA=   146 NVB=   146

 **** Warning!!: The largest alpha MO coefficient is  0.16572410D+02

 Fully direct method using O(ONN) memory.
 JobTyp=1 Pass  1:  I=   5 to  18 NPSUse= 28 ParTrn=T ParDer=T DoDerP=T.
 Spin components of T(2) and E(2):
     alpha-alpha T2 =       0.2685773039D-01 E2=     -0.8824746191D-01
     alpha-beta  T2 =       0.1637622428D+00 E2=     -0.5543323945D+00
     beta-beta   T2 =       0.2685773039D-01 E2=     -0.8824746191D-01
 ANorm=    0.1103393721D+01
 E2 =    -0.7308273184D+00 EUMP2 =    -0.23086252330875D+03
          IDoAtm=111111111111
          Differentiating once with respect to electric field.
                with respect to dipole field.
          Differentiating once with respect to nuclear coordinates.
 Keep R1 ints in memory in canonical form, NReq=97729135.
          There are     1 degrees of freedom in the 1st order CPHF.  IDoFFX=0 NUNeed=     1.
 LinEq1:  Iter=  0 NonCon=     1 RMS=3.94D-03 Max=5.84D-02 NDo=     1
 AX will form     1 AO Fock derivatives at one time.
 LinEq1:  Iter=  1 NonCon=     1 RMS=9.28D-04 Max=9.39D-03 NDo=     1
 LinEq1:  Iter=  2 NonCon=     1 RMS=2.93D-04 Max=3.36D-03 NDo=     1
 LinEq1:  Iter=  3 NonCon=     1 RMS=7.28D-05 Max=9.12D-04 NDo=     1
 LinEq1:  Iter=  4 NonCon=     1 RMS=2.58D-05 Max=2.87D-04 NDo=     1
 LinEq1:  Iter=  5 NonCon=     1 RMS=7.48D-06 Max=1.12D-04 NDo=     1
 LinEq1:  Iter=  6 NonCon=     1 RMS=2.27D-06 Max=1.87D-05 NDo=     1
 LinEq1:  Iter=  7 NonCon=     1 RMS=4.83D-07 Max=3.70D-06 NDo=     1
 LinEq1:  Iter=  8 NonCon=     1 RMS=1.01D-07 Max=8.85D-07 NDo=     1
 LinEq1:  Iter=  9 NonCon=     1 RMS=1.67D-08 Max=1.82D-07 NDo=     1
 LinEq1:  Iter= 10 NonCon=     1 RMS=2.94D-09 Max=2.73D-08 NDo=     1
 LinEq1:  Iter= 11 NonCon=     1 RMS=3.28D-10 Max=2.60D-09 NDo=     1
 LinEq1:  Iter= 12 NonCon=     0 RMS=4.95D-11 Max=4.40D-10 NDo=     1
 Linear equations converged to 1.000D-10 1.000D-09 after    12 iterations.
 End of Minotr F.D. properties file   721 does not exist.
 End of Minotr F.D. properties file   722 does not exist.
 End of Minotr F.D. properties file   788 does not exist.
 Calling FoFJK, ICntrl=  10002127 FMM=F ISym2X=0 I1Cent= 0 IOpClX= 0 NMat=1 NMatS=1 NMatT=0.
 ***** Axes restored to original set *****
 -------------------------------------------------------------------
 Center     Atomic                   Forces (Hartrees/Bohr)
 Number     Number              X              Y              Z
 -------------------------------------------------------------------
      1        6          -0.000024581   -0.000223529   -0.000377660
      2        8          -0.000400665   -0.001177494    0.000614310
      3        1           0.000085663    0.000632110   -0.000311114
      4        1           0.000353594    0.000280876    0.000587300
      5        1           0.000170275   -0.000487851   -0.000305291
      6        6          -0.000368498   -0.000043492   -0.000216900
      7        1          -0.000551522   -0.000213105    0.000069620
      8        1           0.000442581    0.000214690    0.000537808
      9        1           0.000173793    0.000584870   -0.000371601
     10        8          -0.000343542   -0.000323560   -0.000323204
     11        1           0.000361172    0.000657301   -0.000017386
     12        1           0.000101731    0.000099184    0.000114117
 -------------------------------------------------------------------
 Cartesian Forces:  Max     0.001177494 RMS     0.000409411

 GradGradGradGradGradGradGradGradGradGradGradGradGradGradGradGradGradGrad
 Berny optimization.
 Using GEDIIS/GDIIS optimizer.
 FormGI is forming the generalized inverse of G from B-inverse, IUseBI=4.
 Internal  Forces:  Max     0.000714335 RMS     0.000320069
 Search for a local minimum.
 Step number   3 out of a maximum of   53
 All quantities printed in internal units (Hartrees-Bohrs-Radians)
 Mixed Optimization -- En-DIIS/RFO-DIIS
 Swapping is turned off.
 Update second derivatives using D2CorX and points    1    2    3
 DE= -2.14D-04 DEPred=-1.65D-04 R= 1.30D+00
 TightC=F SS=  1.41D+00  RLast= 1.66D-01 DXNew= 8.4853D-01 4.9791D-01
 Trust test= 1.30D+00 RLast= 1.66D-01 DXMaxT set to 5.05D-01
 ITU=  1  1  0
     Eigenvalues ---    0.00230   0.00610   0.01335   0.01362   0.01365
     Eigenvalues ---    0.01684   0.05584   0.07671   0.08049   0.08054
     Eigenvalues ---    0.08080   0.13792   0.15590   0.16000   0.16000
     Eigenvalues ---    0.16000   0.16000   0.16024   0.17084   0.21186
     Eigenvalues ---    0.34329   0.34329   0.34329   0.34385   0.34444
     Eigenvalues ---    0.39575   0.41726   0.43667   0.51343   0.53790
 En-DIIS/RFO-DIIS/Sim-DIIS IScMMF=       -3 using points:     3    2
 RFO step:  Lambda=-8.35068354D-05.
 DidBck=F Rises=F RFO-DIIS coefs:    1.60808   -0.60808
 Iteration  1 RMS(Cart)=  0.02665342 RMS(Int)=  0.00079715
 Iteration  2 RMS(Cart)=  0.00111083 RMS(Int)=  0.00012793
 Iteration  3 RMS(Cart)=  0.00000135 RMS(Int)=  0.00012793
 Iteration  4 RMS(Cart)=  0.00000000 RMS(Int)=  0.00012793
 Variable       Old X    -DE/DX   Delta X   Delta X   Delta X     New X
                                 (Linear)    (Quad)   (Total)
    R1        2.70169  -0.00068   0.00159  -0.00292  -0.00133   2.70036
    R2        2.08967  -0.00070   0.00127  -0.00240  -0.00113   2.08854
    R3        2.08996  -0.00071   0.00110  -0.00229  -0.00119   2.08877
    R4        2.07553  -0.00060   0.00027  -0.00194  -0.00167   2.07387
    R5        2.70150  -0.00055   0.00142  -0.00238  -0.00096   2.70054
    R6        3.48987   0.00047   0.01821   0.00020   0.01840   3.50827
    R7        2.07549  -0.00059  -0.00002  -0.00168  -0.00170   2.07380
    R8        2.08994  -0.00071   0.00109  -0.00225  -0.00116   2.08878
    R9        2.08963  -0.00070   0.00125  -0.00238  -0.00114   2.08850
   R10        1.84434  -0.00026  -0.00240   0.00087  -0.00153   1.84281
   R11        1.82307   0.00017  -0.00122   0.00094  -0.00028   1.82279
    A1        1.93013   0.00005  -0.00089   0.00162   0.00072   1.93085
    A2        1.93317  -0.00003  -0.00203   0.00190  -0.00013   1.93304
    A3        1.86813   0.00000   0.00181  -0.00332  -0.00151   1.86662
    A4        1.90391   0.00011  -0.00453   0.00423  -0.00032   1.90360
    A5        1.91512  -0.00005   0.00328  -0.00218   0.00109   1.91620
    A6        1.91314  -0.00008   0.00264  -0.00249   0.00015   1.91329
    A7        1.94330   0.00014   0.00266  -0.00382  -0.00150   1.94180
    A8        2.10752  -0.00010  -0.00285  -0.00256  -0.00553   2.10199
    A9        2.10058  -0.00015  -0.00532  -0.00146  -0.00687   2.09370
   A10        1.86765   0.00006   0.00162  -0.00271  -0.00109   1.86656
   A11        1.93305  -0.00002  -0.00206   0.00206  -0.00001   1.93304
   A12        1.92979   0.00011  -0.00118   0.00232   0.00113   1.93092
   A13        1.91309  -0.00010   0.00273  -0.00265   0.00008   1.91317
   A14        1.91580  -0.00012   0.00354  -0.00299   0.00054   1.91635
   A15        1.90422   0.00007  -0.00437   0.00374  -0.00065   1.90357
   A16        1.81616   0.00013   0.00963  -0.00414   0.00548   1.82164
   A17        3.14893  -0.00008  -0.01391   0.00505  -0.00888   3.14005
   A18        3.16364   0.00043   0.09058  -0.00433   0.08639   3.25003
    D1        1.07409   0.00017   0.00216   0.00886   0.01110   1.08519
    D2       -2.59550  -0.00009  -0.00959  -0.00593  -0.01559  -2.61109
    D3       -1.03885   0.00002   0.00986   0.00117   0.01111  -1.02775
    D4        1.57474  -0.00024  -0.00189  -0.01362  -0.01559   1.55915
    D5       -3.12364   0.00014   0.00670   0.00513   0.01191  -3.11173
    D6       -0.51004  -0.00013  -0.00504  -0.00966  -0.01478  -0.52483
    D7        3.12254  -0.00012  -0.00690  -0.00480  -0.01176   3.11077
    D8        1.03817  -0.00002  -0.01003  -0.00111  -0.01119   1.02698
    D9       -1.07484  -0.00017  -0.00232  -0.00874  -0.01113  -1.08597
   D10        0.50655   0.00013   0.00398   0.01029   0.01434   0.52089
   D11       -1.57781   0.00023   0.00086   0.01398   0.01491  -1.56290
   D12        2.59236   0.00008   0.00857   0.00635   0.01497   2.60733
   D13        1.85419   0.00016   0.01382   0.01143   0.02476   1.87895
   D14       -1.86844  -0.00016  -0.02249  -0.00406  -0.02607  -1.89451
         Item               Value     Threshold  Converged?
 Maximum Force            0.000714     0.000450     NO 
 RMS     Force            0.000320     0.000300     NO 
 Maximum Displacement     0.087102     0.001800     NO 
 RMS     Displacement     0.026648     0.001200     NO 
 Predicted change in Energy=-4.188693D-05
 GradGradGradGradGradGradGradGradGradGradGradGradGradGradGradGradGradGrad

                          Input orientation:                          
 ---------------------------------------------------------------------
 Center     Atomic      Atomic             Coordinates (Angstroms)
 Number     Number       Type             X           Y           Z
 ---------------------------------------------------------------------
      1          6           0       -3.973179    0.049887    0.043255
      2          8           0       -2.582528    0.268380   -0.202325
      3          1           0       -4.122380   -0.856600    0.657667
      4          1           0       -4.525774   -0.063196   -0.907328
      5          1           0       -4.344873    0.930057    0.583186
      6          6           0       -2.010654   -0.813114   -0.940941
      7          1           0       -0.957590   -0.559057   -1.116467
      8          1           0       -2.527534   -0.942632   -1.909352
      9          1           0       -2.077816   -1.755210   -0.367023
     10          8           0       -1.610563    2.894897   -0.607271
     11          1           0       -1.925568    1.990815   -0.421878
     12          1           0       -1.113932    3.141937    0.181870
 ---------------------------------------------------------------------
                    Distance matrix (angstroms):
                    1          2          3          4          5
     1  C    0.000000
     2  O    1.428971   0.000000
     3  H    1.105207   2.091963   0.000000
     4  H    1.105332   2.093604   1.800397   0.000000
     5  H    1.097442   2.039780   1.801997   1.800252   0.000000
     6  C    2.359007   1.429063   2.648929   2.624754   3.287884
     7  H    3.287787   2.039787   3.640327   3.608539   4.071850
     8  H    2.624435   2.093685   3.023330   2.402170   3.608660
     9  H    2.649359   2.092074   2.457180   3.024457   3.640481
    10  O    3.754892   2.829715   4.688605   4.163989   3.571306
    11  H    2.859416   1.856497   3.754886   3.348984   2.826375
    12  H    4.213702   3.249879   5.026474   4.806236   3.936045
                    6          7          8          9         10
     6  C    0.000000
     7  H    1.097406   0.000000
     8  H    1.105332   1.800145   0.000000
     9  H    1.105186   1.802041   1.800363   0.000000
    10  O    3.744430   3.551823   4.154862   4.679694   0.000000
    11  H    2.852838   2.814477   3.343659   3.749519   0.975173
    12  H    4.207998   3.925236   4.801582   5.021196   0.964580
                   11         12
    11  H    0.000000
    12  H    1.532432   0.000000
 Stoichiometry    C2H8O2
 Framework group  C1[X(C2H8O2)]
 Deg. of freedom    30
 Full point group                 C1      NOp   1
 Largest Abelian subgroup         C1      NOp   1
 Largest concise Abelian subgroup C1      NOp   1
                         Standard orientation:                         
 ---------------------------------------------------------------------
 Center     Atomic      Atomic             Coordinates (Angstroms)
 Number     Number       Type             X           Y           Z
 ---------------------------------------------------------------------
      1          6           0       -1.117519   -1.176337    0.056278
      2          8           0       -0.355847   -0.002011   -0.231423
      3          1           0       -2.021233   -1.219529   -0.578480
      4          1           0       -1.421330   -1.195598    1.118862
      5          1           0       -0.471452   -2.037188   -0.157997
      6          6           0       -1.101995    1.182619    0.055170
      7          1           0       -0.444262    2.034571   -0.158987
      8          1           0       -1.406194    1.206524    1.117550
      9          1           0       -2.004647    1.237595   -0.580153
     10          8           0        2.448370   -0.003600    0.147593
     11          1           0        1.489937   -0.006043   -0.032302
     12          1           0        2.856077   -0.013142   -0.726535
 ---------------------------------------------------------------------
 Rotational constants (GHZ):           9.5896880           3.2516018           2.5509847
 Standard basis: Aug-CC-pVDZ (5D, 7F)
 There are   172 symmetry adapted cartesian basis functions of A   symmetry.
 There are   164 symmetry adapted basis functions of A   symmetry.
   164 basis functions,   260 primitive gaussians,   172 cartesian basis functions
    18 alpha electrons       18 beta electrons
       nuclear repulsion energy       132.9556616118 Hartrees.
 NAtoms=   12 NActive=   12 NUniq=   12 SFac= 1.00D+00 NAtFMM=   60 NAOKFM=F Big=F
 Integral buffers will be    131072 words long.
 Raffenetti 1 integral format.
 Two-electron integral symmetry is turned on.
 One-electron integrals computed using PRISM.
 NBasis=   164 RedAO= T EigKep=  2.53D-04  NBF=   164
 NBsUse=   164 1.00D-06 EigRej= -1.00D+00 NBFU=   164
 Initial guess from the checkpoint file:  "h2o_meome.chk"
 B after Tr=    -0.000000   -0.000000    0.000000
         Rot=    1.000000   -0.000019   -0.000684   -0.000183 Ang=  -0.08 deg.
 ExpMin= 2.97D-02 ExpMax= 1.17D+04 ExpMxC= 4.01D+02 IAcc=3 IRadAn=         5 AccDes= 0.00D+00
 Harris functional with IExCor=  205 and IRadAn=       5 diagonalized for initial guess.
 HarFok:  IExCor=  205 AccDes= 0.00D+00 IRadAn=         5 IDoV= 1 UseB2=F ITyADJ=14
 ICtDFT=  3500011 ScaDFX=  1.000000  1.000000  1.000000  1.000000
 FoFCou: FMM=F IPFlag=           0 FMFlag=      100000 FMFlg1=           0
         NFxFlg=           0 DoJE=T BraDBF=F KetDBF=T FulRan=T
         wScrn=  0.000000 ICntrl=       500 IOpCl=  0 I1Cent=   200000004 NGrid=           0
         NMat0=    1 NMatS0=      1 NMatT0=    0 NMatD0=    1 NMtDS0=    0 NMtDT0=    0
 Petite list used in FoFCou.
 Keep R1 ints in memory in canonical form, NReq=97721319.
 Requested convergence on RMS density matrix=1.00D-08 within 128 cycles.
 Requested convergence on MAX density matrix=1.00D-06.
 Requested convergence on             energy=1.00D-06.
 No special actions if energy rises.
 SCF Done:  E(RHF) =  -230.131916779     A.U. after   10 cycles
            NFock= 10  Conv=0.37D-08     -V/T= 2.0021
 ExpMin= 2.97D-02 ExpMax= 1.17D+04 ExpMxC= 4.01D+02 IAcc=3 IRadAn=         5 AccDes= 0.00D+00
 HarFok:  IExCor=  205 AccDes= 0.00D+00 IRadAn=         5 IDoV=-2 UseB2=F ITyADJ=14
 ICtDFT= 12500011 ScaDFX=  1.000000  1.000000  1.000000  1.000000
 Range of M.O.s used for correlation:     5   164
 NBasis=   164 NAE=    18 NBE=    18 NFC=     4 NFV=     0
 NROrb=    160 NOA=    14 NOB=    14 NVA=   146 NVB=   146

 **** Warning!!: The largest alpha MO coefficient is  0.16509192D+02

 Fully direct method using O(ONN) memory.
 JobTyp=1 Pass  1:  I=   5 to  18 NPSUse= 28 ParTrn=T ParDer=T DoDerP=T.
 Spin components of T(2) and E(2):
     alpha-alpha T2 =       0.2684290911D-01 E2=     -0.8822715219D-01
     alpha-beta  T2 =       0.1636596030D+00 E2=     -0.5542070611D+00
     beta-beta   T2 =       0.2684290911D-01 E2=     -0.8822715219D-01
 ANorm=    0.1103333776D+01
 E2 =    -0.7306613654D+00 EUMP2 =    -0.23086257814481D+03
          IDoAtm=111111111111
          Differentiating once with respect to electric field.
                with respect to dipole field.
          Differentiating once with respect to nuclear coordinates.
 Keep R1 ints in memory in canonical form, NReq=97729223.
          There are     1 degrees of freedom in the 1st order CPHF.  IDoFFX=0 NUNeed=     1.
 LinEq1:  Iter=  0 NonCon=     1 RMS=3.94D-03 Max=5.80D-02 NDo=     1
 AX will form     1 AO Fock derivatives at one time.
 LinEq1:  Iter=  1 NonCon=     1 RMS=9.27D-04 Max=9.28D-03 NDo=     1
 LinEq1:  Iter=  2 NonCon=     1 RMS=2.92D-04 Max=3.33D-03 NDo=     1
 LinEq1:  Iter=  3 NonCon=     1 RMS=7.25D-05 Max=9.04D-04 NDo=     1
 LinEq1:  Iter=  4 NonCon=     1 RMS=2.57D-05 Max=2.76D-04 NDo=     1
 LinEq1:  Iter=  5 NonCon=     1 RMS=7.42D-06 Max=1.11D-04 NDo=     1
 LinEq1:  Iter=  6 NonCon=     1 RMS=2.26D-06 Max=1.93D-05 NDo=     1
 LinEq1:  Iter=  7 NonCon=     1 RMS=4.82D-07 Max=3.83D-06 NDo=     1
 LinEq1:  Iter=  8 NonCon=     1 RMS=1.00D-07 Max=8.76D-07 NDo=     1
 LinEq1:  Iter=  9 NonCon=     1 RMS=1.66D-08 Max=1.74D-07 NDo=     1
 LinEq1:  Iter= 10 NonCon=     1 RMS=2.93D-09 Max=2.63D-08 NDo=     1
 LinEq1:  Iter= 11 NonCon=     1 RMS=3.25D-10 Max=2.57D-09 NDo=     1
 LinEq1:  Iter= 12 NonCon=     0 RMS=4.85D-11 Max=4.29D-10 NDo=     1
 Linear equations converged to 1.000D-10 1.000D-09 after    12 iterations.
 End of Minotr F.D. properties file   721 does not exist.
 End of Minotr F.D. properties file   722 does not exist.
 End of Minotr F.D. properties file   788 does not exist.
 Calling FoFJK, ICntrl=  10002127 FMM=F ISym2X=0 I1Cent= 0 IOpClX= 0 NMat=1 NMatS=1 NMatT=0.
 ***** Axes restored to original set *****
 -------------------------------------------------------------------
 Center     Atomic                   Forces (Hartrees/Bohr)
 Number     Number              X              Y              Z
 -------------------------------------------------------------------
      1        6           0.000094754   -0.000076718   -0.000323966
      2        8          -0.000100466   -0.000967032    0.000588031
      3        1           0.000051260    0.000324901   -0.000049942
      4        1           0.000125653    0.000296352    0.000239123
      5        1          -0.000243769   -0.000130470    0.000060614
      6        6          -0.000326282    0.000118647   -0.000130675
      7        1           0.000078536   -0.000251942   -0.000082879
      8        1           0.000289814    0.000227962    0.000157037
      9        1           0.000139060    0.000283732   -0.000080356
     10        8          -0.000092914    0.000247154   -0.000414058
     11        1          -0.000108359   -0.000002044   -0.000208584
     12        1           0.000092711   -0.000070543    0.000245655
 -------------------------------------------------------------------
 Cartesian Forces:  Max     0.000967032 RMS     0.000269455

 GradGradGradGradGradGradGradGradGradGradGradGradGradGradGradGradGradGrad
 Berny optimization.
 Using GEDIIS/GDIIS optimizer.
 FormGI is forming the generalized inverse of G from B-inverse, IUseBI=4.
 Internal  Forces:  Max     0.000472724 RMS     0.000198773
 Search for a local minimum.
 Step number   4 out of a maximum of   53
 All quantities printed in internal units (Hartrees-Bohrs-Radians)
 Mixed Optimization -- En-DIIS/RFO-DIIS
 Swapping is turned off.
 Update second derivatives using D2CorX and points    1    2    3    4
 DE= -5.48D-05 DEPred=-4.19D-05 R= 1.31D+00
 TightC=F SS=  1.41D+00  RLast= 1.07D-01 DXNew= 8.4853D-01 3.2086D-01
 Trust test= 1.31D+00 RLast= 1.07D-01 DXMaxT set to 5.05D-01
 ITU=  1  1  1  0
     Eigenvalues ---    0.00230   0.00403   0.01335   0.01362   0.01408
     Eigenvalues ---    0.01831   0.05520   0.07668   0.08047   0.08061
     Eigenvalues ---    0.08174   0.13622   0.15882   0.16000   0.16000
     Eigenvalues ---    0.16000   0.16006   0.16156   0.17455   0.21516
     Eigenvalues ---    0.34329   0.34329   0.34330   0.34442   0.34724
     Eigenvalues ---    0.36683   0.41728   0.42358   0.51778   0.53695
 En-DIIS/RFO-DIIS/Sim-DIIS IScMMF=       -3 using points:     4    3    2
 RFO step:  Lambda=-3.63548237D-05.
 DidBck=F Rises=F RFO-DIIS coefs:    1.69258   -0.70360    0.01102
 Iteration  1 RMS(Cart)=  0.01887185 RMS(Int)=  0.00032046
 Iteration  2 RMS(Cart)=  0.00042654 RMS(Int)=  0.00011848
 Iteration  3 RMS(Cart)=  0.00000014 RMS(Int)=  0.00011848
 Variable       Old X    -DE/DX   Delta X   Delta X   Delta X     New X
                                 (Linear)    (Quad)   (Total)
    R1        2.70036  -0.00010  -0.00095   0.00059  -0.00036   2.70000
    R2        2.08854  -0.00030  -0.00081  -0.00002  -0.00083   2.08771
    R3        2.08877  -0.00030  -0.00084   0.00000  -0.00084   2.08793
    R4        2.07387   0.00001  -0.00116   0.00098  -0.00018   2.07368
    R5        2.70054  -0.00014  -0.00069   0.00029  -0.00040   2.70014
    R6        3.50827   0.00017   0.01242   0.00076   0.01318   3.52145
    R7        2.07380   0.00003  -0.00117   0.00104  -0.00013   2.07367
    R8        2.08878  -0.00030  -0.00083  -0.00001  -0.00084   2.08794
    R9        2.08850  -0.00029  -0.00081   0.00001  -0.00080   2.08770
   R10        1.84281   0.00020  -0.00102   0.00068  -0.00033   1.84248
   R11        1.82279   0.00023  -0.00017   0.00036   0.00019   1.82298
    A1        1.93085  -0.00003   0.00052  -0.00033   0.00018   1.93104
    A2        1.93304  -0.00007  -0.00005  -0.00041  -0.00046   1.93258
    A3        1.86662   0.00037  -0.00108   0.00295   0.00187   1.86849
    A4        1.90360   0.00014  -0.00014   0.00094   0.00080   1.90440
    A5        1.91620  -0.00021   0.00070  -0.00168  -0.00098   1.91522
    A6        1.91329  -0.00021   0.00006  -0.00150  -0.00144   1.91186
    A7        1.94180   0.00047  -0.00109   0.00173   0.00026   1.94206
    A8        2.10199  -0.00028  -0.00378  -0.00370  -0.00768   2.09432
    A9        2.09370  -0.00029  -0.00466  -0.00373  -0.00857   2.08514
   A10        1.86656   0.00036  -0.00079   0.00268   0.00189   1.86846
   A11        1.93304  -0.00008   0.00003  -0.00054  -0.00051   1.93253
   A12        1.93092  -0.00005   0.00080  -0.00069   0.00011   1.93103
   A13        1.91317  -0.00019   0.00000  -0.00130  -0.00129   1.91188
   A14        1.91635  -0.00020   0.00031  -0.00138  -0.00107   1.91528
   A15        1.90357   0.00015  -0.00037   0.00120   0.00083   1.90440
   A16        1.82164  -0.00026   0.00362  -0.00219   0.00144   1.82308
   A17        3.14005   0.00000  -0.00590   0.00365  -0.00227   3.13778
   A18        3.25003   0.00000   0.05819  -0.01283   0.04546   3.29550
    D1        1.08519   0.00012   0.00765   0.00070   0.00841   1.09359
    D2       -2.61109  -0.00013  -0.01063  -0.01015  -0.02083  -2.63192
    D3       -1.02775   0.00001   0.00751   0.00002   0.00758  -1.02016
    D4        1.55915  -0.00024  -0.01076  -0.01083  -0.02165   1.53751
    D5       -3.11173   0.00007   0.00813   0.00027   0.00845  -3.10328
    D6       -0.52483  -0.00018  -0.01015  -0.01058  -0.02078  -0.54561
    D7        3.11077  -0.00006  -0.00802  -0.00021  -0.00827   3.10250
    D8        1.02698  -0.00001  -0.00757   0.00004  -0.00757   1.01941
    D9       -1.08597  -0.00012  -0.00767  -0.00064  -0.00835  -1.09432
   D10        0.52089   0.00018   0.00986   0.01059   0.02049   0.54138
   D11       -1.56290   0.00024   0.01031   0.01083   0.02119  -1.54171
   D12        2.60733   0.00013   0.01021   0.01015   0.02041   2.62774
   D13        1.87895   0.00001   0.01690   0.00458   0.02106   1.90001
   D14       -1.89451  -0.00001  -0.01764  -0.00164  -0.01888  -1.91338
         Item               Value     Threshold  Converged?
 Maximum Force            0.000473     0.000450     NO 
 RMS     Force            0.000199     0.000300     YES
 Maximum Displacement     0.049754     0.001800     NO 
 RMS     Displacement     0.018924     0.001200     NO 
 Predicted change in Energy=-1.816298D-05
 GradGradGradGradGradGradGradGradGradGradGradGradGradGradGradGradGradGrad

                          Input orientation:                          
 ---------------------------------------------------------------------
 Center     Atomic      Atomic             Coordinates (Angstroms)
 Number     Number       Type             X           Y           Z
 ---------------------------------------------------------------------
      1          6           0       -3.972954    0.047486    0.046473
      2          8           0       -2.578105    0.256890   -0.181464
      3          1           0       -4.136694   -0.865192    0.647074
      4          1           0       -4.515782   -0.047389   -0.911186
      5          1           0       -4.344619    0.922910    0.593890
      6          6           0       -2.009870   -0.814143   -0.937515
      7          1           0       -0.954649   -0.564657   -1.106079
      8          1           0       -2.523902   -0.922355   -1.909543
      9          1           0       -2.084001   -1.765720   -0.381176
     10          8           0       -1.617936    2.887674   -0.619118
     11          1           0       -1.919701    1.985971   -0.403504
     12          1           0       -1.114177    3.164690    0.155541
 ---------------------------------------------------------------------
                    Distance matrix (angstroms):
                    1          2          3          4          5
     1  C    0.000000
     2  O    1.428779   0.000000
     3  H    1.104769   2.091589   0.000000
     4  H    1.104886   2.092766   1.800189   0.000000
     5  H    1.097346   2.040914   1.800937   1.798897   0.000000
     6  C    2.358884   1.428851   2.652717   2.620725   3.288405
     7  H    3.288352   2.040946   3.645446   3.603778   4.073653
     8  H    2.620370   2.092800   3.023351   2.393714   3.603774
     9  H    2.653063   2.091644   2.466129   3.024422   3.645529
    10  O    3.749104   2.834517   4.693761   4.134901   3.573021
    11  H    2.859379   1.863469   3.761370   3.336454   2.829332
    12  H    4.231012   3.272913   5.061341   4.798570   3.956448
                    6          7          8          9         10
     6  C    0.000000
[...]
 .00089867,-0.00087776,0.03035830,0.09597111,0.00012132,-0.00021045,0.0
 0007077,0.00064824,-0.00006744,0.00045494,-0.00004047,-0.00010805,-0.0
 0008957,0.00003005,0.00000428,0.00000642,0.00012063,-0.00005750,-0.000
 04490,0.00384517,0.01186849,0.01645632,-0.00003482,-0.00005497,-0.0000
 0517,-0.00041359,0.00154659,0.00107261,-0.00424605,-0.01287653,-0.0179
 0766,-0.00008930,0.00006117,0.00003282,0.00019154,-0.00009204,-0.00019
 753,-0.00003484,0.00005382,-0.00001133,-0.00001854,-0.00002552,-0.0000
 1960,-0.00011347,-0.00011126,0.00007446,0.00004944,0.00009253,0.000147
 93,-0.00020118,0.00017895,0.00001320,0.00005885,0.00004535,-0.00003598
 ,0.00000474,-0.00003776,0.00005779,-0.00000924,0.00011197,0.00017277,0
 .00005739,-0.00008011,0.00033598,-0.00019283,0.00003268,0.00003265,0.0
 0009889,0.00000553,0.00003144,0.00006202,0.00001314,-0.00011029,-0.000
 17648,0.00011373,0.00014882,-0.00000226,-0.00009540,-0.00018070,-0.000
 08623,0.00003001,-0.00002164,0.00003709,0.00009945,0.00004073,0.000037
 42,-0.00001590,-0.00028307,0.00005928,-0.00003112,0.00011620,-0.000199
 81,-0.00019549,0.00011179,-0.00003362,-0.00005533,-0.00003170,-0.00003
 577,0.00005061,-0.00006188,0.00018476,0.00003671,-0.00005295,0.0000641
 1,-0.00008175,0.00002369,0.00003076,-0.00001204,0.00008294,-0.00004168
 ,-0.00000031,-0.00007843,-0.00002580,-0.00002176,-0.00007655,0.0000754
 3,0.00024271,-0.00011082,-0.00011130,0.00014525,0.00015021,0.00000338,
 -0.00007131,0.00025017,0.00002737,-0.00011225,-0.00005394,0.00002327,-
 0.00002223,0.00004368,0.00036246,0.00002733,-0.00032907,-0.00011699,-0
 .00016135,-0.00003902,0.00031105,-0.00023674,-0.00007060,-0.00011144,-
 0.00003891,-0.00001473,0.00005817,0.00008446,-0.00008687,-0.00005555,-
 0.00016718,-0.00006152,-0.00036213,-0.00016936,-0.00007371,0.00007703,
 0.00006086,-0.00047139,0.00054926,-0.00006380,-0.00004921,-0.00014522,
 -0.00004919,-0.00006984,-0.00016057,-0.00003839,0.00001021,0.00016019,
 0.00027227,-0.00014858,-0.00007201,-0.00017627,0.00019893,0.00012341,-
 0.00009119,-0.00002240,-0.00008771,-0.00019770,-0.00008974,-0.00008479
 ,-0.00016807,-0.00031275,-0.00003634,0.00060572,0.00114206,-0.00003409
 ,-0.00009351,-0.00006463,0.00011915,0.00021080,-0.00005267,0.00003231,
 0.00014202,0.00004678,0.00005903,-0.00006884,0.00006433,-0.00017694,0.
 00005833,-0.00000994,0.00007785,-0.00000923,-0.00002492,-0.00023757,0.
 00023124,-0.00011131,0.00004431,-0.00001835,0.00014434,0.00002059,0.00
 004724,0.00006590,-0.00007234,-0.00006030,-0.00003694,0.00016529,-0.00
 046069,0.00002245,0.00000552,-0.00000009,0.00007786,-0.00003643,0.0000
 3777,0.00002322,0.00000710,-0.00000863,-0.00000462,-0.00000377,0.00003
 511,-0.00002184,0.00006379,0.00002874,-0.00004563,-0.00000733,-0.00001
 573,-0.00008168,0.00001395,-0.00006275,0.00001958,-0.00000199,-0.00001
 368,0.00001036,-0.00000681,-0.00000672,-0.00000140,0.00021757,-0.00004
 794,-0.00001615,-0.00002827,0.00001513,0.00000241,-0.00022333,-0.00006
 223,0.00002094,0.00000550,0.00000740,-0.00000165,-0.00004894,0.0000010
 4,-0.00002455,-0.00000355,-0.00000971,-0.00000597,0.00001458,0.0000495
 4,0.00001059,-0.00001985,0.00007448,-0.00002344,0.00001116,-0.00005822
 ,0.00011312,0.00001737,0.00001535,-0.00000208,-0.00000987,-0.00002240,
 -0.00001590,0.00000296,0.00001875,0.00014607,0.00010412,-0.00005280,-0
 .00011360,0.00002130,0.00003881,-0.00010354,-0.00003815,-0.00001433,-0
 .00003683,0.00004898,0.00001476,0.00001569,0.00000442,0.00000552,0.000
 00086,0.00000695,0.00001223,-0.00001479,-0.00005069,-0.00004832,0.0000
 5202,0.00001770,-0.00002295,0.00002034,-0.00000617,-0.00001743,0.00001
 448,-0.00000180,0.00003594,-0.00002731,-0.00000069,0.00000934,-0.00000
 313,-0.00006485,-0.00001742,0.00011466,0.00004640,0.00013744,-0.000043
 38,0.00003789,-0.00009479,-0.00009262,0.01515775,0.00287709,0.00567623
 ,0.00148588,-0.00154056,-0.00036213,-0.00296223,0.00496719,-0.00122211
 ,0.01486652,0.00509260,-0.00846252,0.00119413,-0.01387178,-0.00459748,
 -0.00034521,0.00165114,0.00379209,-0.00592885,-0.00269541,0.01438038,-
 0.00179434,0.00012774,-0.00027563,0.00268319,-0.00374936,0.00021828,-0
 .00026248,-0.00243310,-0.00286615,0.00036886,0.00223124,-0.00089727,0.
 00032815,-0.00041435,0.00287417,-0.00018712,0.00031966,-0.00000543,-0.
 00011432,-0.00017145,-0.00128192,-0.00015764,-0.00020361,0.00030492,-0
 .00103947,0.00001904,0.00008515,-0.00017745,-0.00094031,-0.00019058,-0
 .00005059,0.00003409,-0.00006451,0.00031990,0.00151788,-0.00043538,0.0
 0104609,-0.00124959,-0.00064933,0.00034219,0.00013709,0.00029145,-0.00
 036264,-0.00078312,0.00061585,-0.00235457,0.00094690,-0.00271549,0.001
 54404,-0.00122049,0.00004303,0.00014076,-0.00030916,0.00061351,-0.0001
 4961,-0.00061674,0.00197011,-0.00099347,-0.00037728,-0.00024765,-0.000
 86308,0.00014399,0.00031218,0.00004494,0.00003188,0.00003793,0.0001787
 8,0.00000626,0.00003155,0.00105709,0.00096695,-0.00056785,-0.00079590,
 -0.00073938,-0.00003740,0.00022627,0.00006526,0.00027794,0.00023102,-0
 .00000217,0.00007533,0.00001959,-0.00026431,0.00040008,0.00102302,-0.0
 0075451,-0.00109239,-0.00046807,0.00074465,0.00021499,-0.00020865,0.00
 023362,0.00027431,-0.00000952,-0.00008950,0.00026417,0.00005701,0.0004
 8534,0.00041657,0.00198640,-0.00117672,-0.00004942,-0.00259345,-0.0037
 2613,0.00669644,-0.00060017,-0.00020715,-0.00006510,-0.00021061,-0.000
 03523,-0.00030854,0.00012057,-0.00004552,0.00008991,0.00085280,0.00195
 574,0.00234694,-0.00045103,-0.00305102,-0.00109321,0.00248628,0.000772
 59,-0.00066060,-0.00025552,-0.00011201,-0.00022900,0.00042689,-0.00037
 151,-0.00021689,-0.00014039,-0.00036121,0.01137211,-0.00081441,0.00144
 173,0.00072799,0.00708848,0.00185738,-0.00396802,0.00114830,0.00019655
 ,-0.00002796,0.00062675,-0.00008307,0.00007970,-0.00002907,-0.00022240
 ,-0.00042100,-0.00372796,0.00549171,0.00840979,-0.00033462,0.00005662,
 -0.00025249,0.00054957,-0.00000160,-0.00033222,0.00003874,0.00002718,0
 .00001352,-0.00000088,-0.00002131,0.00003950,0.00009313,-0.00004955,-0
 .00004883,-0.00187500,0.00086311,0.00063880,0.00104142,-0.00025296,-0.
 00022452,0.00007913,0.00046529,-0.00077707,-0.00039455,-0.00009002,0.0
 0002715,0.00001524,0.00000936,0.00002245,-0.00001798,0.00002324,0.0000
 5596,0.00001212,-0.00045341,-0.00035785,-0.00027764,-0.00000158,0.0002
 0948,-0.00038771,-0.00004076,0.00004228,0.00084422,-0.00005935,-0.0004
 5306,-0.00002281,-0.00000494,-0.00001864,0.00000458,-0.00001992,-0.000
 07814,0.00000160,0.00002592,0.00004369,-0.00068769,-0.00043088,-0.0004
 7711,-0.00020363,0.00048978,0.00070539,0.00001610,0.00012313,-0.000328
 68,-0.00045853,-0.00051076,0.00073711,0.00000760,-0.00003486,0.0000174
 8,-0.00018399,0.00010776,0.00028306,-0.00005516,0.00002763,-0.00003513
 ,-0.00052832,0.00045843,-0.00113354,0.00013934,-0.00000650,0.00002524,
 0.00113606,0.00000561,-0.00039396,0.00026628,0.00023834,-0.00144128,-0
 .00076148,-0.00009999,0.00006163,-0.00000429,0.00013639,0.00012943,-0.
 00021137,0.00003612,0.00000060,-0.00001839,0.00027683,-0.00018833,0.00
 206439,-0.00010461,0.00014436,-0.00004471,-0.00054602,0.00025299,0.000
 64235,-0.00016220,0.00002329,-0.00139995,-0.00008078,0.00111739,-0.000
 17548,-0.00010204,0.00001051,-0.00021628,0.00002307,-0.00011090,-0.000
 05080,0.00002498,0.00000105,0.00013017,-0.00051288,-0.00346127,0.00005
 518,0.00000736,0.00022092,0.00011244,-0.00100481,0.00152591,-0.0007975
 6,-0.00050718,0.00008489,-0.00014456,0.00096419,-0.00057379,-0.0002703
 1,0.00051795,0.00020818,0.00005848,0.00004252,-0.00002455,0.00002657,0
 .00005409,-0.00001668,-0.00043208,-0.00185251,0.00008940,0.00043443,0.
 00010260,0.00019360,0.00005874,-0.00013474,0.00016320,0.00134789,0.000
 82262,-0.00050457,0.00020213,-0.00252438,-0.00032539,0.00365755,-0.000
 36059,0.00010487,-0.00008536,-0.00012606,0.00003201,-0.00013554,-0.000
 05239,0.00000231,0.00003407,-0.00013213,-0.00330585,-0.00122906,0.0000
 4048,0.00016845,-0.00005335,0.00001711,0.00039558,-0.00030434,0.001122
 73,0.00124043,0.00099507,-0.00004377,0.00002510,-0.00245998,-0.0008659
 3,0.00098257,-0.00011641,-0.00037941,-0.00003226,-0.00012829,-0.000022
 62,-0.00000763,-0.00006394,-0.00001955,0.00002043,0.00078321,0.0005985
 7,-0.00100814,0.00003214,0.00011241,-0.00002399,0.00029682,-0.00039532
 ,0.00038655,-0.00065279,-0.00111665,0.00041108,-0.00003469,0.00053932,
 -0.00036241,0.00047057,-0.00359339,0.00024397,0.00013528,-0.00007524,0
 .00003184,-0.00008665,0.00003480,0.00008672,0.00009178,0.00010987,-0.0
 0007545,-0.00052976,-0.00037481,0.00033159,0.00003073,-0.00016832,0.00
 003067,-0.00015169,0.00010255,0.00000824,0.00013326,-0.00000466,-0.000
 22668,-1.12915767,0.00260643,-0.00226061,0.00004701,-0.00413920,-0.008
 41581,0.00086331,-0.00101954,0.00008861,-0.00005369,0.00011175,0.00015
 599,0.00000892,-0.00029767,-0.00002741,0.00010658,-0.00208942,0.000312
 11,0.00218708,0.00015150,-0.00008438,-0.00014713,0.00017846,0.00010403
 ,0.00001879,0.00032039,-0.00053537,-0.00060599,0.60772678,3.76839956,-
 0.00204823,0.00129426,-0.00029034,0.00073207,0.00192743,0.00167450,0.0
 0067808,0.00009581,-0.00001522,0.00003504,-0.00015596,-0.00014699,0.00
 017826,-0.00007117,-0.00000432,0.00170227,0.00021008,-0.00237670,-0.00
 015416,0.00021581,0.00012105,-0.00007821,-0.00012642,-0.00003243,-0.00
 031842,0.00050604,0.00060432,-0.19055960,-3.28471891,1.23982073,-0.009
 10935,-0.00672876,0.00110778,-0.01162391,0.01983132,-0.00082800,0.0000
 0768,0.00033670,0.00027664,0.00125203,0.00028432,0.00079534,0.00027784
 ,-0.00012069,-0.00029223,0.00369710,0.00184109,-0.00394761,-0.00007976
 ,0.00035551,0.00021724,0.00002458,-0.00003433,0.00058821,-0.00041367,0
 .00119596,0.00151805,1.19061097,-0.44613813,0.28283290,-1.17919179,-0.
 01324608,0.00775244,-0.00041108,0.01797632,0.02752581,-0.00591280,0.00
 467172,0.00068076,0.00059460,0.00155413,-0.00011241,0.00112733,0.00113
 000,0.00001482,-0.00055454,0.00804842,-0.00789645,-0.01157530,-0.00095
 083,0.00078681,0.00033064,0.00019850,0.00086470,0.00216624,-0.00062720
 ,0.00272204,0.00277486,-0.47186514,-3.62243992,3.38238652,0.47317520,3
 .61706756,0.00225996,-0.00367710,0.00011263,0.00080119,-0.00219535,-0.
 01638798,-0.00132415,-0.00019167,0.00013732,-0.00013179,-0.00001356,0.
 00004286,-0.00026975,0.00013233,0.00030047,-0.00480819,-0.00764356,0.0
 0296456,0.00024462,-0.00024767,-0.00011816,0.00018508,0.00028390,0.000
 29140,0.00088829,-0.00150845,-0.00147455,0.30576597,3.43470539,-1.1937
 5549,-0.28451380,-3.37443297,1.18371166,-0.00009450,0.00007981,-0.0000
 2530,0.00025337,0.00036125,-0.00000934,0.00006046,-0.00001433,0.000003
 11,-0.00005956,-0.00004138,-0.00008371,0.00002100,-0.00000217,-0.00001
 538,0.00011252,0.00023210,-0.00027073,-0.00003709,0.00001679,-0.000015
 30,-0.00000471,0.00012387,0.00014273,-0.00000120,0.00000131,0.00002278
 ,-0.06151214,-0.15741138,-0.09300000,0.00454829,-0.02006501,-0.0190974
 3,0.05671355,0.00008721,-0.00006004,-0.00000506,-0.00030302,-0.0008290
 7,0.00020936,-0.00004056,0.00001745,-0.00002396,0.00009891,0.00010361,
 -0.00001836,-0.00000831,0.00002249,-0.00005904,-0.00009831,-0.00008297
 ,0.00014864,-0.00000942,0.00002913,-0.00004530,-0.00001287,0.00007025,
 -0.00007340,-0.00000284,0.00000549,-0.00003659,-0.13243177,-0.13529680
 ,-0.10156349,-0.04399817,-0.02696616,-0.04521130,0.17671916,0.16298661
 ,-0.00026903,0.00056521,-0.00025761,0.00058328,0.00156518,-0.00011396,
 0.00009536,-0.00003218,0.00004086,0.00013907,-0.00004734,0.00004577,0.
 00004269,-0.00003643,-0.00001797,0.00024489,0.00022073,-0.00044183,-0.
 00003243,0.00000600,0.00003576,-0.00008169,-0.00004778,0.00002756,-0.0
 0004132,0.00003296,0.00011653,-0.11527487,-0.15241136,-0.04559913,0.00
 224548,0.00350651,0.02417526,0.11234857,0.14667850,0.02198877,0.001442
 89,0.00028905,0.00060261,0.00018718,-0.00007044,0.00004312,-0.00068912
 ,0.00032737,-0.00002401,0.00191501,0.00022179,-0.00077103,0.00017143,-
 0.00133678,-0.00073114,-0.00009679,0.00011578,0.00019636,-0.00051822,0
 .00033936,0.00139472,-0.00024126,-0.00002010,-0.00006593,0.00023115,-0
 .00029947,0.00002246,0.00009705,-0.00027457,-0.00025646,-0.00000195,0.
 00017711,-0.00002468,0.00000932,0.00004828,0.00026890,0.00000146,-0.00
 001064,0.00001741,-0.00000758,-0.00002627,-0.00006621,0.00002479,0.000
 03532,0.00001140,-0.00011530,0.00000530,-0.00008365,0.00000124,0.00006
 709,-0.00006626,-0.00000099,-0.00000463,-0.00001889,0.00004830,0.00010
 347,-0.00001949,0.00008402,-0.00015340,0.00007456,-0.00008238,0.000021
 93,-0.00000968,-0.00001156,-0.00014124,-0.00003855,-0.00020402,0.00014
 810,-0.00031150,0.00016656,-0.00016268,0.00006357,0.00000649,-0.000042
 84,0.00002905,0.00002410,-0.00002956,0.00024725,-0.00011355,-0.0000298
 5,0.00004624,-0.00009564,0.00001735,-0.00000166,0.00001307,-0.00000691
 ,0.00000155,0.00001990,0.00001278,0.00002735,0.00011791,0.00005556,-0.
 00004540,-0.00009709,-0.00005772,-0.00000555,0.00005815,0.00000107,0.0
 0000934,0.00001315,0.00002548,0.00001789,0.00001392,-0.00001937,0.0000
 0727,0.00018665,-0.00008133,-0.00004640,-0.00007171,0.00008592,0.00004
 525,-0.00003240,0.00002123,0.00001857,-0.00001723,-0.00000319,0.000014
 89,-0.00009173,0.00000351,0.00006199,0.00016178,-0.00011055,0.00003108
 ,-0.00029770,-0.00012483,0.00059660,-0.00002973,-0.00001859,-0.0000204
 3,-0.00001876,-0.00001496,-0.00004591,0.00003831,-0.00002354,0.0000178
 3,0.00025178,0.00019165,0.00025021,-0.00010477,-0.00024853,-0.00042246
 ,0.00003844,0.00006228,-0.00006043,-0.00000770,-0.00003300,-0.00003128
 ,0.00005157,-0.00003256,-0.00003133,0.00001462,0.00006019,0.00109827,-
 0.00006192,0.00008486,0.00013623,0.00054457,0.00003453,-0.00057085,0.0
 0009318,0.00002991,-0.00003191,0.00005305,-0.00000389,0.00004847,-0.00
 001392,0.00000635,-0.00006609,-0.00033409,0.00051825,0.00090492,-0.000
 02235,0.00000512,-0.00003457,0.00009431,-0.00001041,-0.00000375,0.0000
 0420,0.00000541,0.00000331,0.00000030,0.00000272,0.00000856,0.00000793
 ,0.00000404,-0.00000996,-0.00019813,0.00011676,0.00010396,0.00014627,-
 0.00001832,-0.00003813,0.00002501,0.00004451,-0.00007453,-0.00003029,-
 0.00001045,0.00000410,0.00000293,0.00000152,-0.00000797,-0.00000708,0.
 00000160,0.00002231,-0.00000274,-0.00000878,-0.00010728,-0.00006279,-0
 .00009087,0.00010579,-0.00005021,0.00004150,-0.00000360,0.00010168,-0.
 00000596,-0.00007580,-0.00000510,-0.00000686,0.00000379,-0.00000052,-0
 .00000902,-0.00001401,0.00000874,-0.00001210,0.00001299,-0.00002644,-0
 .00004938,0.00004139,-0.00003598,0.00002431,0.00002527,0.00004207,-0.0
 0000166,-0.00003247,-0.00004759,-0.00006298,0.00006533,-0.00000460,-0.
 00000983,0.00000130,-0.00003858,0.00003828,0.00004523,-0.00001913,0.00
 000158,-0.00000189,-0.00002248,0.00006063,-0.00012251,0.00000500,0.000
 03017,0.00000647,0.00012536,-0.00002563,-0.00005240,0.00002248,0.00006
 186,0.00004744,-0.00024900,0.00000806,-0.00000756,0.00001358,-0.000035
 69,-0.00003298,-0.00000349,-0.00000322,-0.00000147,-0.00000126,-0.0000
 1831,-0.00001376,0.00011090,0.00000865,0.00003086,-0.00001104,-0.00007
 615,-0.00010871,0.00006593,-0.00003050,0.00001659,-0.00009264,0.000019
 71,0.00014430,-0.00001067,-0.00001132,0.00001042,-0.00001831,-0.000013
 16,-0.00001652,-0.00000717,0.00000425,0.00000086,-0.00002732,-0.000011
 11,-0.00039015,-0.00001590,0.00002186,0.00000331,0.00002503,-0.0000530
 3,0.00024312,-0.00006155,-0.00005144,-0.00001564,0.00001310,0.00008582
 ,-0.00005029,-0.00002702,0.00004448,0.00002504,0.00000468,-0.00000177,
 -0.00000205,0.00000213,0.00000827,-0.00000017,-0.00008815,-0.00019648,
 0.00004983,0.00001519,-0.00001736,0.00000893,-0.00000427,-0.00000912,0
 .00000135,0.00016807,0.00006489,-0.00003413,0.00004680,-0.00019872,0.0
 0001517,0.00027092,-0.00002816,0.00001809,-0.00002584,-0.00001221,-0.0
 0000169,-0.00001631,-0.00001269,0.00000460,-0.00000012,-0.00001492,-0.
 00035367,-0.00020886,-0.00002651,0.00001408,-0.00000777,-0.00002185,0.
 00000936,-0.00000005,0.00015110,0.00019984,0.00007100,0.00001538,-0.00
 001415,-0.00020146,-0.00009515,0.00012604,-0.00001391,-0.00004382,0.00
 000491,0.00000836,0.00001394,-0.00000177,-0.00000410,-0.00000369,0.000
 00526,0.00007982,0.00003484,-0.00012181,-0.00000701,0.00000967,-0.0000
 0320,0.00003262,-0.00000201,-0.00000271,-0.00005815,-0.00000907,0.0000
 9289,0.00007630,0.00023466,-0.00006379,0.00005050,-0.00145404,0.000678
 88,0.00001180,-0.00006436,-0.00001298,-0.00010582,0.00011379,0.0000242
 2,-0.00000338,-0.00000767,0.00007795,-0.00038016,-0.00027579,0.0000698
 3,0.00004564,-0.00001597,-0.00000241,0.00001842,0.00009486,0.00010292,
 0.00007590,-0.00001281,-0.00001653,0.90841678,-0.00003702,-0.00067026,
 -0.00010499,-0.00020756,-0.00005050,-0.00005310,-0.00011618,0.00001429
 ,0.00005008,0.00013921,0.00013490,0.00011496,-0.00007670,0.00001742,0.
 00004968,-0.00027093,-0.00025300,0.00005184,0.00007633,-0.00005666,-0.
 00000220,0.00015877,0.00010657,0.00003965,0.00003132,-0.00008627,-0.00
 003551,2.75257579,1.97146635,0.00012383,0.00007846,-0.00012759,-0.0004
 3616,-0.00259686,0.00179779,0.00003924,0.00001244,0.00001456,-0.000015
 00,0.00000649,-0.00001304,0.00002763,0.00000631,0.00005061,0.00013458,
 0.00042242,-0.00008858,0.00003035,-0.00000262,0.00007684,0.00005502,-0
 .00004417,-0.00011712,-0.00006041,0.00001715,0.00005056,2.40914050,2.5
 2447668,1.17194508,-0.00023198,-0.00043520,-0.00010275,-0.00143258,0.0
 0158560,0.00005889,-0.00002760,0.00004876,-0.00001315,0.00020710,0.000
 12739,-0.00000857,0.00000789,-0.00001321,-0.00003832,0.00012004,0.0000
 1134,-0.00029750,-0.00000549,0.00003080,-0.00000292,-0.00005719,0.0000
 3959,0.00006411,-0.00002595,0.00008968,0.00011774,0.07562933,-0.017151
 14,0.00256049,-0.08694945,-0.00083195,0.00063166,-0.00013323,0.0016629
 3,0.00239764,-0.00068688,0.00034612,0.00007119,0.00003455,0.00011412,-
 0.00005573,-0.00000160,0.00006716,-0.00001855,-0.00002676,0.00045725,-
 0.00020208,-0.00076503,-0.00007187,0.00002649,0.00002852,-0.00005761,0
 .00011700,0.00011124,-0.00004206,0.00022208,0.00016884,-0.02485587,-0.
 21025760,0.20992360,0.01879302,0.22181119,0.00025301,-0.00055790,-0.00
 010546,-0.00001415,-0.00085494,-0.00142717,-0.00010698,-0.00001990,0.0
 0000984,0.00014475,0.00008261,-0.00001826,-0.00002951,0.00004155,-0.00
 001980,-0.00069812,-0.00043575,0.00037414,0.00000609,0.00000644,-0.000
 05130,0.00001161,0.00025668,0.00007685,0.00006094,-0.00011547,-0.00014
 027,0.00944945,0.22559230,-0.10013475,-0.01781322,-0.23666245,0.088370
 58,-0.00024793,-0.00021272,0.00015830,0.00025732,0.00131084,-0.0006851
 8,-0.00002605,0.00005486,0.00001558,-0.00000208,-0.00010899,-0.0000419
 5,0.00002456,0.00002551,-0.00001904,0.00046321,0.00028350,-0.00008448,
 -0.00009288,0.00005315,-0.00000224,0.00000299,-0.00004491,-0.00008734,
 -0.00007213,0.00002219,-0.00000837,-0.98383533,-2.73512189,-2.41160007
 ,0.01276589,0.00441876,0.00873614,0.97076243,0.00026108,0.00040282,0.0
 0016272,-0.00007110,-0.00045496,0.00026969,-0.00001339,-0.00002710,-0.
 00006760,-0.00012596,-0.00002998,-0.00006499,0.00008242,0.00002348,-0.
 00005956,0.00008797,0.00012684,0.00020395,-0.00001936,0.00008095,0.000
 00999,-0.00005935,-0.00009434,-0.00007754,-0.00000277,-0.00000746,-0.0
 0005344,-2.72633260,-1.76036527,-2.73229990,-0.00312665,-0.01474329,0.
 01266684,2.72931970,1.77508830,-0.00047611,0.00026674,0.00019898,0.000
 55311,0.00309090,-0.00162800,0.00004882,0.00001846,-0.00002183,-0.0000
 1039,-0.00003431,-0.00002813,0.00003657,-0.00003430,-0.00007812,0.0002
 9242,-0.00047142,-0.00023574,-0.00004511,0.00001529,-0.00001569,-0.000
 08574,-0.00003964,0.00003105,0.00004063,0.00004864,0.00000424,-2.41944
 804,-2.75017940,-1.07345438,0.01547518,0.02800919,0.01306559,2.4036186
 6,2.71930985,1.06216203\\@


 MARY HAD A LITTLE LAMB
      HIS FEET WERE BLACK AS SOOT,
           AND EVERYWHERE THAT MARY WENT
                HIS SOOTY FOOT HE PUT.

                    -- NONAME
 Job cpu time:       2 days 15 hours 43 minutes 27.8 seconds.
 Elapsed time:       0 days  2 hours 19 minutes 13.7 seconds.
 File lengths (MBytes):  RWF=   3244 Int=      0 D2E=      0 Chk=     88 Scr=      8
 Normal termination of Gaussian 16 at Fri Aug  7 01:47:38 2020.
