 Entering Gaussian System, Link 0=g16
 Input=h2o_nh3_mp2_opt_anharm.gjf
 Output=h2o_nh3_mp2_opt_anharm.log
 Initial command:
 /sw/contrib/gaussian/g16/A03/g16/l1.exe "/gscratch/scrubbed/gds001/Gau-22636.inp" -scrdir="/gscratch/scrubbed/gds001/"
 Entering Link 1 = /sw/contrib/gaussian/g16/A03/g16/l1.exe PID=     22637.
  
 Copyright (c) 1988,1990,1992,1993,1995,1998,2003,2009,2016,
            Gaussian, Inc.  All Rights Reserved.
  
 This is part of the Gaussian(R) 16 program.  It is based on
 the Gaussian(R) 09 system (copyright 2009, Gaussian, Inc.),
 the Gaussian(R) 03 system (copyright 2003, Gaussian, Inc.),
 the Gaussian(R) 98 system (copyright 1998, Gaussian, Inc.),
 the Gaussian(R) 94 system (copyright 1995, Gaussian, Inc.),
 the Gaussian 92(TM) system (copyright 1992, Gaussian, Inc.),
 the Gaussian 90(TM) system (copyright 1990, Gaussian, Inc.),
 the Gaussian 88(TM) system (copyright 1988, Gaussian, Inc.),
 the Gaussian 86(TM) system (copyright 1986, Carnegie Mellon
 University), and the Gaussian 82(TM) system (copyright 1983,
 Carnegie Mellon University). Gaussian is a federally registered
 trademark of Gaussian, Inc.
  
 This software contains proprietary and confidential information,
 including trade secrets, belonging to Gaussian, Inc.
  
 This software is provided under written license and may be
 used, copied, transmitted, or stored only in accord with that
 written license.
  
 The following legend is applicable only to US Government
 contracts under FAR:
  
                    RESTRICTED RIGHTS LEGEND
  
 Use, reproduction and disclosure by the US Government is
 subject to restrictions as set forth in subparagraphs (a)
 and (c) of the Commercial Computer Software - Restricted
 Rights clause in FAR 52.227-19.
  
 Gaussian, Inc.
 340 Quinnipiac St., Bldg. 40, Wallingford CT 06492
  
  
 ---------------------------------------------------------------
 Warning -- This program may not be used in any manner that
 competes with the business of Gaussian, Inc. or will provide
 assistance to any competitor of Gaussian, Inc.  The licensee
 of this program is prohibited from giving any competitor of
 Gaussian, Inc. access to this program.  By using this program,
 the user acknowledges that Gaussian, Inc. is engaged in the
 business of creating and licensing software in the field of
 computational chemistry and represents and warrants to the
 licensee that it is not a competitor of Gaussian, Inc. and that
 it will not use this program in any manner prohibited above.
 ---------------------------------------------------------------
  

 Cite this work as:
 Gaussian 16, Revision A.03,
 M. J. Frisch, G. W. Trucks, H. B. Schlegel, G. E. Scuseria, 
 M. A. Robb, J. R. Cheeseman, G. Scalmani, V. Barone, 
 G. A. Petersson, H. Nakatsuji, X. Li, M. Caricato, A. V. Marenich, 
 J. Bloino, B. G. Janesko, R. Gomperts, B. Mennucci, H. P. Hratchian, 
 J. V. Ortiz, A. F. Izmaylov, J. L. Sonnenberg, D. Williams-Young, 
 F. Ding, F. Lipparini, F. Egidi, J. Goings, B. Peng, A. Petrone, 
 T. Henderson, D. Ranasinghe, V. G. Zakrzewski, J. Gao, N. Rega, 
 G. Zheng, W. Liang, M. Hada, M. Ehara, K. Toyota, R. Fukuda, 
 J. Hasegawa, M. Ishida, T. Nakajima, Y. Honda, O. Kitao, H. Nakai, 
 T. Vreven, K. Throssell, J. A. Montgomery, Jr., J. E. Peralta, 
 F. Ogliaro, M. J. Bearpark, J. J. Heyd, E. N. Brothers, K. N. Kudin, 
 V. N. Staroverov, T. A. Keith, R. Kobayashi, J. Normand, 
 K. Raghavachari, A. P. Rendell, J. C. Burant, S. S. Iyengar, 
 J. Tomasi, M. Cossi, J. M. Millam, M. Klene, C. Adamo, R. Cammi, 
 J. W. Ochterski, R. L. Martin, K. Morokuma, O. Farkas, 
 J. B. Foresman, and D. J. Fox, Gaussian, Inc., Wallingford CT, 2016.
 
 ******************************************
 Gaussian 16:  ES64L-G16RevA.03 25-Dec-2016
                28-Sep-2020 
 ******************************************
 %nprocshared=28
 Will use up to   28 processors via shared memory.
 %mem=41GB
 %chk=h2o_nh3
 -------------------------------------------------------
 # mp2/aug-cc-pVDZ Opt=Z-Matrix Freq(vibrot, anharmonic)
 -------------------------------------------------------
 1/10=7,18=40,38=1,80=1/1,3;
 2/12=2,17=6,18=5,29=3,40=1/2;
 3/5=16,7=10,11=9,25=1,30=1,71=1/1,2,3;
 4//1;
 5/5=2,38=5/2;
 8/6=4,10=1/1;
 9/15=2,16=-3/6;
 10/5=1/2;
 6/7=2,8=2,9=2,10=2/1;
 7/12=2,29=1/1,2,3,16;
 1/10=7,18=40,80=1/3(2);
 2/29=3/2;
 99//99;
 2/29=3/2;
 3/5=16,7=10,11=9,25=1,30=1,71=1/1,2,3;
 4/5=5,16=3,69=1/1;
 5/5=2,38=5/2;
 8/6=4,10=1/1;
 9/15=2,16=-3/6;
 10/5=1/2;
 7/12=2/1,2,3,16;
 1/18=40,80=1/3(-8);
 2/29=3/2;
 6/7=2,8=2,9=2,10=2/1;
 99//99;
 -------
 h2o_nh3
 -------
 Symbolic Z-matrix:
 Charge =  0 Multiplicity = 1
 O
 H                    1    R1
 H                    1    R2       2    A1
 X                    3     1.       1     90.      2     180.     0
 N                    3    R3       4    A2       1     180.     0
 H                    5    R4       3    A3       4     180.     0
 H                    5    R5       3    A4       4    D1       0
 H                    5    R5       3    A4       4    -D1      0
       Variables:
  R1                    1.                       
  R2                    1.                       
  R3                    2.                       
  R4                    1.                       
  R5                    1.                       
  A1                  107.                       
  A2                   90.                       
  A3                  109.                       
  A4                  109.9                      
  D1                   60.                       
 

 GradGradGradGradGradGradGradGradGradGradGradGradGradGradGradGradGradGrad
 Berny optimization.
 Initialization pass.
                       ----------------------------
                       !    Initial Parameters    !
                       ! (Angstroms and Degrees)  !
 ----------------------                            ----------------------
 !      Name          Value   Derivative information (Atomic Units)     !
 ------------------------------------------------------------------------
 !       R1          1.0      estimate D2E/DX2                          !
 !       R2          1.0      estimate D2E/DX2                          !
 !       R3          2.0      estimate D2E/DX2                          !
 !       R4          1.0      estimate D2E/DX2                          !
 !       R5          1.0      estimate D2E/DX2                          !
 !       A1        107.0      estimate D2E/DX2                          !
 !       A2         90.0      estimate D2E/DX2                          !
 !       A3        109.0      estimate D2E/DX2                          !
 !       A4        109.9      estimate D2E/DX2                          !
 !       D1         60.0      estimate D2E/DX2                          !
 ------------------------------------------------------------------------
 Trust Radius=3.00D-01 FncErr=1.00D-07 GrdErr=1.00D-07 EigMax=2.50D+02 EigMin=1.00D-04
 Number of steps in this run=     20 maximum allowed number of steps=    100.
 GradGradGradGradGradGradGradGradGradGradGradGradGradGradGradGradGradGrad

 ---------------------------------------------------------------------------------------------------
                            Z-MATRIX (ANGSTROMS AND DEGREES)
   CD    Cent   Atom    N1       Length/X        N2       Alpha/Y        N3        Beta/Z          J
 ---------------------------------------------------------------------------------------------------
      1      1  O 
      2      2  H        1   1.000000(     1)
      3      3  H        1   1.000000(     2)      2  107.000(     8)
      4         X        3   1.000000(     3)      1   90.000(     9)      2  180.000(    14)      0
      5      4  N        3   2.000000(     4)      4   90.000(    10)      1  180.000(    15)      0
      6      5  H        5   1.000000(     5)      3  109.000(    11)      4  180.000(    16)      0
      7      6  H        5   1.000000(     6)      3  109.900(    12)      4   60.000(    17)      0
      8      7  H        5   1.000000(     7)      3  109.900(    13)      4  -60.000(    18)      0
 ---------------------------------------------------------------------------------------------------
                         Z-Matrix orientation:                         
 ---------------------------------------------------------------------
 Center     Atomic      Atomic             Coordinates (Angstroms)
 Number     Number       Type             X           Y           Z
 ---------------------------------------------------------------------
      1          8           0        0.000000    0.000000    0.000000
      2          1           0        0.000000    0.000000    1.000000
      3          1           0        0.956305    0.000000   -0.292372
      4         -1           0        0.663933   -0.000000   -1.248676
      5          7           0        2.868914   -0.000000   -0.877115
      6          1           0        3.456700   -0.000000   -0.068098
      7          1           0        3.056964    0.814313   -1.426233
      8          1           0        3.056964   -0.814313   -1.426233
 ---------------------------------------------------------------------
                    Distance matrix (angstroms):
                    1          2          3          4          5
     1  O    0.000000
     2  H    1.000000   0.000000
     3  H    1.000000   1.607714   0.000000
     4  X    1.414214   2.344643   1.000000   0.000000
     5  N    3.000000   3.428444   2.000000   2.236068   0.000000
     6  H    3.457370   3.617956   2.510433   3.032047   1.000000
     7  H    3.470198   3.986821   2.522205   2.534015   1.000000
     8  H    3.470198   3.986821   2.522205   2.534015   1.000000
                    6          7          8
     6  H    0.000000
     7  H    1.633226   0.000000
     8  H    1.633226   1.628627   0.000000
 Stoichiometry    H5NO
 Framework group  CS[SG(H3NO),X(H2)]
 Deg. of freedom    10
 Full point group                 CS      NOp   2
 Largest Abelian subgroup         CS      NOp   2
 Largest concise Abelian subgroup CS      NOp   2
                         Standard orientation:                         
 ---------------------------------------------------------------------
 Center     Atomic      Atomic             Coordinates (Angstroms)
 Number     Number       Type             X           Y           Z
 ---------------------------------------------------------------------
      1          8           0        0.048077    1.585698   -0.000000
      2          1           0       -0.908228    1.878069   -0.000000
      3          1           0        0.048077    0.585698   -0.000000
      4          7           0        0.048077   -1.414302    0.000000
      5          1           0       -0.897442   -1.739870    0.000000
      6          1           0        0.518221   -1.754682    0.814313
      7          1           0        0.518221   -1.754682   -0.814313
 ---------------------------------------------------------------------
 Rotational constants (GHZ):         142.7743297           6.1225393           6.0589343
 Standard basis: Aug-CC-pVDZ (5D, 7F)
 There are    66 symmetry adapted cartesian basis functions of A'  symmetry.
 There are    29 symmetry adapted cartesian basis functions of A"  symmetry.
 There are    62 symmetry adapted basis functions of A'  symmetry.
 There are    29 symmetry adapted basis functions of A"  symmetry.
    91 basis functions,   141 primitive gaussians,    95 cartesian basis functions
    10 alpha electrons       10 beta electrons
       nuclear repulsion energy        38.3986469514 Hartrees.
 NAtoms=    7 NActive=    7 NUniq=    6 SFac= 1.36D+00 NAtFMM=   60 NAOKFM=F Big=F
 Integral buffers will be    131072 words long.
 Raffenetti 1 integral format.
 Two-electron integral symmetry is turned on.
 One-electron integrals computed using PRISM.
 NBasis=    91 RedAO= T EigKep=  1.68D-03  NBF=    62    29
 NBsUse=    91 1.00D-06 EigRej= -1.00D+00 NBFU=    62    29
 ExpMin= 2.97D-02 ExpMax= 1.17D+04 ExpMxC= 4.01D+02 IAcc=3 IRadAn=         5 AccDes= 0.00D+00
 Harris functional with IExCor=  205 and IRadAn=       5 diagonalized for initial guess.
 HarFok:  IExCor=  205 AccDes= 0.00D+00 IRadAn=         5 IDoV= 1 UseB2=F ITyADJ=14
 ICtDFT=  3500011 ScaDFX=  1.000000  1.000000  1.000000  1.000000
 FoFCou: FMM=F IPFlag=           0 FMFlag=      100000 FMFlg1=           0
         NFxFlg=           0 DoJE=T BraDBF=F KetDBF=T FulRan=T
         wScrn=  0.000000 ICntrl=       500 IOpCl=  0 I1Cent=   200000004 NGrid=           0
         NMat0=    1 NMatS0=      1 NMatT0=    0 NMatD0=    1 NMtDS0=    0 NMtDT0=    0
 Petite list used in FoFCou.
 Initial guess orbital symmetries:
       Occupied  (A') (A') (A') (A') (A') (A') (A") (A') (A") (A')
       Virtual   (A') (A') (A') (A") (A') (A') (A") (A') (A') (A')
                 (A') (A') (A") (A") (A') (A') (A") (A') (A') (A")
                 (A') (A') (A") (A') (A') (A") (A") (A') (A') (A')
                 (A") (A') (A') (A") (A') (A') (A") (A') (A') (A')
                 (A") (A') (A") (A") (A') (A') (A') (A') (A') (A")
                 (A") (A') (A') (A") (A") (A') (A") (A') (A') (A")
                 (A') (A") (A') (A') (A') (A") (A') (A') (A') (A')
                 (A") (A') (A') (A') (A") (A') (A") (A') (A") (A')
                 (A')
 The electronic state of the initial guess is 1-A'.
 Keep R1 ints in memory in symmetry-blocked form, NReq=14661896.
 Requested convergence on RMS density matrix=1.00D-08 within 128 cycles.
 Requested convergence on MAX density matrix=1.00D-06.
 Requested convergence on             energy=1.00D-06.
 No special actions if energy rises.
 SCF Done:  E(RHF) =  -132.249094004     A.U. after   11 cycles
            NFock= 11  Conv=0.30D-08     -V/T= 2.0023
 ExpMin= 2.97D-02 ExpMax= 1.17D+04 ExpMxC= 4.01D+02 IAcc=3 IRadAn=         5 AccDes= 0.00D+00
 HarFok:  IExCor=  205 AccDes= 0.00D+00 IRadAn=         5 IDoV=-2 UseB2=F ITyADJ=14
 ICtDFT= 12500011 ScaDFX=  1.000000  1.000000  1.000000  1.000000
 Range of M.O.s used for correlation:     3    91
 NBasis=    91 NAE=    10 NBE=    10 NFC=     2 NFV=     0
 NROrb=     89 NOA=     8 NOB=     8 NVA=    81 NVB=    81
 Fully direct method using O(ONN) memory.
 JobTyp=1 Pass  1:  I=   3 to  10 NPSUse= 28 ParTrn=T ParDer=T DoDerP=T.
 Spin components of T(2) and E(2):
     alpha-alpha T2 =       0.1566266858D-01 E2=     -0.5219718624D-01
     alpha-beta  T2 =       0.9215519377D-01 E2=     -0.3201815448D+00
     beta-beta   T2 =       0.1566266858D-01 E2=     -0.5219718624D-01
 ANorm=    0.1059943645D+01
 E2 =    -0.4245759173D+00 EUMP2 =    -0.13267366992167D+03
          IDoAtm=1111111
          Differentiating once with respect to electric field.
                with respect to dipole field.
          Differentiating once with respect to nuclear coordinates.
 Keep R1 ints in memory in symmetry-blocked form, NReq=14664318.
          There are     1 degrees of freedom in the 1st order CPHF.  IDoFFX=0 NUNeed=     1.
 LinEq1:  Iter=  0 NonCon=     1 RMS=5.21D-03 Max=6.20D-02 NDo=     1
 AX will form     1 AO Fock derivatives at one time.
 LinEq1:  Iter=  1 NonCon=     1 RMS=1.07D-03 Max=8.04D-03 NDo=     1
 LinEq1:  Iter=  2 NonCon=     1 RMS=4.42D-04 Max=5.14D-03 NDo=     1
 LinEq1:  Iter=  3 NonCon=     1 RMS=5.36D-05 Max=3.97D-04 NDo=     1
 LinEq1:  Iter=  4 NonCon=     1 RMS=1.27D-05 Max=7.69D-05 NDo=     1
 LinEq1:  Iter=  5 NonCon=     1 RMS=3.96D-06 Max=2.95D-05 NDo=     1
 LinEq1:  Iter=  6 NonCon=     1 RMS=8.27D-07 Max=6.26D-06 NDo=     1
 LinEq1:  Iter=  7 NonCon=     1 RMS=1.50D-07 Max=7.78D-07 NDo=     1
 LinEq1:  Iter=  8 NonCon=     1 RMS=1.77D-08 Max=1.20D-07 NDo=     1
 LinEq1:  Iter=  9 NonCon=     1 RMS=3.13D-09 Max=2.02D-08 NDo=     1
 LinEq1:  Iter= 10 NonCon=     1 RMS=6.25D-10 Max=3.03D-09 NDo=     1
 LinEq1:  Iter= 11 NonCon=     0 RMS=8.96D-11 Max=6.00D-10 NDo=     1
 Linear equations converged to 1.000D-10 1.000D-09 after    11 iterations.
 End of Minotr F.D. properties file   721 does not exist.
 End of Minotr F.D. properties file   722 does not exist.
 End of Minotr F.D. properties file   788 does not exist.

 **********************************************************************

            Population analysis using the SCF density.

 **********************************************************************

 Orbital symmetries:
       Occupied  (A') (A') (A') (A') (A') (A') (A") (A') (A") (A')
       Virtual   (A') (A') (A") (A') (A') (A') (A') (A") (A') (A")
                 (A') (A') (A') (A") (A') (A') (A") (A') (A') (A")
                 (A') (A') (A") (A') (A") (A') (A") (A') (A') (A')
                 (A") (A') (A") (A') (A') (A") (A') (A') (A') (A')
                 (A") (A') (A") (A') (A") (A') (A') (A') (A') (A")
                 (A") (A') (A") (A') (A") (A') (A") (A') (A') (A")
                 (A') (A') (A") (A') (A") (A') (A') (A') (A') (A')
                 (A") (A') (A') (A') (A") (A') (A") (A') (A") (A')
                 (A')
 The electronic state is 1-A'.
 Alpha  occ. eigenvalues --  -20.53947 -15.57110  -1.29556  -1.17354  -0.66728
 Alpha  occ. eigenvalues --   -0.66436  -0.66273  -0.54139  -0.46624  -0.44852
 Alpha virt. eigenvalues --    0.02767   0.05154   0.05610   0.06180   0.09297
 Alpha virt. eigenvalues --    0.16887   0.18334   0.18749   0.19587   0.22662
 Alpha virt. eigenvalues --    0.22693   0.24807   0.27726   0.28245   0.29335
 Alpha virt. eigenvalues --    0.32627   0.34093   0.35698   0.41214   0.43392
 Alpha virt. eigenvalues --    0.45759   0.48182   0.51290   0.52741   0.52985
 Alpha virt. eigenvalues --    0.53412   0.53974   0.60158   0.61794   0.65874
 Alpha virt. eigenvalues --    0.68239   0.69053   0.73316   0.74432   0.79677
 Alpha virt. eigenvalues --    0.90681   0.92413   0.93900   0.97224   1.02957
 Alpha virt. eigenvalues --    1.13879   1.17967   1.21788   1.22249   1.24822
 Alpha virt. eigenvalues --    1.28072   1.40007   1.51902   1.58478   1.62603
 Alpha virt. eigenvalues --    1.82826   1.84304   1.91652   1.92106   1.99805
 Alpha virt. eigenvalues --    2.00879   2.06280   2.08043   2.09068   2.20341
 Alpha virt. eigenvalues --    2.35341   2.38266   2.39978   2.42573   2.43312
 Alpha virt. eigenvalues --    2.48893   2.53415   2.68671   2.79039   2.83410
 Alpha virt. eigenvalues --    2.90178   2.90508   3.01926   3.18932   3.54083
 Alpha virt. eigenvalues --    3.55001   3.71235   3.74708   3.78303   4.12458
 Alpha virt. eigenvalues --    4.34414
          Condensed to atoms (all electrons):
               1          2          3          4          5          6
     1  O    7.882820   0.337496   0.269737  -0.028979  -0.002934  -0.001619
     2  H    0.337496   0.536698  -0.029437   0.001217   0.001114  -0.000963
     3  H    0.269737  -0.029437   0.455117  -0.033202  -0.007541  -0.007277
     4  N   -0.028979   0.001217  -0.033202   6.011715   0.408155   0.405722
     5  H   -0.002934   0.001114  -0.007541   0.408155   0.756625  -0.095964
     6  H   -0.001619  -0.000963  -0.007277   0.405722  -0.095964   0.751594
     7  H   -0.001619  -0.000963  -0.007277   0.405722  -0.095964  -0.088504
               7
     1  O   -0.001619
     2  H   -0.000963
     3  H   -0.007277
     4  N    0.405722
     5  H   -0.095964
     6  H   -0.088504
     7  H    0.751594
 Mulliken charges:
               1
     1  O   -0.454903
     2  H    0.154839
     3  H    0.359880
     4  N   -0.170349
     5  H    0.036510
     6  H    0.037012
     7  H    0.037012
 Sum of Mulliken charges =   0.00000
 Mulliken charges with hydrogens summed into heavy atoms:
               1
     1  O    0.059815
     4  N   -0.059815
 Electronic spatial extent (au):  <R**2>=            210.0061
 Charge=             -0.0000 electrons
 Dipole moment (field-independent basis, Debye):
    X=             -1.5179    Y=             -3.4578    Z=              0.0000  Tot=              3.7763
 Quadrupole moment (field-independent basis, Debye-Ang):
   XX=            -11.4906   YY=            -13.6762   ZZ=            -13.7617
   XY=             -3.5226   XZ=              0.0000   YZ=             -0.0000
 Traceless Quadrupole moment (field-independent basis, Debye-Ang):
   XX=              1.4856   YY=             -0.7000   ZZ=             -0.7855
   XY=             -3.5226   XZ=              0.0000   YZ=             -0.0000
 Octapole moment (field-independent basis, Debye-Ang**2):
  XXX=             -2.8283  YYY=             -6.3884  ZZZ=              0.0000  XYY=             -6.6739
  XXY=              0.1077  XXZ=              0.0000  XZZ=              0.9300  YZZ=             -3.9770
  YYZ=              0.0000  XYZ=             -0.0000
 Hexadecapole moment (field-independent basis, Debye-Ang**3):
 XXXX=            -16.3669 YYYY=           -215.8788 ZZZZ=            -16.6192 XXXY=              0.9467
 XXXZ=              0.0000 YYYX=            -11.5734 YYYZ=             -0.0000 ZZZX=             -0.0000
 ZZZY=             -0.0000 XXYY=            -28.7468 XXZZ=             -5.6583 YYZZ=            -36.0211
 XXYZ=             -0.0000 YYXZ=              0.0000 ZZXY=             -1.1847
 N-N= 3.839864695136D+01 E-N=-3.891809899721D+02  KE= 1.319459113477D+02
 Symmetry A'   KE= 1.249286413624D+02
 Symmetry A"   KE= 7.017269985320D+00
 Calling FoFJK, ICntrl=  10002127 FMM=F ISym2X=1 I1Cent= 0 IOpClX= 0 NMat=1 NMatS=1 NMatT=0.
 ***** Axes restored to original set *****
 -------------------------------------------------------------------
 Center     Atomic                   Forces (Hartrees/Bohr)
 Number     Number              X              Y              Z
 -------------------------------------------------------------------
      1        8           0.011353690   -0.000000000    0.021669868
      2        1           0.004977468    0.000000000   -0.032943787
      3        1          -0.015163739    0.000000000    0.011126866
      4        7          -0.022278844    0.000000000    0.005913941
      5        1           0.011289867   -0.000000000    0.010500130
      6        1           0.004910779    0.012189680   -0.008133508
      7        1           0.004910779   -0.012189680   -0.008133508
 -------------------------------------------------------------------
 Cartesian Forces:  Max     0.032943787 RMS     0.012552851
 -----------------------------------------------------------------------------------------------
                       Internal Coordinate Forces (Hartree/Bohr or radian)
  Cent   Atom   N1       Length/X         N2         Alpha/Y        N3         Beta/Z          J
 -----------------------------------------------------------------------------------------------
      1  O 
      2  H        1  -0.032944(     1)
      3  H        1  -0.018914(     2)      2  -0.009406(     8)
         X        3  -0.000000(     3)      1  -0.001945(     9)      2  -0.000000(    14)     0
      4  N        3  -0.001159(     4)      4  -0.001945(    10)      1   0.000000(    15)     0
      5  H        5   0.015131(     5)      3   0.005597(    11)      4   0.000000(    16)     0
      6  H        5   0.015316(     6)      3   0.003740(    12)      4   0.001070(    17)     0
      7  H        5   0.015316(     7)      3   0.003740(    13)      4  -0.001070(    18)     0
 -----------------------------------------------------------------------------------------------
 Internal  Forces:  Max     0.032943787 RMS     0.011304118

 GradGradGradGradGradGradGradGradGradGradGradGradGradGradGradGradGradGrad
 Berny optimization.
 Search for a local minimum.
 Step number   1 out of a maximum of   20
 All quantities printed in internal units (Hartrees-Bohrs-Radians)
 Second derivative matrix not updated -- first step.
 The second derivative matrix:
                          R1        R2        R3        R4        R5
           R1           0.47688
           R2           0.00000   0.47688
           R3          -0.00000  -0.00000   0.04307
           R4           0.00000  -0.00000   0.00000   0.47688
           R5          -0.00000   0.00000  -0.00000   0.00000   0.95377
           A1           0.00000   0.00000  -0.00000   0.00000  -0.00000
           A2           0.00000  -0.00000   0.00000  -0.00000   0.00000
           A3          -0.00000   0.00000  -0.00000   0.00000  -0.00000
           A4           0.00000  -0.00000   0.00000  -0.00000   0.00000
           D1           0.00000  -0.00000   0.00000  -0.00000   0.00000
                          A1        A2        A3        A4        D1
           A1           0.16001
           A2          -0.00001   0.25001
           A3          -0.00004   0.00004   0.24274
           A4           0.00002  -0.00002   0.08258   0.56945
           D1           0.00025  -0.00025   0.13088  -0.13281   0.63922
 ITU=  0
     Eigenvalues ---    0.04307   0.16001   0.16734   0.25001   0.47688
     Eigenvalues ---    0.47688   0.47688   0.53584   0.74823   0.95377
 RFO step:  Lambda=-5.21063307D-03 EMin= 4.30660316D-02
 Linear search not attempted -- first point.
 Variable       Old X    -DE/DX   Delta X   Delta X   Delta X     New X
                                 (Linear)    (Quad)   (Total)
    R1        1.88973  -0.03294   0.00000  -0.06833  -0.06833   1.82139
    R2        1.88973  -0.01891   0.00000  -0.03923  -0.03923   1.85049
    R3        3.77945  -0.00116   0.00000  -0.02402  -0.02402   3.75544
    R4        1.88973   0.01513   0.00000   0.03139   0.03139   1.92111
    R5        1.88973   0.03063   0.00000   0.03194   0.03194   1.92167
    A1        1.86750  -0.00941   0.00000  -0.05693  -0.05693   1.81057
    A2        1.57080  -0.00194   0.00000  -0.00762  -0.00762   1.56317
    A3        1.90241   0.00560   0.00000   0.01791   0.01791   1.92032
    A4        1.91812   0.00748   0.00000   0.01090   0.01090   1.92901
    D1        1.04720   0.00214   0.00000   0.00195   0.00195   1.04915
         Item               Value     Threshold  Converged?
 Maximum Force            0.032944     0.000450     NO 
 RMS     Force            0.016720     0.000300     NO 
 Maximum Displacement     0.068335     0.001800     NO 
 RMS     Displacement     0.035402     0.001200     NO 
 Predicted change in Energy=-2.637970D-03
 GradGradGradGradGradGradGradGradGradGradGradGradGradGradGradGradGradGrad

 ---------------------------------------------------------------------------------------------------
                            Z-MATRIX (ANGSTROMS AND DEGREES)
   CD    Cent   Atom    N1       Length/X        N2       Alpha/Y        N3        Beta/Z          J
 ---------------------------------------------------------------------------------------------------
      1      1  O 
      2      2  H        1   0.963839(     1)
      3      3  H        1   0.979239(     2)      2  103.738(     8)
      4         X        3   1.000000(     3)      1   90.000(     9)      2  180.000(    14)      0
      5      4  N        3   1.987291(     4)      4   89.563(    10)      1  180.000(    15)      0
      6      5  H        5   1.016609(     5)      3  110.026(    11)      4  180.000(    16)      0
      7      6  H        5   1.016903(     6)      3  110.524(    12)      4   60.112(    17)      0
      8      7  H        5   1.016903(     7)      3  110.524(    13)      4  -60.112(    18)      0
 ---------------------------------------------------------------------------------------------------
                         Z-Matrix orientation:                         
 ---------------------------------------------------------------------
 Center     Atomic      Atomic             Coordinates (Angstroms)
 Number     Number       Type             X           Y           Z
 ---------------------------------------------------------------------
      1          8           0        0.000000    0.000000    0.000000
      2          1           0        0.000000    0.000000    0.963839
      3          1           0        0.951224    0.000000   -0.232555
      4         -1           0        0.713739   -0.000000   -1.203946
      5          7           0        2.878008   -0.000000   -0.719207
      6          1           0        3.449440   -0.000000    0.121601
      7          1           0        3.107470    0.825689   -1.266635
      8          1           0        3.107470   -0.825689   -1.266635
 ---------------------------------------------------------------------
                    Distance matrix (angstroms):
                    1          2          3          4          5
     1  O    0.000000
     2  H    0.963839   0.000000
     3  H    0.979239   1.528458   0.000000
     4  X    1.399610   2.282261   1.000000   0.000000
     5  N    2.966511   3.334003   1.987291   2.217889   0.000000
     6  H    3.451583   3.550775   2.523194   3.039923   1.016609
     7  H    3.455791   3.913201   2.529917   2.532911   1.016903
     8  H    3.455791   3.913201   2.529917   2.532911   1.016903
                    6          7          8
     6  H    0.000000
     7  H    1.651031   0.000000
     8  H    1.651031   1.651378   0.000000
 Stoichiometry    H5NO
 Framework group  CS[SG(H3NO),X(H2)]
 Deg. of freedom    10
 Full point group                 CS      NOp   2
 Largest Abelian subgroup         CS      NOp   2
 Largest concise Abelian subgroup CS      NOp   2
                         Standard orientation:                         
 ---------------------------------------------------------------------
 Center     Atomic      Atomic             Coordinates (Angstroms)
 Number     Number       Type             X           Y           Z
 ---------------------------------------------------------------------
      1          8           0        0.047171    1.573594    0.000000
      2          1           0       -0.887913    1.807269    0.000000
      3          1           0        0.042171    0.594367    0.000000
      4          7           0        0.047171   -1.392918    0.000000
      5          1           0       -0.907092   -1.743454    0.000000
      6          1           0        0.522635   -1.748253    0.825689
      7          1           0        0.522635   -1.748253   -0.825689
 ---------------------------------------------------------------------
 Rotational constants (GHZ):         141.6142633           6.2522442           6.1894314
 Standard basis: Aug-CC-pVDZ (5D, 7F)
 There are    66 symmetry adapted cartesian basis functions of A'  symmetry.
 There are    29 symmetry adapted cartesian basis functions of A"  symmetry.
 There are    62 symmetry adapted basis functions of A'  symmetry.
 There are    29 symmetry adapted basis functions of A"  symmetry.
    91 basis functions,   141 primitive gaussians,    95 cartesian basis functions
    10 alpha electrons       10 beta electrons
       nuclear repulsion energy        38.6407717321 Hartrees.
 NAtoms=    7 NActive=    7 NUniq=    6 SFac= 1.36D+00 NAtFMM=   60 NAOKFM=F Big=F
 Integral buffers will be    131072 words long.
 Raffenetti 1 integral format.
 Two-electron integral symmetry is turned on.
 One-electron integrals computed using PRISM.
 NBasis=    91 RedAO= T EigKep=  1.51D-03  NBF=    62    29
 NBsUse=    91 1.00D-06 EigRej= -1.00D+00 NBFU=    62    29
 Initial guess from the checkpoint file:  "h2o_nh3.chk"
 B after Tr=     0.000000    0.000000    0.000000
         Rot=    1.000000   -0.000000    0.000000   -0.000447 Ang=  -0.05 deg.
 Initial guess orbital symmetries:
       Occupied  (A') (A') (A') (A') (A') (A') (A") (A') (A") (A')
       Virtual   (A') (A') (A") (A') (A') (A') (A') (A") (A') (A")
                 (A') (A') (A') (A") (A') (A') (A") (A') (A') (A")
                 (A') (A') (A") (A') (A") (A') (A") (A') (A') (A')
                 (A") (A') (A") (A') (A') (A") (A') (A') (A') (A')
                 (A") (A') (A") (A') (A") (A') (A') (A') (A') (A")
                 (A") (A') (A") (A') (A") (A') (A") (A') (A') (A")
                 (A') (A') (A") (A') (A") (A') (A') (A') (A') (A')
                 (A") (A') (A') (A') (A") (A') (A") (A') (A") (A')
                 (A')
 ExpMin= 2.97D-02 ExpMax= 1.17D+04 ExpMxC= 4.01D+02 IAcc=3 IRadAn=         5 AccDes= 0.00D+00
 Harris functional with IExCor=  205 and IRadAn=       5 diagonalized for initial guess.
 HarFok:  IExCor=  205 AccDes= 0.00D+00 IRadAn=         5 IDoV= 1 UseB2=F ITyADJ=14
 ICtDFT=  3500011 ScaDFX=  1.000000  1.000000  1.000000  1.000000
 FoFCou: FMM=F IPFlag=           0 FMFlag=      100000 FMFlg1=           0
         NFxFlg=           0 DoJE=T BraDBF=F KetDBF=T FulRan=T
         wScrn=  0.000000 ICntrl=       500 IOpCl=  0 I1Cent=   200000004 NGrid=           0
         NMat0=    1 NMatS0=      1 NMatT0=    0 NMatD0=    1 NMtDS0=    0 NMtDT0=    0
 Petite list used in FoFCou.
 Keep R1 ints in memory in symmetry-blocked form, NReq=14661852.
 Requested convergence on RMS density matrix=1.00D-08 within 128 cycles.
 Requested convergence on MAX density matrix=1.00D-06.
 Requested convergence on             energy=1.00D-06.
 No special actions if energy rises.
 SCF Done:  E(RHF) =  -132.252826587     A.U. after   10 cycles
            NFock= 10  Conv=0.39D-08     -V/T= 2.0021
 ExpMin= 2.97D-02 ExpMax= 1.17D+04 ExpMxC= 4.01D+02 IAcc=3 IRadAn=         5 AccDes= 0.00D+00
 HarFok:  IExCor=  205 AccDes= 0.00D+00 IRadAn=         5 IDoV=-2 UseB2=F ITyADJ=14
 ICtDFT= 12500011 ScaDFX=  1.000000  1.000000  1.000000  1.000000
 Range of M.O.s used for correlation:     3    91
 NBasis=    91 NAE=    10 NBE=    10 NFC=     2 NFV=     0
 NROrb=     89 NOA=     8 NOB=     8 NVA=    81 NVB=    81
 Fully direct method using O(ONN) memory.
 JobTyp=1 Pass  1:  I=   3 to  10 NPSUse= 28 ParTrn=T ParDer=T DoDerP=T.
 Spin components of T(2) and E(2):
     alpha-alpha T2 =       0.1556075428D-01 E2=     -0.5204610704D-01
     alpha-beta  T2 =       0.9164714730D-01 E2=     -0.3194707577D+00
     beta-beta   T2 =       0.1556075428D-01 E2=     -0.5204610704D-01
 ANorm=    0.1059607784D+01
 E2 =    -0.4235629718D+00 EUMP2 =    -0.13267638955865D+03
          IDoAtm=1111111
          Differentiating once with respect to electric field.
                with respect to dipole field.
          Differentiating once with respect to nuclear coordinates.
 Keep R1 ints in memory in symmetry-blocked form, NReq=14664362.
          There are     1 degrees of freedom in the 1st order CPHF.  IDoFFX=0 NUNeed=     1.
 LinEq1:  Iter=  0 NonCon=     1 RMS=5.12D-03 Max=5.84D-02 NDo=     1
 AX will form     1 AO Fock derivatives at one time.
 LinEq1:  Iter=  1 NonCon=     1 RMS=1.04D-03 Max=8.43D-03 NDo=     1
 LinEq1:  Iter=  2 NonCon=     1 RMS=4.26D-04 Max=4.85D-03 NDo=     1
 LinEq1:  Iter=  3 NonCon=     1 RMS=5.06D-05 Max=3.65D-04 NDo=     1
 LinEq1:  Iter=  4 NonCon=     1 RMS=1.12D-05 Max=6.72D-05 NDo=     1
 LinEq1:  Iter=  5 NonCon=     1 RMS=3.75D-06 Max=2.71D-05 NDo=     1
 LinEq1:  Iter=  6 NonCon=     1 RMS=7.43D-07 Max=5.33D-06 NDo=     1
 LinEq1:  Iter=  7 NonCon=     1 RMS=1.39D-07 Max=9.66D-07 NDo=     1
 LinEq1:  Iter=  8 NonCon=     1 RMS=1.62D-08 Max=1.26D-07 NDo=     1
 LinEq1:  Iter=  9 NonCon=     1 RMS=2.65D-09 Max=1.67D-08 NDo=     1
 LinEq1:  Iter= 10 NonCon=     1 RMS=5.25D-10 Max=3.78D-09 NDo=     1
 LinEq1:  Iter= 11 NonCon=     0 RMS=7.77D-11 Max=4.98D-10 NDo=     1
 Linear equations converged to 1.000D-10 1.000D-09 after    11 iterations.
 End of Minotr F.D. properties file   721 does not exist.
 End of Minotr F.D. properties file   722 does not exist.
 End of Minotr F.D. properties file   788 does not exist.
 Calling FoFJK, ICntrl=  10002127 FMM=F ISym2X=1 I1Cent= 0 IOpClX= 0 NMat=1 NMatS=1 NMatT=0.
 ***** Axes restored to original set *****
 -------------------------------------------------------------------
 Center     Atomic                   Forces (Hartrees/Bohr)
 Number     Number              X              Y              Z
 -------------------------------------------------------------------
      1        8           0.000950768   -0.000000000   -0.001207555
      2        1          -0.000724886   -0.000000000    0.001130159
      3        1          -0.000091292    0.000000000    0.000001839
      4        7          -0.007510955   -0.000000000    0.001788230
      5        1           0.002953173    0.000000000   -0.001009377
      6        1           0.002211596   -0.000217371   -0.000351648
      7        1           0.002211596    0.000217371   -0.000351648
 -------------------------------------------------------------------
 Cartesian Forces:  Max     0.007510955 RMS     0.001995825
 -----------------------------------------------------------------------------------------------
                       Internal Coordinate Forces (Hartree/Bohr or radian)
  Cent   Atom   N1       Length/X         N2         Alpha/Y        N3         Beta/Z          J
 -----------------------------------------------------------------------------------------------
      1  O 
      2  H        1   0.001130(     1)
      3  H        1  -0.000238(     2)      2   0.001320(     8)
         X        3   0.000000(     3)      1  -0.001360(     9)      2   0.000000(    14)     0
      4  N        3  -0.000149(     4)      4  -0.001360(    10)      1   0.000000(    15)     0
      5  H        5   0.000825(     5)      3   0.005782(    11)      4  -0.000000(    16)     0
      6  H        5   0.000512(     6)      3   0.004208(    12)      4   0.000118(    17)     0
      7  H        5   0.000512(     7)      3   0.004208(    13)      4  -0.000118(    18)     0
 -----------------------------------------------------------------------------------------------
 Internal  Forces:  Max     0.005782263 RMS     0.002066751

 GradGradGradGradGradGradGradGradGradGradGradGradGradGradGradGradGradGrad
 Berny optimization.
 Search for a local minimum.
 Step number   2 out of a maximum of   20
 All quantities printed in internal units (Hartrees-Bohrs-Radians)
 Update second derivatives using D2CorN and points    1    2
 DE= -2.72D-03 DEPred=-2.64D-03 R= 1.03D+00
 TightC=F SS=  1.41D+00  RLast= 1.12D-01 DXNew= 5.0454D-01 3.3586D-01
 Trust test= 1.03D+00 RLast= 1.12D-01 DXMaxT set to 3.36D-01
 The second derivative matrix:
                          R1        R2        R3        R4        R5
           R1           0.48499
           R2           0.00224   0.47678
           R3           0.00136  -0.00007   0.04302
           R4          -0.00006   0.00108   0.00066   0.47523
           R5           0.00044   0.00138   0.00085  -0.00192   0.95158
           A1           0.00778   0.00245   0.00149  -0.00052  -0.00011
           A2          -0.00315  -0.00208  -0.00127   0.00185   0.00194
           A3           0.01445   0.00893   0.00547  -0.00760  -0.00786
           A4           0.02214   0.01310   0.00802  -0.01075  -0.01103
           D1           0.00050   0.00036   0.00022  -0.00033  -0.00035
                          A1        A2        A3        A4        D1
           A1           0.16736
           A2          -0.00252   0.24921
           A3           0.01172   0.00272   0.23461
           A4           0.01830   0.00310   0.07413   0.56219
           D1           0.00064  -0.00008   0.13028  -0.13356   0.63919
 ITU=  1  0
     Eigenvalues ---    0.04277   0.15997   0.17047   0.24919   0.46549
     Eigenvalues ---    0.47688   0.47855   0.54055   0.74822   0.95206
 RFO step:  Lambda=-2.48440618D-04 EMin= 4.27674546D-02
 Quartic linear search produced a step of  0.02316.
 Variable       Old X    -DE/DX   Delta X   Delta X   Delta X     New X
                                 (Linear)    (Quad)   (Total)
    R1        1.82139   0.00113  -0.00158   0.00274   0.00116   1.82255
    R2        1.85049  -0.00024  -0.00091  -0.00035  -0.00125   1.84924
    R3        3.75544  -0.00015  -0.00056  -0.00798  -0.00854   3.74690
    R4        1.92111   0.00083   0.00073   0.00165   0.00238   1.92349
    R5        1.92167   0.00102   0.00074   0.00067   0.00141   1.92308
    A1        1.81057   0.00132  -0.00132   0.00665   0.00533   1.81590
    A2        1.56317  -0.00136  -0.00018  -0.00572  -0.00590   1.55728
    A3        1.92032   0.00578   0.00041   0.02172   0.02214   1.94245
    A4        1.92901   0.00842   0.00025   0.01160   0.01185   1.94086
    D1        1.04915   0.00024   0.00005  -0.00171  -0.00167   1.04748
         Item               Value     Threshold  Converged?
 Maximum Force            0.008417     0.000450     NO 
 RMS     Force            0.003332     0.000300     NO 
 Maximum Displacement     0.022137     0.001800     NO 
 RMS     Displacement     0.008831     0.001200     NO 
 Predicted change in Energy=-1.231946D-04
 GradGradGradGradGradGradGradGradGradGradGradGradGradGradGradGradGradGrad

 ---------------------------------------------------------------------------------------------------
                            Z-MATRIX (ANGSTROMS AND DEGREES)
   CD    Cent   Atom    N1       Length/X        N2       Alpha/Y        N3        Beta/Z          J
 ---------------------------------------------------------------------------------------------------
      1      1  O 
      2      2  H        1   0.964454(     1)
      3      3  H        1   0.978575(     2)      2  104.044(     8)
      4         X        3   1.000000(     3)      1   90.000(     9)      2  180.000(    14)      0
      5      4  N        3   1.982773(     4)      4   89.225(    10)      1  180.000(    15)      0
      6      5  H        5   1.017867(     5)      3  111.294(    11)      4  180.000(    16)      0
      7      6  H        5   1.017649(     6)      3  111.203(    12)      4   60.016(    17)      0
      8      7  H        5   1.017649(     7)      3  111.203(    13)      4  -60.016(    18)      0
 ---------------------------------------------------------------------------------------------------
                         Z-Matrix orientation:                         
 ---------------------------------------------------------------------
 Center     Atomic      Atomic             Coordinates (Angstroms)
 Number     Number       Type             X           Y           Z
 ---------------------------------------------------------------------
      1          8           0        0.000000    0.000000    0.000000
      2          1           0        0.000000    0.000000    0.964454
      3          1           0        0.949327    0.000000   -0.237462
      4         -1           0        0.706666   -0.000000   -1.207573
      5          7           0        2.866157   -0.000000   -0.744565
      6          1           0        3.466062   -0.000000    0.077730
      7          1           0        3.100710    0.821784   -1.297074
      8          1           0        3.100710   -0.821784   -1.297074
 ---------------------------------------------------------------------
                    Distance matrix (angstroms):
                    1          2          3          4          5
     1  O    0.000000
     2  H    0.964454   0.000000
     3  H    0.978575   1.531608   0.000000
     4  X    1.399146   2.284092   1.000000   0.000000
     5  N    2.961289   3.337004   1.982773   2.208569   0.000000
     6  H    3.466933   3.577690   2.536395   3.044055   1.017867
     7  H    3.460076   3.924823   2.535065   2.532743   1.017649
     8  H    3.460076   3.924823   2.535065   2.532743   1.017649
                    6          7          8
     6  H    0.000000
     7  H    1.642832   0.000000
     8  H    1.642832   1.643567   0.000000
 Stoichiometry    H5NO
 Framework group  CS[SG(H3NO),X(H2)]
 Deg. of freedom    10
 Full point group                 CS      NOp   2
 Largest Abelian subgroup         CS      NOp   2
 Largest concise Abelian subgroup CS      NOp   2
                         Standard orientation:                         
 ---------------------------------------------------------------------
 Center     Atomic      Atomic             Coordinates (Angstroms)
 Number     Number       Type             X           Y           Z
 ---------------------------------------------------------------------
      1          8           0        0.046874    1.572734    0.000000
      2          1           0       -0.886597    1.815229    0.000000
      3          1           0        0.038016    0.594199    0.000000
      4          7           0        0.046874   -1.388554    0.000000
      5          1           0       -0.899840   -1.762436    0.000000
      6          1           0        0.522659   -1.754491    0.821784
      7          1           0        0.522659   -1.754491   -0.821784
 ---------------------------------------------------------------------
 Rotational constants (GHZ):         142.8100526           6.2591802           6.1965282
 Standard basis: Aug-CC-pVDZ (5D, 7F)
 There are    66 symmetry adapted cartesian basis functions of A'  symmetry.
 There are    29 symmetry adapted cartesian basis functions of A"  symmetry.
 There are    62 symmetry adapted basis functions of A'  symmetry.
 There are    29 symmetry adapted basis functions of A"  symmetry.
    91 basis functions,   141 primitive gaussians,    95 cartesian basis functions
    10 alpha electrons       10 beta electrons
       nuclear repulsion energy        38.6436041454 Hartrees.
 NAtoms=    7 NActive=    7 NUniq=    6 SFac= 1.36D+00 NAtFMM=   60 NAOKFM=F Big=F
 Integral buffers will be    131072 words long.
 Raffenetti 1 integral format.
 Two-electron integral symmetry is turned on.
 One-electron integrals computed using PRISM.
 NBasis=    91 RedAO= T EigKep=  1.51D-03  NBF=    62    29
 NBsUse=    91 1.00D-06 EigRej= -1.00D+00 NBFU=    62    29
 Initial guess from the checkpoint file:  "h2o_nh3.chk"
 B after Tr=     0.000000    0.000000    0.000000
         Rot=    1.000000   -0.000000    0.000000   -0.000190 Ang=  -0.02 deg.
 Initial guess orbital symmetries:
       Occupied  (A') (A') (A') (A') (A') (A') (A") (A') (A") (A')
       Virtual   (A') (A') (A") (A') (A') (A') (A') (A") (A') (A")
                 (A') (A') (A') (A") (A') (A') (A") (A') (A') (A")
                 (A') (A') (A") (A') (A") (A') (A") (A') (A') (A')
                 (A") (A') (A") (A') (A') (A") (A') (A') (A') (A')
                 (A") (A') (A') (A") (A") (A') (A') (A') (A') (A")
                 (A") (A') (A") (A') (A") (A') (A") (A') (A') (A")
                 (A') (A') (A") (A') (A") (A') (A') (A') (A') (A')
                 (A") (A') (A') (A') (A") (A') (A") (A') (A") (A')
                 (A')
 ExpMin= 2.97D-02 ExpMax= 1.17D+04 ExpMxC= 4.01D+02 IAcc=3 IRadAn=         5 AccDes= 0.00D+00
 Harris functional with IExCor=  205 and IRadAn=       5 diagonalized for initial guess.
 HarFok:  IExCor=  205 AccDes= 0.00D+00 IRadAn=         5 IDoV= 1 UseB2=F ITyADJ=14
 ICtDFT=  3500011 ScaDFX=  1.000000  1.000000  1.000000  1.000000
 FoFCou: FMM=F IPFlag=           0 FMFlag=      100000 FMFlg1=           0
         NFxFlg=           0 DoJE=T BraDBF=F KetDBF=T FulRan=T
         wScrn=  0.000000 ICntrl=       500 IOpCl=  0 I1Cent=   200000004 NGrid=           0
         NMat0=    1 NMatS0=      1 NMatT0=    0 NMatD0=    1 NMtDS0=    0 NMtDT0=    0
 Petite list used in FoFCou.
 Keep R1 ints in memory in symmetry-blocked form, NReq=14661896.
 Requested convergence on RMS density matrix=1.00D-08 within 128 cycles.
 Requested convergence on MAX density matrix=1.00D-06.
 Requested convergence on             energy=1.00D-06.
 No special actions if energy rises.
 SCF Done:  E(RHF) =  -132.252941076     A.U. after    9 cycles
            NFock=  9  Conv=0.66D-08     -V/T= 2.0021
 ExpMin= 2.97D-02 ExpMax= 1.17D+04 ExpMxC= 4.01D+02 IAcc=3 IRadAn=         5 AccDes= 0.00D+00
 HarFok:  IExCor=  205 AccDes= 0.00D+00 IRadAn=         5 IDoV=-2 UseB2=F ITyADJ=14
 ICtDFT= 12500011 ScaDFX=  1.000000  1.000000  1.000000  1.000000
 Range of M.O.s used for correlation:     3    91
 NBasis=    91 NAE=    10 NBE=    10 NFC=     2 NFV=     0
 NROrb=     89 NOA=     8 NOB=     8 NVA=    81 NVB=    81
 Fully direct method using O(ONN) memory.
 JobTyp=1 Pass  1:  I=   3 to  10 NPSUse= 28 ParTrn=T ParDer=T DoDerP=T.
 Spin components of T(2) and E(2):
     alpha-alpha T2 =       0.1556694201D-01 E2=     -0.5204898167D-01
     alpha-beta  T2 =       0.9171175552D-01 E2=     -0.3195522156D+00
     beta-beta   T2 =       0.1556694201D-01 E2=     -0.5204898167D-01
 ANorm=    0.1059644110D+01
 E2 =    -0.4236501790D+00 EUMP2 =    -0.13267659125534D+03
          IDoAtm=1111111
          Differentiating once with respect to electric field.
                with respect to dipole field.
          Differentiating once with respect to nuclear coordinates.
 Keep R1 ints in memory in symmetry-blocked form, NReq=14664362.
          There are     1 degrees of freedom in the 1st order CPHF.  IDoFFX=0 NUNeed=     1.
 LinEq1:  Iter=  0 NonCon=     1 RMS=5.12D-03 Max=5.81D-02 NDo=     1
 AX will form     1 AO Fock derivatives at one time.
 LinEq1:  Iter=  1 NonCon=     1 RMS=1.04D-03 Max=8.37D-03 NDo=     1
 LinEq1:  Iter=  2 NonCon=     1 RMS=4.26D-04 Max=4.85D-03 NDo=     1
 LinEq1:  Iter=  3 NonCon=     1 RMS=5.06D-05 Max=3.20D-04 NDo=     1
 LinEq1:  Iter=  4 NonCon=     1 RMS=1.10D-05 Max=6.62D-05 NDo=     1
 LinEq1:  Iter=  5 NonCon=     1 RMS=3.77D-06 Max=2.71D-05 NDo=     1
 LinEq1:  Iter=  6 NonCon=     1 RMS=7.48D-07 Max=5.27D-06 NDo=     1
 LinEq1:  Iter=  7 NonCon=     1 RMS=1.40D-07 Max=9.56D-07 NDo=     1
 LinEq1:  Iter=  8 NonCon=     1 RMS=1.62D-08 Max=1.19D-07 NDo=     1
 LinEq1:  Iter=  9 NonCon=     1 RMS=2.67D-09 Max=1.57D-08 NDo=     1
 LinEq1:  Iter= 10 NonCon=     1 RMS=5.26D-10 Max=3.62D-09 NDo=     1
 LinEq1:  Iter= 11 NonCon=     0 RMS=7.65D-11 Max=4.83D-10 NDo=     1
 Linear equations converged to 1.000D-10 1.000D-09 after    11 iterations.
 End of Minotr F.D. properties file   721 does not exist.
 End of Minotr F.D. properties file   722 does not exist.
 End of Minotr F.D. properties file   788 does not exist.
 Calling FoFJK, ICntrl=  10002127 FMM=F ISym2X=1 I1Cent= 0 IOpClX= 0 NMat=1 NMatS=1 NMatT=0.
 ***** Axes restored to original set *****
 -------------------------------------------------------------------
 Center     Atomic                   Forces (Hartrees/Bohr)
 Number     Number              X              Y              Z
 -------------------------------------------------------------------
      1        8          -0.000043149   -0.000000000   -0.000677824
      2        1          -0.000300117   -0.000000000    0.000324197
      3        1           0.000432256    0.000000000    0.000313331
      4        7          -0.004675201   -0.000000000    0.001686817
      5        1           0.001935608    0.000000000   -0.000617022
      6        1           0.001325302    0.000212467   -0.000514750
      7        1           0.001325302   -0.000212467   -0.000514750
 -------------------------------------------------------------------
 Cartesian Forces:  Max     0.004675201 RMS     0.001270634
 -----------------------------------------------------------------------------------------------
                       Internal Coordinate Forces (Hartree/Bohr or radian)
  Cent   Atom   N1       Length/X         N2         Alpha/Y        N3         Beta/Z          J
 -----------------------------------------------------------------------------------------------
      1  O 
      2  H        1   0.000324(     1)
      3  H        1   0.000247(     2)      2   0.000547(     8)
         X        3  -0.000000(     3)      1  -0.001335(     9)      2  -0.000000(    14)     0
      4  N        3  -0.000096(     4)      4  -0.001335(    10)      1   0.000000(    15)     0
      5  H        5   0.000642(     5)      3   0.003707(    11)      4  -0.000000(    16)     0
      6  H        5   0.000757(     6)      3   0.002350(    12)      4  -0.000056(    17)     0
      7  H        5   0.000757(     7)      3   0.002350(    13)      4   0.000056(    18)     0
 -----------------------------------------------------------------------------------------------
 Internal  Forces:  Max     0.003707254 RMS     0.001299430

 GradGradGradGradGradGradGradGradGradGradGradGradGradGradGradGradGradGrad
 Berny optimization.
 Search for a local minimum.
 Step number   3 out of a maximum of   20
 All quantities printed in internal units (Hartrees-Bohrs-Radians)
 Update second derivatives using D2CorN and points    1    2    3
 DE= -2.02D-04 DEPred=-1.23D-04 R= 1.64D+00
 TightC=F SS=  1.41D+00  RLast= 2.79D-02 DXNew= 5.6484D-01 8.3779D-02
 Trust test= 1.64D+00 RLast= 2.79D-02 DXMaxT set to 3.36D-01
 The second derivative matrix:
                          R1        R2        R3        R4        R5
           R1           0.48955
           R2           0.00516   0.47880
           R3           0.00787   0.00400   0.04552
           R4          -0.00118   0.00114   0.00279   0.47235
           R5           0.00157   0.00388   0.00877  -0.00702   0.94531
           A1           0.00961   0.00387   0.00798  -0.00321  -0.00326
           A2          -0.00266  -0.00316  -0.00878   0.00730   0.01027
           A3           0.01186   0.01096   0.02637  -0.02492  -0.03634
           A4           0.03147   0.02381   0.03908  -0.03025  -0.03490
           D1           0.00160   0.00095  -0.00015   0.00011   0.00090
                          A1        A2        A3        A4        D1
           A1           0.16588
           A2           0.00237   0.23886
           A3          -0.00373   0.03607   0.12934
           A4           0.01109   0.03308  -0.02570   0.48499
           D1           0.00210  -0.00169   0.13510  -0.12836   0.63894
 ITU=  1  1  0
     Eigenvalues ---    0.02695   0.09713   0.16566   0.24074   0.39964
     Eigenvalues ---    0.47719   0.47819   0.51369   0.74076   0.94960
 RFO step:  Lambda=-2.37647794D-05 EMin= 2.69462446D-02
 Quartic linear search produced a step of  1.44372.
 Variable       Old X    -DE/DX   Delta X   Delta X   Delta X     New X
                                 (Linear)    (Quad)   (Total)
    R1        1.82255   0.00032   0.00168  -0.00182  -0.00014   1.82241
    R2        1.84924   0.00025  -0.00181   0.00193   0.00012   1.84935
    R3        3.74690  -0.00010  -0.01233  -0.00080  -0.01312   3.73377
    R4        1.92349   0.00064   0.00343   0.00111   0.00454   1.92803
    R5        1.92308   0.00151   0.00204   0.00262   0.00465   1.92773
    A1        1.81590   0.00055   0.00770  -0.00352   0.00417   1.82008
    A2        1.55728  -0.00134  -0.00851  -0.00603  -0.01454   1.54273
    A3        1.94245   0.00371   0.03196   0.00739   0.03935   1.98180
    A4        1.94086   0.00470   0.01711  -0.00136   0.01575   1.95661
    D1        1.04748  -0.00011  -0.00240  -0.00275  -0.00516   1.04233
         Item               Value     Threshold  Converged?
 Maximum Force            0.004700     0.000450     NO 
 RMS     Force            0.002020     0.000300     NO 
 Maximum Displacement     0.039346     0.001800     NO 
 RMS     Displacement     0.015054     0.001200     NO 
 Predicted change in Energy=-1.420671D-04
 GradGradGradGradGradGradGradGradGradGradGradGradGradGradGradGradGradGrad

 ---------------------------------------------------------------------------------------------------
                            Z-MATRIX (ANGSTROMS AND DEGREES)
   CD    Cent   Atom    N1       Length/X        N2       Alpha/Y        N3        Beta/Z          J
 ---------------------------------------------------------------------------------------------------
      1      1  O 
      2      2  H        1   0.964377(     1)
      3      3  H        1   0.978636(     2)      2  104.283(     8)
      4         X        3   1.000000(     3)      1   90.000(     9)      2  180.000(    14)      0
      5      4  N        3   1.975828(     4)      4   88.392(    10)      1  180.000(    15)      0
      6      5  H        5   1.020271(     5)      3  113.549(    11)      4  180.000(    16)      0
      7      6  H        5   1.020112(     6)      3  112.105(    12)      4   59.721(    17)      0
      8      7  H        5   1.020112(     7)      3  112.105(    13)      4  -59.721(    18)      0
 ---------------------------------------------------------------------------------------------------
                         Z-Matrix orientation:                         
 ---------------------------------------------------------------------
 Center     Atomic      Atomic             Coordinates (Angstroms)
 Number     Number       Type             X           Y           Z
 ---------------------------------------------------------------------
      1          8           0        0.000000    0.000000    0.000000
      2          1           0        0.000000    0.000000    0.964377
      3          1           0        0.948386    0.000000   -0.241438
      4         -1           0        0.701678   -0.000000   -1.210528
      5          7           0        2.848709   -0.000000   -0.782427
      6          1           0        3.496850   -0.000000    0.005524
      7          1           0        3.087437    0.816192   -1.345870
      8          1           0        3.087437   -0.816192   -1.345870
 ---------------------------------------------------------------------
                    Distance matrix (angstroms):
                    1          2          3          4          5
     1  O    0.000000
     2  H    0.964377   0.000000
     3  H    0.978636   1.534089   0.000000
     4  X    1.399189   2.285293   1.000000   0.000000
     5  N    2.954206   3.341627   1.975828   2.189295   0.000000
     6  H    3.496854   3.625929   2.560401   3.048240   1.020271
     7  H    3.465517   3.941533   2.541944   2.525141   1.020112
     8  H    3.465517   3.941533   2.541944   2.525141   1.020112
                    6          7          8
     6  H    0.000000
     7  H    1.630967   0.000000
     8  H    1.630967   1.632385   0.000000
 Stoichiometry    H5NO
 Framework group  CS[SG(H3NO),X(H2)]
 Deg. of freedom    10
 Full point group                 CS      NOp   2
 Largest Abelian subgroup         CS      NOp   2
 Largest concise Abelian subgroup CS      NOp   2
                         Standard orientation:                         
 ---------------------------------------------------------------------
 Center     Atomic      Atomic             Coordinates (Angstroms)
 Number     Number       Type             X           Y           Z
 ---------------------------------------------------------------------
      1          8           0        0.045980    1.572014    0.000000
      2          1           0       -0.883959    1.827431   -0.000000
      3          1           0        0.027613    0.593550    0.000000
      4          7           0        0.045980   -1.382192   -0.000000
      5          1           0       -0.885494   -1.798497   -0.000000
      6          1           0        0.526074   -1.761625    0.816192
      7          1           0        0.526074   -1.761625   -0.816192
 ---------------------------------------------------------------------
 Rotational constants (GHZ):         144.6727975           6.2655923           6.2034707
 Standard basis: Aug-CC-pVDZ (5D, 7F)
 There are    66 symmetry adapted cartesian basis functions of A'  symmetry.
 There are    29 symmetry adapted cartesian basis functions of A"  symmetry.
 There are    62 symmetry adapted basis functions of A'  symmetry.
 There are    29 symmetry adapted basis functions of A"  symmetry.
    91 basis functions,   141 primitive gaussians,    95 cartesian basis functions
    10 alpha electrons       10 beta electrons
       nuclear repulsion energy        38.6323977185 Hartrees.
 NAtoms=    7 NActive=    7 NUniq=    6 SFac= 1.36D+00 NAtFMM=   60 NAOKFM=F Big=F
 Integral buffers will be    131072 words long.
 Raffenetti 1 integral format.
 Two-electron integral symmetry is turned on.
 One-electron integrals computed using PRISM.
 NBasis=    91 RedAO= T EigKep=  1.51D-03  NBF=    62    29
 NBsUse=    91 1.00D-06 EigRej= -1.00D+00 NBFU=    62    29
 Initial guess from the checkpoint file:  "h2o_nh3.chk"
 B after Tr=     0.000000    0.000000   -0.000000
         Rot=    1.000000   -0.000000    0.000000   -0.000591 Ang=  -0.07 deg.
 Initial guess orbital symmetries:
       Occupied  (A') (A') (A') (A') (A') (A') (A") (A') (A") (A')
       Virtual   (A') (A') (A") (A') (A') (A') (A') (A") (A') (A")
                 (A') (A') (A') (A") (A') (A') (A") (A') (A') (A")
                 (A') (A') (A") (A') (A") (A') (A") (A') (A') (A')
                 (A") (A') (A") (A') (A') (A") (A') (A') (A') (A')
                 (A") (A') (A") (A') (A") (A') (A') (A') (A') (A")
                 (A") (A') (A") (A') (A") (A') (A") (A') (A') (A")
                 (A') (A') (A") (A') (A") (A') (A') (A') (A') (A')
                 (A") (A') (A') (A') (A") (A') (A") (A') (A") (A')
                 (A')
 ExpMin= 2.97D-02 ExpMax= 1.17D+04 ExpMxC= 4.01D+02 IAcc=3 IRadAn=         5 AccDes= 0.00D+00
 Harris functional with IExCor=  205 and IRadAn=       5 diagonalized for initial guess.
 HarFok:  IExCor=  205 AccDes= 0.00D+00 IRadAn=         5 IDoV= 1 UseB2=F ITyADJ=14
 ICtDFT=  3500011 ScaDFX=  1.000000  1.000000  1.000000  1.000000
 FoFCou: FMM=F IPFlag=           0 FMFlag=      100000 FMFlg1=           0
         NFxFlg=           0 DoJE=T BraDBF=F KetDBF=T FulRan=T
         wScrn=  0.000000 ICntrl=       500 IOpCl=  0 I1Cent=   200000004 NGrid=           0
         NMat0=    1 NMatS0=      1 NMatT0=    0 NMatD0=    1 NMtDS0=    0 NMtDT0=    0
 Petite list used in FoFCou.
 Keep R1 ints in memory in symmetry-blocked form, NReq=14661896.
 Requested convergence on RMS density matrix=1.00D-08 within 128 cycles.
 Requested convergence on MAX density matrix=1.00D-06.
 Requested convergence on             energy=1.00D-06.
 No special actions if energy rises.
 SCF Done:  E(RHF) =  -132.252809361     A.U. after   10 cycles
            NFock= 10  Conv=0.25D-08     -V/T= 2.0022
 ExpMin= 2.97D-02 ExpMax= 1.17D+04 ExpMxC= 4.01D+02 IAcc=3 IRadAn=         5 AccDes= 0.00D+00
 HarFok:  IExCor=  205 AccDes= 0.00D+00 IRadAn=         5 IDoV=-2 UseB2=F ITyADJ=14
 ICtDFT= 12500011 ScaDFX=  1.000000  1.000000  1.000000  1.000000
 Range of M.O.s used for correlation:     3    91
 NBasis=    91 NAE=    10 NBE=    10 NFC=     2 NFV=     0
 NROrb=     89 NOA=     8 NOB=     8 NVA=    81 NVB=    81
 Fully direct method using O(ONN) memory.
 JobTyp=1 Pass  1:  I=   3 to  10 NPSUse= 28 ParTrn=T ParDer=T DoDerP=T.
 Spin components of T(2) and E(2):
     alpha-alpha T2 =       0.1558943491D-01 E2=     -0.5206995085D-01
     alpha-beta  T2 =       0.9189351027D-01 E2=     -0.3197744041D+00
     beta-beta   T2 =       0.1558943491D-01 E2=     -0.5206995085D-01
 ANorm=    0.1059751093D+01
 E2 =    -0.4239143058D+00 EUMP2 =    -0.13267672366672D+03
          IDoAtm=1111111
          Differentiating once with respect to electric field.
                with respect to dipole field.
          Differentiating once with respect to nuclear coordinates.
 Keep R1 ints in memory in symmetry-blocked form, NReq=14664230.
          There are     1 degrees of freedom in the 1st order CPHF.  IDoFFX=0 NUNeed=     1.
 LinEq1:  Iter=  0 NonCon=     1 RMS=5.12D-03 Max=5.78D-02 NDo=     1
 AX will form     1 AO Fock derivatives at one time.
 LinEq1:  Iter=  1 NonCon=     1 RMS=1.04D-03 Max=8.33D-03 NDo=     1
 LinEq1:  Iter=  2 NonCon=     1 RMS=4.27D-04 Max=4.85D-03 NDo=     1
 LinEq1:  Iter=  3 NonCon=     1 RMS=5.07D-05 Max=3.27D-04 NDo=     1
 LinEq1:  Iter=  4 NonCon=     1 RMS=1.07D-05 Max=6.66D-05 NDo=     1
 LinEq1:  Iter=  5 NonCon=     1 RMS=3.81D-06 Max=2.70D-05 NDo=     1
 LinEq1:  Iter=  6 NonCon=     1 RMS=7.55D-07 Max=5.17D-06 NDo=     1
 LinEq1:  Iter=  7 NonCon=     1 RMS=1.41D-07 Max=9.41D-07 NDo=     1
 LinEq1:  Iter=  8 NonCon=     1 RMS=1.62D-08 Max=1.11D-07 NDo=     1
 LinEq1:  Iter=  9 NonCon=     1 RMS=2.70D-09 Max=1.60D-08 NDo=     1
 LinEq1:  Iter= 10 NonCon=     1 RMS=5.30D-10 Max=3.38D-09 NDo=     1
 LinEq1:  Iter= 11 NonCon=     0 RMS=7.49D-11 Max=4.46D-10 NDo=     1
 Linear equations converged to 1.000D-10 1.000D-09 after    11 iterations.
 End of Minotr F.D. properties file   721 does not exist.
 End of Minotr F.D. properties file   722 does not exist.
 End of Minotr F.D. properties file   788 does not exist.
 Calling FoFJK, ICntrl=  10002127 FMM=F ISym2X=1 I1Cent= 0 IOpClX= 0 NMat=1 NMatS=1 NMatT=0.
 ***** Axes restored to original set *****
 -------------------------------------------------------------------
 Center     Atomic                   Forces (Hartrees/Bohr)
 Number     Number              X              Y              Z
 -------------------------------------------------------------------
      1        8          -0.000254717   -0.000000000   -0.000917791
      2        1           0.000020197   -0.000000000    0.000279781
      3        1           0.000267449    0.000000000    0.000632961
      4        7           0.000626602   -0.000000000    0.000271588
      5        1           0.000128942   -0.000000000   -0.000059888
      6        1          -0.000394236    0.000142166   -0.000103325
      7        1          -0.000394236   -0.000142166   -0.000103325
 -------------------------------------------------------------------
 Cartesian Forces:  Max     0.000917791 RMS     0.000332186
 -----------------------------------------------------------------------------------------------
                       Internal Coordinate Forces (Hartree/Bohr or radian)
  Cent   Atom   N1       Length/X         N2         Alpha/Y        N3         Beta/Z          J
 -----------------------------------------------------------------------------------------------
      1  O 
      2  H        1   0.000280(     1)
      3  H        1   0.000070(     2)      2  -0.000037(     8)
         X        3  -0.000000(     3)      1  -0.001214(     9)      2  -0.000000(    14)     0
      4  N        3  -0.000033(     4)      4  -0.001214(    10)      1  -0.000000(    15)     0
      5  H        5   0.000036(     5)      3   0.000265(    11)      4   0.000000(    16)     0
      6  H        5   0.000079(     6)      3  -0.000792(    12)      4  -0.000192(    17)     0
      7  H        5   0.000079(     7)      3  -0.000792(    13)      4   0.000192(    18)     0
 -----------------------------------------------------------------------------------------------
 Internal  Forces:  Max     0.001213631 RMS     0.000496775

 GradGradGradGradGradGradGradGradGradGradGradGradGradGradGradGradGradGrad
 Berny optimization.
 Search for a local minimum.
 Step number   4 out of a maximum of   20
 All quantities printed in internal units (Hartrees-Bohrs-Radians)
 Update second derivatives using D2CorN and points    1    2    3    4
 DE= -1.32D-04 DEPred=-1.42D-04 R= 9.32D-01
 TightC=F SS=  1.41D+00  RLast= 4.76D-02 DXNew= 5.6484D-01 1.4281D-01
 Trust test= 9.32D-01 RLast= 4.76D-02 DXMaxT set to 3.36D-01
 The second derivative matrix:
                          R1        R2        R3        R4        R5
           R1           0.49398
           R2           0.00805   0.48078
           R3           0.01473   0.00945   0.05904
           R4          -0.00399  -0.00096  -0.00096   0.47316
           R5          -0.00018   0.00261   0.00937  -0.00797   0.94277
           A1           0.01066   0.00418   0.00799  -0.00377  -0.00445
           A2          -0.00049  -0.00097  -0.00826   0.00925   0.01606
           A3          -0.00010   0.00066   0.00629  -0.02233  -0.04514
           A4           0.02665   0.01975   0.03177  -0.02977  -0.03930
           D1           0.00245   0.00179   0.00074   0.00043   0.00247
                          A1        A2        A3        A4        D1
           A1           0.16680
           A2           0.00282   0.22848
           A3          -0.00381   0.04853   0.14258
           A4           0.01079   0.03959  -0.02365   0.48378
           D1           0.00214  -0.00431   0.13705  -0.12722   0.63832
 ITU=  1  1  1  0
     Eigenvalues ---    0.05208   0.08873   0.16663   0.23664   0.40585
     Eigenvalues ---    0.47718   0.47867   0.51505   0.74006   0.94880
 RFO step:  Lambda=-1.53174108D-05 EMin= 5.20840381D-02
 Quartic linear search produced a step of  0.02387.
 Variable       Old X    -DE/DX   Delta X   Delta X   Delta X     New X
                                 (Linear)    (Quad)   (Total)
    R1        1.82241   0.00028  -0.00000   0.00076   0.00076   1.82317
    R2        1.84935   0.00007   0.00000   0.00026   0.00026   1.84962
    R3        3.73377  -0.00003  -0.00031  -0.00026  -0.00057   3.73320
    R4        1.92803   0.00004   0.00011   0.00020   0.00031   1.92834
    R5        1.92773   0.00016   0.00011   0.00034   0.00046   1.92819
    A1        1.82008  -0.00004   0.00010   0.00014   0.00024   1.82032
    A2        1.54273  -0.00121  -0.00035  -0.00587  -0.00621   1.53652
    A3        1.98180   0.00027   0.00094   0.00518   0.00612   1.98792
    A4        1.95661  -0.00158   0.00038  -0.00350  -0.00313   1.95348
    D1        1.04233  -0.00038  -0.00012  -0.00246  -0.00259   1.03974
         Item               Value     Threshold  Converged?
 Maximum Force            0.001583     0.000450     NO 
 RMS     Force            0.000656     0.000300     NO 
 Maximum Displacement     0.006215     0.001800     NO 
 RMS     Displacement     0.003063     0.001200     NO 
 Predicted change in Energy=-7.700662D-06
 GradGradGradGradGradGradGradGradGradGradGradGradGradGradGradGradGradGrad

 ---------------------------------------------------------------------------------------------------
                            Z-MATRIX (ANGSTROMS AND DEGREES)
   CD    Cent   Atom    N1       Length/X        N2       Alpha/Y        N3        Beta/Z          J
 ---------------------------------------------------------------------------------------------------
      1      1  O 
      2      2  H        1   0.964779(     1)
      3      3  H        1   0.978776(     2)      2  104.296(     8)
      4         X        3   1.000000(     3)      1   90.000(     9)      2  180.000(    14)      0
      5      4  N        3   1.975526(     4)      4   88.036(    10)      1  180.000(    15)      0
      6      5  H        5   1.020433(     5)      3  113.899(    11)      4  180.000(    16)      0
      7      6  H        5   1.020353(     6)      3  111.926(    12)      4   59.573(    17)      0
      8      7  H        5   1.020353(     7)      3  111.926(    13)      4  -59.573(    18)      0
 ---------------------------------------------------------------------------------------------------
                         Z-Matrix orientation:                         
 ---------------------------------------------------------------------
 Center     Atomic      Atomic             Coordinates (Angstroms)
 Number     Number       Type             X           Y           Z
 ---------------------------------------------------------------------
      1          8           0        0.000000    0.000000    0.000000
      2          1           0        0.000000    0.000000    0.964779
      3          1           0        0.948464    0.000000   -0.241697
      4         -1           0        0.701525   -0.000000   -1.210729
      5          7           0        2.844967   -0.000000   -0.794853
      6          1           0        3.503063   -0.000000   -0.014986
      7          1           0        3.076512    0.816180   -1.361737
      8          1           0        3.076512   -0.816180   -1.361737
 ---------------------------------------------------------------------
                    Distance matrix (angstroms):
                    1          2          3          4          5
     1  O    0.000000
     2  H    0.964779   0.000000
     3  H    0.978776   1.534656   0.000000
     4  X    1.399286   2.285820   1.000000   0.000000
     5  N    2.953917   3.345167   1.975526   2.183414   0.000000
     6  H    3.503095   3.637498   2.564640   3.046049   1.020433
     7  H    3.461994   3.942557   2.539533   2.515853   1.020353
     8  H    3.461994   3.942557   2.539533   2.515853   1.020353
                    6          7          8
     6  H    0.000000
     7  H    1.631513   0.000000
     8  H    1.631513   1.632361   0.000000
 Stoichiometry    H5NO
 Framework group  CS[SG(H3NO),X(H2)]
 Deg. of freedom    10
 Full point group                 CS      NOp   2
 Largest Abelian subgroup         CS      NOp   2
 Largest concise Abelian subgroup CS      NOp   2
                         Standard orientation:                         
 ---------------------------------------------------------------------
 Center     Atomic      Atomic             Coordinates (Angstroms)
 Number     Number       Type             X           Y           Z
 ---------------------------------------------------------------------
      1          8           0        0.045624    1.571657    0.000000
      2          1           0       -0.883571    1.831264    0.000000
      3          1           0        0.023190    0.593139    0.000000
      4          7           0        0.045624   -1.382260   -0.000000
      5          1           0       -0.882563   -1.806234   -0.000000
      6          1           0        0.529294   -1.757804    0.816180
      7          1           0        0.529294   -1.757804   -0.816180
 ---------------------------------------------------------------------
 Rotational constants (GHZ):         144.7003962           6.2655617           6.2034853
 Standard basis: Aug-CC-pVDZ (5D, 7F)
 There are    66 symmetry adapted cartesian basis functions of A'  symmetry.
 There are    29 symmetry adapted cartesian basis functions of A"  symmetry.
 There are    62 symmetry adapted basis functions of A'  symmetry.
 There are    29 symmetry adapted basis functions of A"  symmetry.
    91 basis functions,   141 primitive gaussians,    95 cartesian basis functions
    10 alpha electrons       10 beta electrons
       nuclear repulsion energy        38.6272679224 Hartrees.
 NAtoms=    7 NActive=    7 NUniq=    6 SFac= 1.36D+00 NAtFMM=   60 NAOKFM=F Big=F
 Integral buffers will be    131072 words long.
 Raffenetti 1 integral format.
 Two-electron integral symmetry is turned on.
 One-electron integrals computed using PRISM.
 NBasis=    91 RedAO= T EigKep=  1.51D-03  NBF=    62    29
 NBsUse=    91 1.00D-06 EigRej= -1.00D+00 NBFU=    62    29
 Initial guess from the checkpoint file:  "h2o_nh3.chk"
 B after Tr=    -0.000000   -0.000000   -0.000000
         Rot=    1.000000   -0.000000    0.000000   -0.000278 Ang=  -0.03 deg.
 Initial guess orbital symmetries:
       Occupied  (A') (A') (A') (A') (A') (A") (A') (A') (A") (A')
       Virtual   (A') (A') (A") (A') (A') (A') (A') (A") (A') (A")
                 (A') (A') (A') (A") (A') (A') (A") (A') (A') (A")
                 (A') (A') (A") (A') (A") (A') (A") (A') (A') (A')
                 (A") (A') (A") (A') (A') (A") (A') (A') (A') (A')
                 (A") (A') (A") (A') (A") (A') (A') (A') (A') (A")
                 (A") (A') (A") (A') (A") (A') (A") (A') (A') (A")
                 (A') (A") (A') (A') (A") (A') (A') (A') (A') (A')
                 (A") (A') (A') (A') (A") (A') (A") (A') (A") (A')
                 (A')
 Keep R1 ints in memory in symmetry-blocked form, NReq=14661896.
 Requested convergence on RMS density matrix=1.00D-08 within 128 cycles.
 Requested convergence on MAX density matrix=1.00D-06.
 Requested convergence on             energy=1.00D-06.
 No special actions if energy rises.
 SCF Done:  E(RHF) =  -132.252782090     A.U. after    8 cycles
            NFock=  8  Conv=0.71D-08     -V/T= 2.0022
 ExpMin= 2.97D-02 ExpMax= 1.17D+04 ExpMxC= 4.01D+02 IAcc=3 IRadAn=         5 AccDes= 0.00D+00
 HarFok:  IExCor=  205 AccDes= 0.00D+00 IRadAn=         5 IDoV=-2 UseB2=F ITyADJ=14
 ICtDFT= 12500011 ScaDFX=  1.000000  1.000000  1.000000  1.000000
 Range of M.O.s used for correlation:     3    91
 NBasis=    91 NAE=    10 NBE=    10 NFC=     2 NFV=     0
 NROrb=     89 NOA=     8 NOB=     8 NVA=    81 NVB=    81
 Fully direct method using O(ONN) memory.
 JobTyp=1 Pass  1:  I=   3 to  10 NPSUse= 28 ParTrn=T ParDer=T DoDerP=T.
 Spin components of T(2) and E(2):
     alpha-alpha T2 =       0.1559363679D-01 E2=     -0.5207463229D-01
     alpha-beta  T2 =       0.9192166573D-01 E2=     -0.3198070441D+00
     beta-beta   T2 =       0.1559363679D-01 E2=     -0.5207463229D-01
 ANorm=    0.1059768342D+01
 E2 =    -0.4239563087D+00 EUMP2 =    -0.13267673839856D+03
          IDoAtm=1111111
          Differentiating once with respect to electric field.
                with respect to dipole field.
          Differentiating once with respect to nuclear coordinates.
 Keep R1 ints in memory in symmetry-blocked form, NReq=14664230.
          There are     1 degrees of freedom in the 1st order CPHF.  IDoFFX=0 NUNeed=     1.
 LinEq1:  Iter=  0 NonCon=     1 RMS=5.12D-03 Max=5.79D-02 NDo=     1
 AX will form     1 AO Fock derivatives at one time.
 LinEq1:  Iter=  1 NonCon=     1 RMS=1.04D-03 Max=8.32D-03 NDo=     1
 LinEq1:  Iter=  2 NonCon=     1 RMS=4.27D-04 Max=4.86D-03 NDo=     1
 LinEq1:  Iter=  3 NonCon=     1 RMS=5.07D-05 Max=3.27D-04 NDo=     1
 LinEq1:  Iter=  4 NonCon=     1 RMS=1.07D-05 Max=6.68D-05 NDo=     1
 LinEq1:  Iter=  5 NonCon=     1 RMS=3.81D-06 Max=2.70D-05 NDo=     1
 LinEq1:  Iter=  6 NonCon=     1 RMS=7.57D-07 Max=5.18D-06 NDo=     1
 LinEq1:  Iter=  7 NonCon=     1 RMS=1.41D-07 Max=9.43D-07 NDo=     1
 LinEq1:  Iter=  8 NonCon=     1 RMS=1.63D-08 Max=1.12D-07 NDo=     1
 LinEq1:  Iter=  9 NonCon=     1 RMS=2.72D-09 Max=1.62D-08 NDo=     1
 LinEq1:  Iter= 10 NonCon=     1 RMS=5.33D-10 Max=3.41D-09 NDo=     1
 LinEq1:  Iter= 11 NonCon=     0 RMS=7.52D-11 Max=4.45D-10 NDo=     1
 Linear equations converged to 1.000D-10 1.000D-09 after    11 iterations.
 End of Minotr F.D. properties file   721 does not exist.
 End of Minotr F.D. properties file   722 does not exist.
 End of Minotr F.D. properties file   788 does not exist.
 Calling FoFJK, ICntrl=  10002127 FMM=F ISym2X=1 I1Cent= 0 IOpClX= 0 NMat=1 NMatS=1 NMatT=0.
 ***** Axes restored to original set *****
 -------------------------------------------------------------------
 Center     Atomic                   Forces (Hartrees/Bohr)
 Number     Number              X              Y              Z
 -------------------------------------------------------------------
      1        8          -0.000165075    0.000000000   -0.000532190
      2        1           0.000045316    0.000000000   -0.000130435
      3        1           0.000162785   -0.000000000    0.000656065
      4        7           0.000750289    0.000000000    0.000083052
      5        1           0.000038002    0.000000000   -0.000196293
      6        1          -0.000415659    0.000015064    0.000059900
      7        1          -0.000415659   -0.000015064    0.000059900
 -------------------------------------------------------------------
 Cartesian Forces:  Max     0.000750289 RMS     0.000288629
 -----------------------------------------------------------------------------------------------
                       Internal Coordinate Forces (Hartree/Bohr or radian)
  Cent   Atom   N1       Length/X         N2         Alpha/Y        N3         Beta/Z          J
 -----------------------------------------------------------------------------------------------
      1  O 
      2  H        1  -0.000130(     1)
      3  H        1  -0.000048(     2)      2  -0.000083(     8)
         X        3   0.000000(     3)      1  -0.001160(     9)      2   0.000000(    14)     0
      4  N        3  -0.000043(     4)      4  -0.001160(    10)      1   0.000000(    15)     0
      5  H        5  -0.000126(     5)      3   0.000300(    11)      4  -0.000000(    16)     0
      6  H        5  -0.000116(     6)      3  -0.000775(    12)      4  -0.000077(    17)     0
      7  H        5  -0.000116(     7)      3  -0.000775(    13)      4   0.000077(    18)     0
[...]
 0141370,-0.00098916,0.00092067,0.08196495,0.17750422,-0.18608466,0.004
 57524,0.00053049,0.01041070,-0.09779628,-0.17196762,-0.00129237,0.0000
 2986,0.00045776,-0.00012647,0.00003145,-0.00007815,0.00177143,-0.00026
 182,-0.00048098,-0.04032538,-0.21717255,0.15755328,-0.01426408,0.00775
 050,-0.00119492,0.04080349,0.19244702,-0.14164926,0.00138932,0.0003561
 1,0.00006301,-0.00008538,0.00013868,-0.00003017,-0.00109061,-0.0013758
 4,-0.00044087,-0.04164855,-0.12916877,-0.07377501,-0.01747107,0.020299
 40,0.01994619,0.00220029,0.01195414,0.01343337,0.05670601,-0.00057487,
 0.00044653,0.00059162,-0.00014079,0.00004216,-0.00007342,0.00141370,-0
 .00098916,-0.00092067,-0.08196494,0.17750421,0.18608466,-0.00457524,0.
 00053049,-0.01041070,-0.01195414,-0.00556662,0.01717553,0.09779628,-0.
 17196761,-0.00129237,-0.00002986,0.00045776,-0.00012647,-0.00003145,-0
 .00007815,0.00177143,0.00026182,-0.00048098,-0.04032537,0.21717255,0.1
 5755328,-0.01426408,-0.00775050,-0.00119492,0.01343337,-0.01717553,-0.
 01460774,0.04080349,-0.19244703,-0.14164926,-0.17010450,0.,0.00439355,
 -0.01441279,0.,-0.12110353,-0.00500723,0.,0.05104203,0.01693894,0.,-0.
 00037438,0.,0.,-0.00028687,0.01653967,0.,0.13445506,-0.03168795,0.,-0.
 12545045,0.17677953,0.,-0.03905822,-0.01159317,0.,0.01602970,-0.168938
 93,0.,-0.00376056,0.,0.,0.00061330,0.,0.,0.00286481,-0.00275234,0.,-0.
 01326933,-0.01930114,0.,-0.00930767,0.02290046,0.,0.02360309,-0.001964
 24,0.,0.00227361,-0.00022775,0.,-0.00077933,0.00427048,0.,-0.00129459,
 -0.02247656,0.,-0.00049573,0.,0.,-0.00005059,0.,0.,0.00089229,0.,0.,-0
 .42438085,0.00023784,0.,0.00047357,-0.00007171,0.,0.00007143,0.0003309
 9,0.,-0.00132301,0.01322124,0.00000003,-0.25690961,-0.00007780,0.,0.00
 043211,-0.00006707,0.,-0.00001965,0.00025584,0.,-0.00037081,0.03999270
 ,0.,0.02453367,-0.03341441,0.,-0.00004315,0.,0.,0.00003374,0.,0.,0.000
 07472,0.,0.,0.03132966,0.,0.,-0.00813748,0.00013737,0.,-0.00053170,0.0
 0001549,0.,0.00008926,-0.00041650,0.,0.00042592,0.00704301,0.,-0.00036
 913,-0.01352837,0.,-0.01674712,0.00018712,-0.00010196,-0.00013837,-0.0
 0002186,-0.00005746,-0.00004122,-0.00038688,0.00032397,0.00040921,-0.0
 0979731,0.01127444,-0.01912602,-0.00334463,-0.00325421,0.00337450,0.00
 998384,-0.00003966,0.00014014,-0.00014150,0.00000467,0.00003240,-0.000
 00500,0.00003580,-0.00034228,0.00073445,-0.00066312,0.19635263,-0.1624
 3459,0.00808048,-0.01162874,0.00635466,-0.00780147,-0.17408542,0.00012
 512,-0.00020644,-0.00001203,0.00000165,-0.00000602,0.00007118,0.000106
 78,0.00075737,-0.00006450,-0.01023197,-0.21764341,0.12902838,-0.005523
 48,-0.00476475,0.00856638,0.02016675,0.18867762,-0.12363450,0.00018712
 ,0.00010196,-0.00013837,-0.00002186,0.00005746,-0.00004122,-0.00038688
 ,-0.00032397,0.00040921,-0.00979731,-0.01127444,-0.01912602,-0.0033446
 3,0.00325421,0.00337450,0.00337972,0.00038331,-0.00464485,0.00998384,0
 .00003966,0.00014014,0.00014150,-0.00000467,0.00003240,0.00000500,-0.0
 0003580,-0.00034228,-0.00073445,0.00066313,0.19635258,0.16243456,-0.00
 808048,-0.01162874,-0.00635465,-0.00038331,-0.01046873,0.03318563,0.00
 780147,-0.17408537,0.00012512,0.00020644,-0.00001203,0.00000165,0.0000
 0602,0.00007118,0.00010679,-0.00075737,-0.00006450,-0.01023197,0.21764
 338,0.12902836,-0.00552348,0.00476475,0.00856638,-0.00464485,-0.033185
 63,-0.01395492,0.02016675,-0.18867759,-0.12363448,-0.00118971,0.,-0.00
 011247,0.00041847,0.,-0.00020540,0.00016969,0.,-0.00008265,-0.00008885
 ,0.,-0.00004659,0.,0.,-0.00002194,-0.00008555,0.,-0.00013569,0.0000261
 8,0.,-0.00002748,0.00119057,0.,-0.00028596,-0.00006296,0.,0.00005925,-
 0.00166737,0.,0.00020446,0.,0.,0.00014822,0.,0.,-0.00039327,-0.0007291
 7,0.,0.00054558,-0.00001708,0.,0.00022335,0.00073161,0.,-0.00069816,-0
 .00031641,0.,-0.00012877,0.00022114,0.,0.00000261,0.00065507,0.,-0.000
 13885,-0.38604468,0.,0.00066159,0.,0.,-0.00026535,0.,0.,-0.00088595,0.
 ,0.,-0.23538288,0.00102984,0.,-0.00083014,0.00048784,0.,-0.00010662,-0
 .00161719,0.,0.00103584,-0.24741785,0.,-0.30229522,0.00030934,0.,0.000
 26422,-0.00022956,0.,0.00010628,-0.00077355,0.,-0.00061950,0.39041331,
 0.,0.31586014,-0.38924267,0.,-0.00060096,0.,0.,0.00013322,0.,0.,0.0008
 8616,0.,0.,-0.06462962,0.,0.,0.07142129,-0.00030370,0.,0.00058802,-0.0
 0034397,0.,0.00006669,0.00039968,0.,-0.00092355,0.25351586,0.,0.190485
 10,-0.26822039,0.,-0.15638100,-0.00008174,-0.00012904,-0.00009265,-0.0
 0000473,0.00000217,-0.00005438,0.00032912,0.00041640,0.00038650,-0.002
 46422,0.05906571,-0.03417139,-0.00023844,-0.03534428,0.00747626,0.0032
 2174,0.00004726,-0.00005301,-0.00011978,-0.00003377,0.00002622,-0.0000
 5908,-0.00023504,0.00002018,0.00059635,0.01423421,0.15025110,-0.095871
 29,0.01163472,-0.00360504,0.01735647,-0.02482917,-0.14911745,-0.000164
 95,-0.00007199,0.00001881,-0.00003516,-0.00000532,-0.00001013,0.000356
 30,0.00036332,-0.00009153,-0.00291650,-0.06263635,0.05585552,-0.023695
 37,-0.01838150,-0.01691763,0.02903554,0.07941458,-0.03568293,-0.000081
 74,0.00012904,-0.00009265,-0.00000473,-0.00000217,-0.00005438,0.000329
 12,-0.00041640,0.00038650,-0.00246422,-0.05906571,-0.03417139,-0.00023
 844,0.03534428,0.00747626,-0.00076174,-0.00081821,-0.00257987,0.003221
 75,-0.00004726,-0.00005301,0.00011978,0.00003377,0.00002622,0.00005908
 ,0.00023505,0.00002018,-0.00059635,-0.01423421,0.15025110,0.09587130,-
 0.01163472,-0.00360504,-0.01735647,0.00081821,0.00247800,0.00131725,0.
 02482917,-0.14911745,-0.00016495,0.00007199,0.00001881,-0.00003516,0.0
 0000532,-0.00001013,0.00035630,-0.00036332,-0.00009153,-0.00291650,0.0
 6263636,0.05585552,-0.02369537,0.01838150,-0.01691763,-0.00257987,-0.0
 0131725,-0.00317211,0.02903554,-0.07941458,-0.03568294,-0.54739659,0.,
 0.01517745,-0.04363221,0.,-0.36306943,-0.01277359,0.,0.15888929,0.0508
 0884,0.,-0.00026411,0.,0.,-0.00198041,0.05120003,0.,0.41188572,-0.0988
 0581,0.,-0.38409022,0.56358218,0.,-0.12219358,-0.03700376,0.,0.0501747
 3,-0.53206445,0.,-0.01424083,0.,0.,0.00189715,0.,0.,0.01117299,-0.0099
 1960,0.,-0.04916625,-0.05965680,0.,-0.02893622,0.07113255,0.,0.0767520
 5,-0.00418626,0.,0.00646089,-0.00071190,0.,-0.00156708,0.00607031,0.,-
 0.00200332,-0.02071959,0.,-0.00072454,0.,0.,0.00041356,0.,0.,0.0015220
 7,0.,0.,-0.13006315,0.00212630,0.,0.00111186,-0.00030116,0.,0.00072998
 ,0.00164003,0.,0.00084554,-0.00277645,0.,-0.08158671,-0.00013390,0.,0.
 00102045,-0.00031546,0.,-0.00046489,0.00119297,0.,0.00096480,0.0199524
 3,0.,0.01137020,-0.01770444,0.,-0.00000184,0.,0.,0.00007634,0.,0.,-0.0
 0015703,0.,0.,0.00941585,0.,0.,-0.00212664,0.00022981,0.,-0.00150499,0
 .00024169,0.,0.00025505,-0.00211322,0.,0.00073271,0.00896292,0.,0.0014
 3357,-0.00946719,0.,-0.00730180,0.00045409,-0.00018030,-0.00027242,-0.
 00000206,-0.00000375,-0.00026850,-0.00088863,0.00036075,-0.00025881,-0
 .00020249,0.00500366,-0.00602946,-0.00149580,-0.00094889,0.00107300,0.
 00087230,0.00003852,0.00002694,-0.00009086,-0.00000398,-0.00007126,0.0
 0005304,-0.00047769,-0.00009717,0.00026500,0.00136642,0.05971810,-0.04
 801060,0.00267465,-0.00360333,0.00190287,-0.00391469,-0.05282417,-0.00
 000216,-0.00006173,0.00037155,-0.00018361,0.00009555,0.00007784,0.0006
 7975,-0.00044450,-0.00011392,-0.00453848,-0.06536190,0.03873288,-0.001
 71168,-0.00155546,0.00319273,0.00677276,0.05660430,-0.03822965,0.00045
 409,0.00018030,-0.00027242,-0.00000206,0.00000375,-0.00026850,-0.00088
 863,-0.00036075,-0.00025881,-0.00020249,-0.00500366,-0.00602946,-0.001
 49580,0.00094889,0.00107300,0.00126259,0.00031677,-0.00101657,0.000872
 29,-0.00003852,0.00002694,0.00009086,0.00000398,-0.00007126,-0.0000530
 4,0.00047769,-0.00009717,-0.00026500,-0.00136643,0.05971812,0.04801060
 ,-0.00267465,-0.00360333,-0.00190287,-0.00031677,-0.00314910,0.0107237
 5,0.00391470,-0.05282420,-0.00000216,0.00006173,0.00037155,-0.00018361
 ,-0.00009555,0.00007784,0.00067975,0.00044450,-0.00011392,-0.00453848,
 0.06536190,0.03873289,-0.00171168,0.00155546,0.00319273,-0.00101657,-0
 .01072374,-0.00403144,0.00677276,-0.05660431,-0.03822966,0.01603948,0.
 ,-0.00342318,-0.00499897,0.,-0.00132631,0.00003964,0.,-0.00026906,0.00
 014883,0.,0.00024097,0.,0.,-0.00018878,0.00021523,0.,-0.00040009,-0.00
 012072,0.,0.00036177,-0.01667184,0.,0.00564788,-0.00036290,0.,-0.00003
 864,0.01760364,0.,0.00339164,0.,0.,-0.00012194,0.,0.,-0.00342122,0.005
 16689,0.,0.00189683,0.00036650,0.,0.00016777,-0.00584632,0.,-0.0024865
 4,0.00122541,0.,-0.00063856,0.00017535,0.,-0.00001598,-0.00204124,0.,0
 .00058323,0.35602554,0.,-0.00003837,0.,0.,0.00041760,0.,0.,-0.00166687
 ,0.,0.,1.56952500,-0.00071312,0.,0.00019947,-0.00024107,0.,-0.00024334
 ,0.00114662,0.,-0.00073245,0.70867835,0.,1.06460950,-0.00050115,0.,0.0
 0033555,-0.00004881,0.,-0.00014354,0.00123428,0.,-0.00043602,-0.941896
 74,0.,-0.87993428,0.92079888,0.,0.00006131,0.,0.,-0.00006027,0.,0.,0.0
 0008550,0.,0.,0.27238972,0.,0.,-0.28879869,-0.00034551,0.,0.00002937,0
 .00001762,0.,-0.00011169,0.00100096,0.,0.00032057,-0.83582466,0.,-0.29
 993122,0.87722798,0.,0.30423215,-0.00006576,0.00014233,-0.00003842,0.0
 0002394,0.00001395,0.00005182,0.00011903,-0.00034939,0.00008286,0.2932
 5583,-0.13221713,0.08553175,0.01020677,0.02565910,-0.02103819,-0.31619
 966,-0.00047682,-0.00011618,0.00023485,-0.00013614,-0.00014379,-0.0001
 9352,0.00137531,0.00086644,-0.00061304,-0.10063797,-0.92031355,0.89095
 423,-0.00617344,0.00816121,-0.00350758,0.10640010,0.92665113,0.0003377
 4,0.00003392,-0.00019963,0.00012337,0.00003441,0.00011279,-0.00095525,
 -0.00030852,0.00041691,0.06360881,0.91313525,-0.38195099,0.00147516,0.
 02237262,-0.00226959,-0.06321574,-0.91107131,0.36496893,-0.00006576,-0
 .00014233,-0.00003842,0.00002394,-0.00001395,0.00005182,0.00011903,0.0
 0034939,0.00008286,0.29325583,0.13221713,0.08553175,0.01020677,-0.0256
 5910,-0.02103819,0.01265984,-0.00035104,-0.00137408,-0.31619966,0.0004
 7682,-0.00011618,-0.00023485,0.00013614,-0.00014379,0.00019352,-0.0013
 7531,0.00086644,0.00061304,0.10063797,-0.92031354,-0.89095423,0.006173
 44,0.00816121,0.00350759,0.00035104,-0.01510526,-0.02419637,-0.1064001
 0,0.92665112,0.00033774,-0.00003392,-0.00019963,0.00012337,-0.00003441
 ,0.00011279,-0.00095525,0.00030852,0.00041691,0.06360881,-0.91313524,-
 0.38195098,0.00147516,-0.02237262,-0.00226959,-0.00137408,0.02419637,0
 .01892158,-0.06321574,0.91107130,0.36496892,5.60025774,0.,-1.26925527,
 -1.73440915,0.,-0.53551498,0.02141411,0.,-0.00210774,-0.04334637,0.,0.
 03026995,0.,0.,-0.05256789,0.05349961,0.,-0.22189292,-0.05105037,0.,0.
 26771469,-5.61000409,0.,1.72747828,0.02517124,0.,-0.00101206,5.5483554
 2,0.,1.23702951,0.,0.,0.02195581,0.,0.,-1.23834485,1.67552559,0.,0.760
 20551,0.05146608,0.,-0.04625065,-1.70138828,0.,-0.70533630,-0.00824036
 ,0.,0.00762637,-0.00290959,0.,-0.00132015,0.02654166,0.,-0.02273353,0.
 01030233,0.,0.00214021,0.,0.,0.00039545,0.,0.,-0.02142159,0.,0.,0.0245
 7809,0.00350297,0.,-0.00158945,0.00120627,0.,0.00046163,-0.01903977,0.
 ,-0.01273835,0.00747816,-0.00000002,0.02937960,-0.00047796,0.,0.000299
 86,-0.00010656,0.,-0.00016287,0.00002117,0.,-0.00428224,-0.00812669,0.
 ,0.00524303,0.00658689,0.,0.00001000,0.,0.,-0.00002656,0.,0.,-0.001139
 74,0.,0.,0.00269789,0.,0.,-0.00271924,0.00248472,0.,-0.00084332,0.0003
 1690,0.,0.00003333,-0.00457982,0.,0.00676159,-0.00142467,0.,-0.0125911
 6,0.00132404,0.,0.00614942,-0.00147472,0.00015155,0.00055619,-0.000111
 42,0.00003296,0.00002292,0.00495730,-0.00502470,0.00070619,-0.00878368
 ,0.00749339,0.00080467,0.00105157,-0.00033235,0.00093941,0.00407520,0.
 00117324,-0.00009720,-0.00037132,0.00011035,-0.00001338,-0.00004802,-0
 .00322198,0.00096042,0.00025423,0.00146289,-0.00419504,0.00344183,0.00
 087755,0.00058882,-0.00068731,-0.00136146,0.00246473,-0.00030186,-0.00
 001028,-0.00018241,0.00008442,-0.00000772,-0.00003303,-0.00072918,0.00
 181313,-0.00132089,0.00518691,-0.00059674,-0.00146114,-0.00121090,0.00
 031960,0.00024507,-0.00254625,-0.00205371,0.00160357,-0.00147472,-0.00
 015155,0.00055619,-0.00011142,-0.00003296,0.00002292,0.00495729,0.0050
 2470,0.00070619,-0.00878368,-0.00749340,0.00080467,0.00105157,0.000332
 34,0.00093941,0.00028576,0.00095940,-0.00048313,0.00407520,-0.00117324
 ,-0.00009720,0.00037132,-0.00011035,-0.00001338,0.00004802,0.00322198,
 0.00096042,-0.00025423,-0.00146290,-0.00419501,-0.00344181,-0.00087755
 ,0.00058882,0.00068731,-0.00095940,0.00029165,0.00053571,0.00136146,0.
 00246469,-0.00030186,0.00001028,-0.00018241,0.00008442,0.00000772,-0.0
 0003303,-0.00072918,-0.00181313,-0.00132089,0.00518691,0.00059676,-0.0
 0146113,-0.00121090,-0.00031961,0.00024507,-0.00048313,-0.00053571,0.0
 0114883,-0.00254625,0.00205369,0.00160356,0.00054095,0.,0.00017691,-0.
 00020734,0.,0.00014217,-0.00002996,0.,0.00012849,0.00006009,0.,-0.0000
 3390,0.,0.,0.00001060,0.00006673,0.,-0.00001862,-0.00004827,0.,0.00005
 037,-0.00056343,0.,-0.00012109,-0.00002615,0.,-0.00002833,0.00085779,0
 .,-0.00025872,0.,0.,-0.00008391,0.,0.,0.00082223,-0.00011996,0.,0.0000
 2218,-0.00014675,0.,-0.00000392,0.00059190,0.,-0.00006086,0.00059432,0
 .,0.00071719,-0.00021740,0.,-0.00019624,0.00017787,0.,-0.00174059,-1.0
 6283153,0.,0.00129258,0.,0.,0.00064042,0.,0.,-0.00462437,0.,0.,2.81816
 089,0.00013590,0.,0.00041964,-0.00008717,0.,-0.00020791,0.00062867,0.,
 -0.00177016,-0.31242488,0.00000004,1.28293615,0.00026907,0.,-0.0002936
 1,0.00008816,0.,0.00000690,-0.00040114,0.,0.00026608,0.01296800,0.,0.0
 0441725,-0.00349505,0.,-0.00018503,0.,0.,-0.00005763,0.,0.,0.00045310,
 0.,0.,-0.01917854,0.,0.,-0.00151052,-0.00025138,0.,-0.00000277,-0.0000
 2277,0.,-0.00003485,0.00041667,0.,0.00016067,0.03072916,0.,-0.01237187
 ,0.00123465,0.,0.00884628,-0.00040547,0.00026103,-0.00011182,0.0000626
 3,0.00015796,0.00009961,-0.00002247,-0.00096766,0.00057466,0.52465437,
 -0.20496975,0.15366511,-0.00471452,0.00975439,-0.01605316,-0.51556269,
 0.00024876,-0.00049592,0.00009449,-0.00018119,-0.00023779,-0.00018313,
 0.00045887,0.00184584,-0.00028523,-0.18823220,-1.39814547,1.49773455,-
 0.00344722,0.01023931,-0.00451924,0.19345850,1.37713552,0.00018803,0.0
 0050774,-0.00028130,0.00008824,-0.00001545,0.00010746,-0.00074391,-0.0
 0106090,0.00082604,0.14145768,1.50663123,-0.63450290,-0.00281563,-0.00
 067495,0.00170127,-0.13682581,-1.49911455,0.63525355,-0.00040547,-0.00
 026103,-0.00011182,0.00006263,-0.00015796,0.00009961,-0.00002247,0.000
 96766,0.00057466,0.52465437,0.20496975,0.15366511,-0.00471452,-0.00975
 439,-0.01605316,-0.00401186,-0.00230553,-0.00134860,-0.51556268,-0.000
 24876,-0.00049592,-0.00009449,0.00018119,-0.00023779,0.00018313,-0.000
 45887,0.00184584,0.00028523,0.18823220,-1.39814552,-1.49773459,0.00344
 722,0.01023931,0.00451924,0.00230553,0.00965852,-0.00627311,-0.1934585
 1,1.37713557,0.00018803,-0.00050774,-0.00028130,0.00008824,0.00001545,
 0.00010746,-0.00074391,0.00106090,0.00082604,0.14145768,-1.50663127,-0
 .63450293,-0.00281563,0.00067495,0.00170127,-0.00134860,0.00627311,-0.
 00310412,-0.13682581,1.49911459,0.63525358,0.00104980,0.,0.00044330,-0
 .00010745,0.,-0.00001342,-0.00005492,0.,0.00001746,-0.00007922,0.,-0.0
 0004539,0.,0.,0.00004587,0.00006520,0.,0.00009473,-0.00002665,0.,-0.00
 003553,-0.00078343,0.,0.00011341,0.00007465,0.,0.00003152,0.00078922,0
 .,-0.00056380,0.,0.,0.00003725,0.,0.,0.00089517,0.00007323,0.,-0.00031
 787,0.00014633,0.,0.00001285,-0.00026538,0.,0.00060139,0.00034610,0.,0
 .00046986,-0.00028628,0.,-0.00000907,-0.00086867,0.,-0.00087924,1.8864
 3146,0.,0.00036483,0.,0.,0.00016173,0.,0.,-0.00196569,0.,0.,0.27393394
 ,-0.00014187,0.,0.00123716,-0.00071496,0.,0.00008104,-0.00112572,0.,-0
 .00237330,1.85274478,-0.00000001,0.88041019,-0.00056258,0.,-0.00037883
 ,0.00021582,0.,-0.00015418,0.00086608,0.,0.00094885,-2.18573663,0.,-1.
 97585238,2.16429255,0.,0.00039207,0.,0.,-0.00008909,0.,0.,-0.00012854,
 0.,0.,0.72593694,0.,0.,-0.71172263,0.00050354,0.,-0.00091084,0.0003454
 1,0.,-0.00015247,0.00070212,0.,0.00189491,-1.95359835,0.,-0.57294508,1
 .94748313,0.,0.56914454,0.00000252,0.00000584,-0.00005722,0.00006497,-
 0.00002175,0.00004659,-0.00003893,0.00002440,-0.00001189,0.15005701,-0
 .09431245,0.06254508,0.01046238,0.00237021,0.00228208,-0.16921089,0.00
 003819,-0.00029549,0.00027653,-0.00009071,-0.00005519,-0.00008126,0.00
 037634,0.00086281,-0.00066044,-0.07724393,-0.49921589,0.45299218,-0.00
 641993,-0.00719437,0.00073308,0.08763690,0.51334433,-0.00019632,-0.000
 03575,-0.00004486,0.00011621,0.00001332,-0.00000031,0.00027202,0.00007
 941,0.00009101,0.05063601,0.46602689,-0.15320501,0.01397671,0.00552971
 ,0.00148447,-0.06487758,-0.46243683,0.14378266,0.00000252,-0.00000584,
 -0.00005722,0.00006497,0.00002175,0.00004659,-0.00003893,-0.00002440,-
 0.00001189,0.15005701,0.09431244,0.06254507,0.01046238,-0.00237021,0.0
 0228208,0.00866294,-0.00429686,0.00007294,-0.16921089,-0.00003818,-0.0
 0029549,-0.00027653,0.00009071,-0.00005519,0.00008126,-0.00037634,0.00
 086281,0.00066044,0.07724392,-0.49921586,-0.45299217,0.00641993,-0.007
 19437,-0.00073308,0.00429686,-0.00744621,-0.00917674,-0.08763689,0.513
 34430,-0.00019632,0.00003575,-0.00004486,0.00011621,-0.00001332,-0.000
 00031,0.00027202,-0.00007941,0.00009101,0.05063601,-0.46602688,-0.1532
 0500,0.01397671,-0.00552971,0.00148447,0.00007294,0.00917674,0.0078920
 4,-0.06487757,0.46243682,0.14378265,-1.12089867,0.,-1.47830811,0.06686
 608,0.,6.64229755,1.37054256,0.,-0.13084363,-1.34803412,0.,1.42390104,
 0.,0.,-1.43189420,-0.10894803,0.,-6.67116683,0.10032003,0.,6.64615636,
 -0.24956034,0.,0.06190051,-0.02107064,0.,0.01125723,0.26756039,0.,0.05
 392873,0.,0.,0.00803997,0.,0.,-0.06008281,0.04043313,0.,0.02902604,0.0
 3118155,0.,0.02503800,-0.07095215,0.,-0.05346131,0.00042311,0.,0.00194
 679,-0.00164918,0.,-0.00190925,0.00218215,0.,-0.00121884,0.00055878,0.
 ,0.00061795,0.,0.,-0.00016097,0.,0.,-0.00191877,0.,0.,0.00119572,0.001
 42331,0.,-0.00003939,-0.00048083,0.,-0.00012752,-0.00195236,0.,-0.0007
 9077,0.00019111,0.,0.00146498,0.00011724,0.,0.00017342,-0.00022154,0.,
 -0.00047201,0.00009403,0.,0.00001023,-0.00022967,0.,0.00068735,0.00012
 425,0.,-0.00002419,0.,0.,0.00005343,0.,0.,-0.00013684,0.,0.,0.00010979
 ,0.,0.,0.00001094,0.00004748,0.,-0.00011057,0.00002157,0.,0.00028817,-
 0.00018031,0.,0.00020959,0.00015694,0.,-0.00059050,-0.00016507,0.,0.00
 035864,-0.00031195,0.00016947,-0.00002158,0.00021646,-0.00022013,-0.00
 012398,0.00039721,-0.00020852,0.00027304,-0.00064260,0.00048342,0.0000
 6571,0.00005785,0.00001147,0.00005969,0.00030088,0.00021890,-0.0000577
 1,-0.00001449,-0.00010298,0.00003036,-0.00005052,-0.00016855,0.0000848
 6,0.00004566,0.00004386,0.00007814,0.00001393,0.00008639,-0.00000657,-
 0.00003829,-0.00015667,-0.00007024,0.00008902,-0.00005420,-0.00000340,
 -0.00009935,0.00007817,-0.00009408,-0.00003646,0.00010010,-0.00001078,
 0.00041663,-0.00026742,0.00004160,-0.00011696,0.00007979,-0.00007766,-
 0.00017946,0.00005363,0.00005820,-0.00031195,-0.00016947,-0.00002158,0
 .00021646,0.00022013,-0.00012398,0.00039721,0.00020852,0.00027304,-0.0
 0064260,-0.00048342,0.00006571,0.00005785,-0.00001147,0.00005969,-0.00
 001786,0.00007905,-0.00007342,0.00030088,-0.00021890,-0.00005771,0.000
 01449,0.00010298,0.00003036,0.00005052,0.00016855,0.00008486,-0.000045
 66,-0.00004386,0.00007814,-0.00001393,-0.00008639,-0.00000657,0.000038
 29,-0.00007905,-0.00005885,0.00000993,0.00015667,-0.00007025,0.0000890
 2,0.00005420,-0.00000340,-0.00009935,-0.00007817,-0.00009408,-0.000036
 46,-0.00010010,-0.00001078,0.00041663,0.00026742,0.00004160,-0.0001169
 6,-0.00007979,-0.00007766,-0.00007342,-0.00000993,0.00008611,-0.000179
 46,-0.00005363,0.00005820\\@


 WE HAVE LEFT UNDONE THOSE THINGS WHICH WE OUGHT TO HAVE DONE,
 AND WE HAVE DONE THOSE THINGS WHICH WE OUGHT NOT TO HAVE DONE.
                   BOOK OF COMMON PRAYER                      
 Job cpu time:       0 days  5 hours 22 minutes  0.2 seconds.
 Elapsed time:       0 days  0 hours 11 minutes 57.6 seconds.
 File lengths (MBytes):  RWF=    456 Int=      0 D2E=      0 Chk=     44 Scr=      8
 Normal termination of Gaussian 16 at Mon Sep 28 16:03:31 2020.
