 Entering Gaussian System, Link 0=g16
 Input=h2o_nme3_mp2_avtz_opt_anharm.gjf
 Output=h2o_nme3_mp2_avtz_opt_anharm.log
 Initial command:
 /sw/contrib/chem-src/g16/c01/g16/l1.exe "/scr/Gau-79103.inp" -scrdir="/scr/"
 Entering Link 1 = /sw/contrib/chem-src/g16/c01/g16/l1.exe PID=     79104.
  
 Copyright (c) 1988-2019, Gaussian, Inc.  All Rights Reserved.
  
 This is part of the Gaussian(R) 16 program.  It is based on
 the Gaussian(R) 09 system (copyright 2009, Gaussian, Inc.),
 the Gaussian(R) 03 system (copyright 2003, Gaussian, Inc.),
 the Gaussian(R) 98 system (copyright 1998, Gaussian, Inc.),
 the Gaussian(R) 94 system (copyright 1995, Gaussian, Inc.),
 the Gaussian 92(TM) system (copyright 1992, Gaussian, Inc.),
 the Gaussian 90(TM) system (copyright 1990, Gaussian, Inc.),
 the Gaussian 88(TM) system (copyright 1988, Gaussian, Inc.),
 the Gaussian 86(TM) system (copyright 1986, Carnegie Mellon
 University), and the Gaussian 82(TM) system (copyright 1983,
 Carnegie Mellon University). Gaussian is a federally registered
 trademark of Gaussian, Inc.
  
 This software contains proprietary and confidential information,
 including trade secrets, belonging to Gaussian, Inc.
  
 This software is provided under written license and may be
 used, copied, transmitted, or stored only in accord with that
 written license.
  
 The following legend is applicable only to US Government
 contracts under FAR:
  
                    RESTRICTED RIGHTS LEGEND
  
 Use, reproduction and disclosure by the US Government is
 subject to restrictions as set forth in subparagraphs (a)
 and (c) of the Commercial Computer Software - Restricted
 Rights clause in FAR 52.227-19.
  
 Gaussian, Inc.
 340 Quinnipiac St., Bldg. 40, Wallingford CT 06492
  
  
 ---------------------------------------------------------------
 Warning -- This program may not be used in any manner that
 competes with the business of Gaussian, Inc. or will provide
 assistance to any competitor of Gaussian, Inc.  The licensee
 of this program is prohibited from giving any competitor of
 Gaussian, Inc. access to this program.  By using this program,
 the user acknowledges that Gaussian, Inc. is engaged in the
 business of creating and licensing software in the field of
 computational chemistry and represents and warrants to the
 licensee that it is not a competitor of Gaussian, Inc. and that
 it will not use this program in any manner prohibited above.
 ---------------------------------------------------------------
  

 Cite this work as:
 Gaussian 16, Revision C.01,
 M. J. Frisch, G. W. Trucks, H. B. Schlegel, G. E. Scuseria, 
 M. A. Robb, J. R. Cheeseman, G. Scalmani, V. Barone, 
 G. A. Petersson, H. Nakatsuji, X. Li, M. Caricato, A. V. Marenich, 
 J. Bloino, B. G. Janesko, R. Gomperts, B. Mennucci, H. P. Hratchian, 
 J. V. Ortiz, A. F. Izmaylov, J. L. Sonnenberg, D. Williams-Young, 
 F. Ding, F. Lipparini, F. Egidi, J. Goings, B. Peng, A. Petrone, 
 T. Henderson, D. Ranasinghe, V. G. Zakrzewski, J. Gao, N. Rega, 
 G. Zheng, W. Liang, M. Hada, M. Ehara, K. Toyota, R. Fukuda, 
 J. Hasegawa, M. Ishida, T. Nakajima, Y. Honda, O. Kitao, H. Nakai, 
 T. Vreven, K. Throssell, J. A. Montgomery, Jr., J. E. Peralta, 
 F. Ogliaro, M. J. Bearpark, J. J. Heyd, E. N. Brothers, K. N. Kudin, 
 V. N. Staroverov, T. A. Keith, R. Kobayashi, J. Normand, 
 K. Raghavachari, A. P. Rendell, J. C. Burant, S. S. Iyengar, 
 J. Tomasi, M. Cossi, J. M. Millam, M. Klene, C. Adamo, R. Cammi, 
 J. W. Ochterski, R. L. Martin, K. Morokuma, O. Farkas, 
 J. B. Foresman, and D. J. Fox, Gaussian, Inc., Wallingford CT, 2019.
 
 ******************************************
 Gaussian 16:  EM64L-G16RevC.01  3-Jul-2019
                29-Mar-2025 
 ******************************************
 %nprocshared=40
 Will use up to   40 processors via shared memory.
 %mem=50gb
 --------------------------------------------------------------------
 # MP2/aug-cc-pVTZ opt freq=(vibrot,anharmonic,selectAnharmonicModes)
 --------------------------------------------------------------------
 1/18=20,19=15,38=1,80=1/1,3;
 2/9=110,12=2,17=6,18=5,40=1/2;
 3/5=16,6=1,7=10,11=9,25=1,30=1,71=1/1,2,3;
 4//1;
 5/5=2,38=5/2;
 8/6=4,10=1/1;
 9/15=2,16=-3/6;
 10/5=1/2;
 6/7=2,8=2,9=2,10=2/1;
 7/12=2/1,2,3,16;
 1/18=20,19=15,80=1/3(2);
 2/9=110/2;
 99//99;
 2/9=110/2;
 3/5=16,6=1,7=10,11=9,25=1,30=1,71=1/1,2,3;
 4/5=5,16=3,69=1/1;
 5/5=2,38=5/2;
 8/6=4,10=1/1;
 9/15=2,16=-3/6;
 10/5=1/2;
 7/12=2/1,2,3,16;
 1/18=20,19=15,80=1/3(-8);
 2/9=110/2;
 6/7=2,8=2,9=2,10=2/1;
 99/9=10/99;
 ----
 blah
 ----
 Symbolic Z-matrix:
 Charge =  0 Multiplicity = 1
 O                    -2.49129   0.00004   0.13107 
 H                    -2.85562   0.00122   1.01991 
 H                    -1.51628   0.00025   0.25541 
 N                     0.3294    0.00005   0.04929 
 C                     0.97588   1.19616   0.57043 
 C                     0.38065  -0.00234  -1.40801 
 C                     0.97648  -1.19404   0.57431 
 H                     2.03439   1.24817   0.27477 
 H                     0.91978   1.19873   1.65826 
 H                     0.46477   2.08028   0.19212 
 H                     1.417    -0.00264  -1.77634 
 H                    -0.12966   0.88028  -1.79043 
 H                    -0.12914  -0.88651  -1.78752 
 H                     2.0349   -1.2467    0.27842 
 H                     0.92082  -1.19285   1.66217 
 H                     0.46553  -2.07964   0.19927 
 
 Add virtual bond connecting atoms N4         and H3         Dist= 3.51D+00.

 GradGradGradGradGradGradGradGradGradGradGradGradGradGradGradGradGradGrad
 Berny optimization.
 Initialization pass.
                           ----------------------------
                           !    Initial Parameters    !
                           ! (Angstroms and Degrees)  !
 --------------------------                            --------------------------
 ! Name  Definition              Value          Derivative Info.                !
 --------------------------------------------------------------------------------
 ! R1    R(1,2)                  0.9606         estimate D2E/DX2                !
 ! R2    R(1,3)                  0.9829         estimate D2E/DX2                !
 ! R3    R(3,4)                  1.8572         estimate D2E/DX2                !
 ! R4    R(4,5)                  1.4561         estimate D2E/DX2                !
 ! R5    R(4,6)                  1.4582         estimate D2E/DX2                !
 ! R6    R(4,7)                  1.4561         estimate D2E/DX2                !
 ! R7    R(5,8)                  1.1003         estimate D2E/DX2                !
 ! R8    R(5,9)                  1.0893         estimate D2E/DX2                !
 ! R9    R(5,10)                 1.089          estimate D2E/DX2                !
 ! R10   R(6,11)                 1.0999         estimate D2E/DX2                !
 ! R11   R(6,12)                 1.0889         estimate D2E/DX2                !
 ! R12   R(6,13)                 1.0889         estimate D2E/DX2                !
 ! R13   R(7,14)                 1.1003         estimate D2E/DX2                !
 ! R14   R(7,15)                 1.0893         estimate D2E/DX2                !
 ! R15   R(7,16)                 1.089          estimate D2E/DX2                !
 ! A1    A(2,1,3)              105.0208         estimate D2E/DX2                !
 ! A2    A(3,4,5)              113.6675         estimate D2E/DX2                !
 ! A3    A(3,4,6)               98.3864         estimate D2E/DX2                !
 ! A4    A(3,4,7)              113.6858         estimate D2E/DX2                !
 ! A5    A(5,4,6)              110.0852         estimate D2E/DX2                !
 ! A6    A(5,4,7)              110.3218         estimate D2E/DX2                !
 ! A7    A(6,4,7)              110.0832         estimate D2E/DX2                !
 ! A8    A(4,5,8)              111.703          estimate D2E/DX2                !
 ! A9    A(4,5,9)              109.6637         estimate D2E/DX2                !
 ! A10   A(4,5,10)             109.5229         estimate D2E/DX2                !
 ! A11   A(8,5,9)              108.5294         estimate D2E/DX2                !
 ! A12   A(8,5,10)             108.6503         estimate D2E/DX2                !
 ! A13   A(9,5,10)             108.7131         estimate D2E/DX2                !
 ! A14   A(4,6,11)             111.5799         estimate D2E/DX2                !
 ! A15   A(4,6,12)             109.4627         estimate D2E/DX2                !
 ! A16   A(4,6,13)             109.4625         estimate D2E/DX2                !
 ! A17   A(11,6,12)            108.9174         estimate D2E/DX2                !
 ! A18   A(11,6,13)            108.9168         estimate D2E/DX2                !
 ! A19   A(12,6,13)            108.4427         estimate D2E/DX2                !
 ! A20   A(4,7,14)             111.7019         estimate D2E/DX2                !
 ! A21   A(4,7,15)             109.663          estimate D2E/DX2                !
 ! A22   A(4,7,16)             109.5237         estimate D2E/DX2                !
 ! A23   A(14,7,15)            108.5289         estimate D2E/DX2                !
 ! A24   A(14,7,16)            108.6515         estimate D2E/DX2                !
 ! A25   A(15,7,16)            108.7135         estimate D2E/DX2                !
 ! A26   L(1,3,4,12,-1)        167.477          estimate D2E/DX2                !
 ! A27   L(1,3,4,12,-2)        186.3644         estimate D2E/DX2                !
 ! D1    D(2,1,4,5)            -65.6396         estimate D2E/DX2                !
 ! D2    D(2,1,4,6)            179.983          estimate D2E/DX2                !
 ! D3    D(2,1,4,7)             65.6017         estimate D2E/DX2                !
 ! D4    D(3,4,5,8)           -169.789          estimate D2E/DX2                !
 ! D5    D(3,4,5,9)             69.8502         estimate D2E/DX2                !
 ! D6    D(3,4,5,10)           -49.3709         estimate D2E/DX2                !
 ! D7    D(6,4,5,8)            -60.5313         estimate D2E/DX2                !
 ! D8    D(6,4,5,9)            179.108          estimate D2E/DX2                !
 ! D9    D(6,4,5,10)            59.8868         estimate D2E/DX2                !
 ! D10   D(7,4,5,8)             61.1576         estimate D2E/DX2                !
 ! D11   D(7,4,5,9)            -59.2032         estimate D2E/DX2                !
 ! D12   D(7,4,5,10)          -178.4243         estimate D2E/DX2                !
 ! D13   D(3,4,6,11)           179.9878         estimate D2E/DX2                !
 ! D14   D(3,4,6,12)            59.3544         estimate D2E/DX2                !
 ! D15   D(3,4,6,13)           -59.3795         estimate D2E/DX2                !
 ! D16   D(5,4,6,11)            60.9131         estimate D2E/DX2                !
 ! D17   D(5,4,6,12)           -59.7203         estimate D2E/DX2                !
 ! D18   D(5,4,6,13)          -178.4542         estimate D2E/DX2                !
 ! D19   D(7,4,6,11)           -60.9176         estimate D2E/DX2                !
 ! D20   D(7,4,6,12)           178.449          estimate D2E/DX2                !
 ! D21   D(7,4,6,13)            59.7151         estimate D2E/DX2                !
 ! D22   D(3,4,7,14)           169.7725         estimate D2E/DX2                !
 ! D23   D(3,4,7,15)           -69.8686         estimate D2E/DX2                !
 ! D24   D(3,4,7,16)            49.353          estimate D2E/DX2                !
 ! D25   D(5,4,7,14)           -61.184          estimate D2E/DX2                !
 ! D26   D(5,4,7,15)            59.1749         estimate D2E/DX2                !
 ! D27   D(5,4,7,16)           178.3965         estimate D2E/DX2                !
 ! D28   D(6,4,7,14)            60.5061         estimate D2E/DX2                !
 ! D29   D(6,4,7,15)          -179.135          estimate D2E/DX2                !
 ! D30   D(6,4,7,16)           -59.9134         estimate D2E/DX2                !
 --------------------------------------------------------------------------------
 Trust Radius=3.00D-01 FncErr=1.00D-07 GrdErr=1.00D-07 EigMax=2.50D+02 EigMin=1.00D-04
 Number of steps in this run=     82 maximum allowed number of steps=    100.
 GradGradGradGradGradGradGradGradGradGradGradGradGradGradGradGradGradGrad

                          Input orientation:                          
 ---------------------------------------------------------------------
 Center     Atomic      Atomic             Coordinates (Angstroms)
 Number     Number       Type             X           Y           Z
 ---------------------------------------------------------------------
      1          8           0       -2.491292    0.000044    0.131071
      2          1           0       -2.855619    0.001220    1.019911
      3          1           0       -1.516284    0.000248    0.255409
      4          7           0        0.329399    0.000048    0.049288
      5          6           0        0.975879    1.196162    0.570426
      6          6           0        0.380649   -0.002335   -1.408005
      7          6           0        0.976483   -1.194042    0.574307
      8          1           0        2.034393    1.248173    0.274771
      9          1           0        0.919780    1.198733    1.658262
     10          1           0        0.464769    2.080281    0.192115
     11          1           0        1.417003   -0.002644   -1.776337
     12          1           0       -0.129661    0.880280   -1.790429
     13          1           0       -0.129143   -0.886505   -1.787519
     14          1           0        2.034899   -1.246697    0.278422
     15          1           0        0.920818   -1.192849    1.662167
     16          1           0        0.465525   -2.079642    0.199271
 ---------------------------------------------------------------------
                    Distance matrix (angstroms):
                    1          2          3          4          5
     1  O    0.000000
     2  H    0.960610   0.000000
     3  H    0.982904   1.542168   0.000000
     4  N    2.821876   3.329632   1.857157   0.000000
     5  C    3.693915   4.038601   2.782143   1.456094   0.000000
     6  C    3.258344   4.045766   2.522956   1.458196   2.388490
     7  C    3.694288   4.038839   2.782429   1.456095   2.390207
     8  H    4.696839   5.101210   3.763642   2.125009   1.100259
     9  H    3.924867   4.011878   3.055940   2.091457   1.089285
    10  H    3.615164   4.004088   2.873171   2.089520   1.089045
    11  H    4.348906   5.106302   3.568217   2.125040   2.671895
    12  H    3.169271   4.012680   2.623477   2.090479   2.625954
    13  H    3.169654   4.012903   2.623747   2.090478   3.334438
    14  H    4.697071   5.101399   3.763815   2.124995   2.678498
    15  H    3.925525   4.012452   3.056455   2.091449   2.627224
    16  H    3.615593   4.004177   2.873441   2.089530   3.336032
                    6          7          8          9         10
     6  C    0.000000
     7  C    2.388461   0.000000
     8  H    2.670276   2.678303   0.000000
     9  H    3.336948   2.627460   1.777316   0.000000
    10  H    2.627689   3.336033   1.778470   1.770240   0.000000
    11  H    1.099863   2.671893   2.480475   3.672466   3.019955
    12  H    1.088886   3.334418   3.013889   3.618868   2.392453
    13  H    1.088887   2.625873   3.672979   4.161954   3.615730
    14  H    2.670022   1.100257   2.494873   3.021188   3.679883
    15  H    3.336924   1.089284   3.020514   2.391585   3.616962
    16  H    2.627878   1.089044   3.679864   3.617008   4.159929
                   11         12         13         14         15
    11  H    0.000000
    12  H    1.780989   0.000000
    13  H    1.780984   1.766787   0.000000
    14  H    2.480221   3.672805   3.013458   0.000000
    15  H    3.672342   4.161945   3.618922   1.777309   0.000000
    16  H    3.020308   3.615839   2.392601   1.778482   1.770242
                   16
    16  H    0.000000
 Stoichiometry    C3H11NO
 Framework group  C1[X(C3H11NO)]
 Deg. of freedom    42
 Full point group                 C1      NOp   1
 Largest Abelian subgroup         C1      NOp   1
 Largest concise Abelian subgroup C1      NOp   1
                         Standard orientation:                         
 ---------------------------------------------------------------------
 Center     Atomic      Atomic             Coordinates (Angstroms)
 Number     Number       Type             X           Y           Z
 ---------------------------------------------------------------------
      1          8           0        2.491292    0.000044   -0.131071
      2          1           0        2.855619    0.001220   -1.019911
      3          1           0        1.516284    0.000248   -0.255409
      4          7           0       -0.329399    0.000048   -0.049288
      5          6           0       -0.975879    1.196162   -0.570426
      6          6           0       -0.380649   -0.002335    1.408005
      7          6           0       -0.976483   -1.194042   -0.574307
      8          1           0       -2.034393    1.248173   -0.274771
      9          1           0       -0.919780    1.198733   -1.658262
     10          1           0       -0.464769    2.080281   -0.192115
     11          1           0       -1.417003   -0.002644    1.776337
     12          1           0        0.129661    0.880280    1.790429
     13          1           0        0.129143   -0.886505    1.787519
     14          1           0       -2.034899   -1.246697   -0.278422
     15          1           0       -0.920818   -1.192849   -1.662167
     16          1           0       -0.465525   -2.079642   -0.199271
 ---------------------------------------------------------------------
 Rotational constants (GHZ):           5.1010281           2.5678758           2.5406750
 Standard basis: Aug-CC-pVTZ (5D, 7F)
 There are   550 symmetry adapted cartesian basis functions of A   symmetry.
 There are   483 symmetry adapted basis functions of A   symmetry.
   483 basis functions,   657 primitive gaussians,   550 cartesian basis functions
    22 alpha electrons       22 beta electrons
       nuclear repulsion energy       201.6592054539 Hartrees.
 NAtoms=   16 NActive=   16 NUniq=   16 SFac= 1.00D+00 NAtFMM=   60 NAOKFM=F Big=F
 Integral buffers will be    131072 words long.
 Raffenetti 1 integral format.
 Two-electron integral symmetry is turned on.
 One-electron integrals computed using PRISM.
 NBasis=   483 RedAO= T EigKep=  3.77D-06  NBF=   483
 NBsUse=   483 1.00D-06 EigRej= -1.00D+00 NBFU=   483
 ExpMin= 2.53D-02 ExpMax= 1.53D+04 ExpMxC= 5.22D+02 IAcc=3 IRadAn=         5 AccDes= 0.00D+00
 Harris functional with IExCor=  205 and IRadAn=       5 diagonalized for initial guess.
 HarFok:  IExCor=  205 AccDes= 0.00D+00 IRadAn=         5 IDoV= 1 UseB2=F ITyADJ=14
 ICtDFT=  3500011 ScaDFX=  1.000000  1.000000  1.000000  1.000000
 FoFCou: FMM=F IPFlag=           0 FMFlag=      100000 FMFlg1=           0
         NFxFlg=           0 DoJE=T BraDBF=F KetDBF=T FulRan=T
         wScrn=  0.000000 ICntrl=       500 IOpCl=  0 I1Cent=   200000004 NGrid=           0
         NMat0=    1 NMatS0=      1 NMatT0=    0 NMatD0=    1 NMtDS0=    0 NMtDT0=    0
 Petite list used in FoFCou.
 Requested convergence on RMS density matrix=1.00D-08 within 128 cycles.
 Requested convergence on MAX density matrix=1.00D-06.
 Requested convergence on             energy=1.00D-06.
 No special actions if energy rises.
 SCF Done:  E(RHF) =  -249.400907228     A.U. after   11 cycles
            NFock= 11  Conv=0.78D-08     -V/T= 2.0012
 ExpMin= 2.53D-02 ExpMax= 1.53D+04 ExpMxC= 5.22D+02 IAcc=3 IRadAn=         5 AccDes= 0.00D+00
 HarFok:  IExCor=  205 AccDes= 0.00D+00 IRadAn=         5 IDoV=-2 UseB2=F ITyADJ=14
 ICtDFT= 12500011 ScaDFX=  1.000000  1.000000  1.000000  1.000000
 Range of M.O.s used for correlation:     6   483
 NBasis=   483 NAE=    22 NBE=    22 NFC=     5 NFV=     0
 NROrb=    478 NOA=    17 NOB=    17 NVA=   461 NVB=   461

 **** Warning!!: The largest alpha MO coefficient is  0.13009506D+03

 Disk-based method using ON**2 memory for 17 occupieds at a time.
 Estimated scratch disk usage=  5324813775 words.
 Actual    scratch disk usage=  4879915983 words.
 JobTyp=1 Pass  1:  I=   6 to  22 NPSUse= 40 ParTrn=T ParDer=T DoDerP=T.
 (rs|ai) integrals will be sorted in core.
 Spin components of T(2) and E(2):
     alpha-alpha T2 =       0.3587483866D-01 E2=     -0.1190405964D+00
     alpha-beta  T2 =       0.2224553182D+00 E2=     -0.8045887642D+00
     beta-beta   T2 =       0.3587483866D-01 E2=     -0.1190405964D+00
 ANorm=    0.1137631309D+01
 E2 =    -0.1042669957D+01 EUMP2 =    -0.25044357718514D+03
          IDoAtm=1111111111111111
          Differentiating once with respect to electric field.
                with respect to dipole field.
          Differentiating once with respect to nuclear coordinates.
          There are     1 degrees of freedom in the 1st order CPHF.  IDoFFX=0 NUNeed=     1.
 LinEq1:  Iter=  0 NonCon=     1 RMS=2.00D-03 Max=3.13D-02 NDo=     1
 AX will form     1 AO Fock derivatives at one time.
 LinEq1:  Iter=  1 NonCon=     1 RMS=4.32D-04 Max=6.42D-03 NDo=     1
 LinEq1:  Iter=  2 NonCon=     1 RMS=1.36D-04 Max=1.92D-03 NDo=     1
 LinEq1:  Iter=  3 NonCon=     1 RMS=2.89D-05 Max=4.34D-04 NDo=     1
 LinEq1:  Iter=  4 NonCon=     1 RMS=1.07D-05 Max=1.41D-04 NDo=     1
 LinEq1:  Iter=  5 NonCon=     1 RMS=2.97D-06 Max=6.44D-05 NDo=     1
 LinEq1:  Iter=  6 NonCon=     1 RMS=7.50D-07 Max=1.25D-05 NDo=     1
 LinEq1:  Iter=  7 NonCon=     1 RMS=1.99D-07 Max=3.69D-06 NDo=     1
 LinEq1:  Iter=  8 NonCon=     1 RMS=7.66D-08 Max=1.15D-06 NDo=     1
 LinEq1:  Iter=  9 NonCon=     1 RMS=2.16D-08 Max=3.12D-07 NDo=     1
 LinEq1:  Iter= 10 NonCon=     1 RMS=3.83D-09 Max=5.58D-08 NDo=     1
 LinEq1:  Iter= 11 NonCon=     1 RMS=6.86D-10 Max=8.08D-09 NDo=     1
 LinEq1:  Iter= 12 NonCon=     1 RMS=1.94D-10 Max=2.83D-09 NDo=     1
 LinEq1:  Iter= 13 NonCon=     0 RMS=5.30D-11 Max=9.14D-10 NDo=     1
 Linear equations converged to 1.000D-10 1.000D-09 after    13 iterations.
 End of Minotr F.D. properties file   721 does not exist.
 End of Minotr F.D. properties file   722 does not exist.
 End of Minotr F.D. properties file   788 does not exist.

 **********************************************************************

            Population analysis using the SCF Density.

 **********************************************************************

 Orbital symmetries:
       Occupied  (A) (A) (A) (A) (A) (A) (A) (A) (A) (A) (A) (A)
                 (A) (A) (A) (A) (A) (A) (A) (A) (A) (A)
       Virtual   (A) (A) (A) (A) (A) (A) (A) (A) (A) (A) (A) (A)
                 (A) (A) (A) (A) (A) (A) (A) (A) (A) (A) (A) (A)
                 (A) (A) (A) (A) (A) (A) (A) (A) (A) (A) (A) (A)
                 (A) (A) (A) (A) (A) (A) (A) (A) (A) (A) (A) (A)
                 (A) (A) (A) (A) (A) (A) (A) (A) (A) (A) (A) (A)
                 (A) (A) (A) (A) (A) (A) (A) (A) (A) (A) (A) (A)
                 (A) (A) (A) (A) (A) (A) (A) (A) (A) (A) (A) (A)
                 (A) (A) (A) (A) (A) (A) (A) (A) (A) (A) (A) (A)
                 (A) (A) (A) (A) (A) (A) (A) (A) (A) (A) (A) (A)
                 (A) (A) (A) (A) (A) (A) (A) (A) (A) (A) (A) (A)
                 (A) (A) (A) (A) (A) (A) (A) (A) (A) (A) (A) (A)
                 (A) (A) (A) (A) (A) (A) (A) (A) (A) (A) (A) (A)
                 (A) (A) (A) (A) (A) (A) (A) (A) (A) (A) (A) (A)
                 (A) (A) (A) (A) (A) (A) (A) (A) (A) (A) (A) (A)
                 (A) (A) (A) (A) (A) (A) (A) (A) (A) (A) (A) (A)
                 (A) (A) (A) (A) (A) (A) (A) (A) (A) (A) (A) (A)
                 (A) (A) (A) (A) (A) (A) (A) (A) (A) (A) (A) (A)
                 (A) (A) (A) (A) (A) (A) (A) (A) (A) (A) (A) (A)
                 (A) (A) (A) (A) (A) (A) (A) (A) (A) (A) (A) (A)
                 (A) (A) (A) (A) (A) (A) (A) (A) (A) (A) (A) (A)
                 (A) (A) (A) (A) (A) (A) (A) (A) (A) (A) (A) (A)
                 (A) (A) (A) (A) (A) (A) (A) (A) (A) (A) (A) (A)
                 (A) (A) (A) (A) (A) (A) (A) (A) (A) (A) (A) (A)
                 (A) (A) (A) (A) (A) (A) (A) (A) (A) (A) (A) (A)
                 (A) (A) (A) (A) (A) (A) (A) (A) (A) (A) (A) (A)
                 (A) (A) (A) (A) (A) (A) (A) (A) (A) (A) (A) (A)
                 (A) (A) (A) (A) (A) (A) (A) (A) (A) (A) (A) (A)
                 (A) (A) (A) (A) (A) (A) (A) (A) (A) (A) (A) (A)
                 (A) (A) (A) (A) (A) (A) (A) (A) (A) (A) (A) (A)
                 (A) (A) (A) (A) (A) (A) (A) (A) (A) (A) (A) (A)
                 (A) (A) (A) (A) (A) (A) (A) (A) (A) (A) (A) (A)
                 (A) (A) (A) (A) (A) (A) (A) (A) (A) (A) (A) (A)
                 (A) (A) (A) (A) (A) (A) (A) (A) (A) (A) (A) (A)
                 (A) (A) (A) (A) (A) (A) (A) (A) (A) (A) (A) (A)
                 (A) (A) (A) (A) (A) (A) (A) (A) (A) (A) (A) (A)
                 (A) (A) (A) (A) (A) (A) (A) (A) (A) (A) (A) (A)
                 (A) (A) (A) (A) (A) (A) (A) (A) (A) (A) (A) (A)
                 (A) (A) (A) (A) (A) (A) (A) (A) (A) (A) (A) (A)
                 (A) (A) (A) (A) (A)
 The electronic state is 1-A.
 Alpha  occ. eigenvalues --  -20.52266 -15.56639 -11.25176 -11.25174 -11.24755
 Alpha  occ. eigenvalues --   -1.30697  -1.24292  -0.96337  -0.96100  -0.82144
 Alpha  occ. eigenvalues --   -0.69223  -0.64542  -0.64174  -0.64056  -0.55809
 Alpha  occ. eigenvalues --   -0.55642  -0.54496  -0.52880  -0.51211  -0.51199
 Alpha  occ. eigenvalues --   -0.46844  -0.37982
 Alpha virt. eigenvalues --    0.02599   0.03699   0.03910   0.04242   0.05767
 Alpha virt. eigenvalues --    0.05842   0.05866   0.06236   0.06422   0.08036
 Alpha virt. eigenvalues --    0.09813   0.11731   0.11992   0.12389   0.12940
 Alpha virt. eigenvalues --    0.13038   0.13155   0.13879   0.14952   0.16270
 Alpha virt. eigenvalues --    0.17478   0.17601   0.17917   0.18257   0.18641
 Alpha virt. eigenvalues --    0.19089   0.19865   0.20850   0.22951   0.23385
 Alpha virt. eigenvalues --    0.24597   0.25547   0.25835   0.27566   0.28230
 Alpha virt. eigenvalues --    0.28897   0.29896   0.30426   0.30859   0.32705
 Alpha virt. eigenvalues --    0.33509   0.33897   0.35041   0.35709   0.36042
 Alpha virt. eigenvalues --    0.36551   0.36807   0.37915   0.38072   0.38290
 Alpha virt. eigenvalues --    0.38535   0.39050   0.39670   0.39853   0.39877
 Alpha virt. eigenvalues --    0.40888   0.41125   0.41247   0.43312   0.44060
 Alpha virt. eigenvalues --    0.44107   0.45106   0.45586   0.45819   0.45970
 Alpha virt. eigenvalues --    0.46848   0.47282   0.48038   0.48613   0.49257
 Alpha virt. eigenvalues --    0.50393   0.50832   0.51140   0.52002   0.52465
 Alpha virt. eigenvalues --    0.53201   0.53533   0.53983   0.54373   0.55649
 Alpha virt. eigenvalues --    0.56855   0.57138   0.57977   0.60485   0.61630
 Alpha virt. eigenvalues --    0.61909   0.63064   0.64479   0.64518   0.65789
 Alpha virt. eigenvalues --    0.65933   0.67305   0.67347   0.69581   0.70161
 Alpha virt. eigenvalues --    0.74739   0.75378   0.75693   0.76427   0.76801
 Alpha virt. eigenvalues --    0.78195   0.78336   0.79415   0.80246   0.81277
 Alpha virt. eigenvalues --    0.81428   0.82680   0.83407   0.83688   0.86233
 Alpha virt. eigenvalues --    0.87099   0.87283   0.87524   0.87537   0.90408
 Alpha virt. eigenvalues --    0.91328   0.91785   0.93311   0.93332   0.93669
 Alpha virt. eigenvalues --    0.94166   0.94315   0.94816   0.95311   0.96570
 Alpha virt. eigenvalues --    0.97005   0.98569   0.99818   0.99882   1.00305
 Alpha virt. eigenvalues --    1.01242   1.02855   1.03459   1.04147   1.04833
 Alpha virt. eigenvalues --    1.06021   1.06277   1.08706   1.10182   1.11072
 Alpha virt. eigenvalues --    1.12580   1.12670   1.13174   1.13818   1.14946
 Alpha virt. eigenvalues --    1.16875   1.18605   1.18962   1.20119   1.20227
 Alpha virt. eigenvalues --    1.20564   1.20837   1.23052   1.23103   1.23264
 Alpha virt. eigenvalues --    1.24785   1.24930   1.26552   1.27004   1.27841
 Alpha virt. eigenvalues --    1.28036   1.31003   1.31317   1.32077   1.34788
 Alpha virt. eigenvalues --    1.34987   1.35801   1.37359   1.38541   1.39484
 Alpha virt. eigenvalues --    1.41338   1.41789   1.42001   1.42873   1.45131
 Alpha virt. eigenvalues --    1.45208   1.46620   1.49323   1.49796   1.51241
 Alpha virt. eigenvalues --    1.53057   1.54025   1.54258   1.55127   1.55627
 Alpha virt. eigenvalues --    1.56716   1.58330   1.58565   1.59885   1.61735
 Alpha virt. eigenvalues --    1.62024   1.62562   1.64255   1.64773   1.65256
 Alpha virt. eigenvalues --    1.67689   1.68574   1.69805   1.70187   1.70884
 Alpha virt. eigenvalues --    1.72265   1.73481   1.73773   1.74058   1.74277
 Alpha virt. eigenvalues --    1.76903   1.77983   1.78216   1.80676   1.80786
 Alpha virt. eigenvalues --    1.82108   1.83590   1.84348   1.86538   1.89229
 Alpha virt. eigenvalues --    1.90507   1.90915   1.91902   1.93970   1.96256
 Alpha virt. eigenvalues --    1.97360   1.97807   1.98978   2.01637   2.01721
 Alpha virt. eigenvalues --    2.04037   2.07084   2.09888   2.10408   2.12180
 Alpha virt. eigenvalues --    2.12701   2.14761   2.17102   2.17415   2.18333
 Alpha virt. eigenvalues --    2.19044   2.20020   2.21346   2.24771   2.25194
 Alpha virt. eigenvalues --    2.25984   2.27854   2.28148   2.28958   2.33458
 Alpha virt. eigenvalues --    2.35291   2.35793   2.36203   2.37317   2.41383
 Alpha virt. eigenvalues --    2.44975   2.45311   2.47325   2.47392   2.49348
 Alpha virt. eigenvalues --    2.51868   2.53219   2.54158   2.55880   2.57178
 Alpha virt. eigenvalues --    2.57415   2.63360   2.63995   2.67037   2.67970
 Alpha virt. eigenvalues --    2.70170   2.70281   2.73041   2.77578   2.82224
 Alpha virt. eigenvalues --    2.82625   2.89437   2.93921   2.97566   3.00949
 Alpha virt. eigenvalues --    3.03330   3.03675   3.12784   3.15905   3.18475
 Alpha virt. eigenvalues --    3.21307   3.21501   3.39172   3.42640   3.46355
 Alpha virt. eigenvalues --    3.46476   3.47903   3.52915   3.57017   3.58383
 Alpha virt. eigenvalues --    3.59546   3.60547   3.62906   3.65771   3.67815
 Alpha virt. eigenvalues --    3.68470   3.69245   3.74809   3.75477   3.78104
 Alpha virt. eigenvalues --    3.78423   3.78718   3.79813   3.85484   3.85948
 Alpha virt. eigenvalues --    3.87171   3.88460   3.88595   3.91939   3.92399
 Alpha virt. eigenvalues --    3.92461   3.92928   3.93603   3.95065   3.97743
 Alpha virt. eigenvalues --    4.00155   4.01234   4.01574   4.02366   4.04208
 Alpha virt. eigenvalues --    4.04530   4.09268   4.11569   4.11623   4.14612
 Alpha virt. eigenvalues --    4.16815   4.20359   4.20870   4.22980   4.23835
 Alpha virt. eigenvalues --    4.24882   4.27064   4.27182   4.29565   4.30269
 Alpha virt. eigenvalues --    4.31560   4.31632   4.34260   4.34319   4.36452
 Alpha virt. eigenvalues --    4.37314   4.39279   4.40107   4.42353   4.46534
 Alpha virt. eigenvalues --    4.48695   4.48881   4.50182   4.54249   4.55304
 Alpha virt. eigenvalues --    4.57793   4.58182   4.64585   4.64978   4.66651
 Alpha virt. eigenvalues --    4.67851   4.67904   4.70108   4.71341   4.73899
 Alpha virt. eigenvalues --    4.76990   4.79683   4.80697   4.81502   4.82587
 Alpha virt. eigenvalues --    4.84842   4.87966   4.88551   4.88830   4.91020
 Alpha virt. eigenvalues --    4.92726   4.94796   4.99028   5.03352   5.04783
 Alpha virt. eigenvalues --    5.06458   5.08747   5.11275   5.12328   5.15069
 Alpha virt. eigenvalues --    5.15324   5.15982   5.18129   5.22139   5.24135
 Alpha virt. eigenvalues --    5.27133   5.27310   5.30587   5.30653   5.35109
 Alpha virt. eigenvalues --    5.36817   5.37441   5.39655   5.40364   5.41279
 Alpha virt. eigenvalues --    5.43674   5.48355   5.50660   5.50828   5.55638
 Alpha virt. eigenvalues --    5.56994   5.62877   5.64481   5.64677   5.65169
 Alpha virt. eigenvalues --    5.66310   5.70854   5.71316   5.76452   5.76878
 Alpha virt. eigenvalues --    5.86117   5.88492   5.89517   5.90506   5.93477
 Alpha virt. eigenvalues --    5.96969   6.01168   6.02863   6.08619   6.09913
 Alpha virt. eigenvalues --    6.10798   6.12597   6.19069   6.20560   6.30938
 Alpha virt. eigenvalues --    6.31430   6.32952   6.36696   6.39177   6.44299
 Alpha virt. eigenvalues --    6.56325   6.60029   6.66621   6.79531   6.79544
 Alpha virt. eigenvalues --    6.82988   6.84818   6.86437   6.87903   6.91315
 Alpha virt. eigenvalues --    6.92631   6.97339   6.98910   6.99337   6.99671
 Alpha virt. eigenvalues --    7.10702   7.24413   7.36599   7.45711   7.47007
 Alpha virt. eigenvalues --    7.55925   7.71561   7.96652   8.09219   8.17283
 Alpha virt. eigenvalues --    8.93232  16.71694  17.71446  18.54253  18.64849
 Alpha virt. eigenvalues --   19.12937
          Condensed to atoms (all electrons):
               1          2          3          4          5          6
     1  O    8.155014   0.291502   0.136163   0.062166  -0.007934  -0.022283
     2  H    0.291502   0.526115   0.030143   0.007524  -0.003893   0.001577
     3  H    0.136163   0.030143   0.429251   0.058747  -0.046910   0.000525
     4  N    0.062166   0.007524   0.058747   6.492898   0.107204   0.171500
     5  C   -0.007934  -0.003893  -0.046910   0.107204   5.775292  -0.021264
     6  C   -0.022283   0.001577   0.000525   0.171500  -0.021264   5.679865
     7  C   -0.007932  -0.003897  -0.046962   0.107302  -0.069704  -0.021263
     8  H   -0.000629  -0.000138  -0.002829  -0.079798   0.445133   0.004315
     9  H   -0.001226  -0.001262   0.002673  -0.020592   0.404470  -0.001656
    10  H   -0.001550   0.000140   0.007376   0.017572   0.383558   0.006160
    11  H   -0.000452   0.000420   0.001557  -0.053182   0.006093   0.424101
    12  H   -0.002646  -0.000762   0.004236  -0.010425   0.001507   0.392234
    13  H   -0.002650  -0.000763   0.004233  -0.010423  -0.004939   0.392268
    14  H   -0.000627  -0.000139  -0.002837  -0.079752  -0.012450   0.004320
    15  H   -0.001225  -0.001260   0.002675  -0.020598  -0.000260  -0.001639
    16  H   -0.001556   0.000139   0.007376   0.017550  -0.009969   0.006148
               7          8          9         10         11         12
     1  O   -0.007932  -0.000629  -0.001226  -0.001550  -0.000452  -0.002646
     2  H   -0.003897  -0.000138  -0.001262   0.000140   0.000420  -0.000762
     3  H   -0.046962  -0.002829   0.002673   0.007376   0.001557   0.004236
     4  N    0.107302  -0.079798  -0.020592   0.017572  -0.053182  -0.010425
     5  C   -0.069704   0.445133   0.404470   0.383558   0.006093   0.001507
     6  C   -0.021263   0.004315  -0.001656   0.006160   0.424101   0.392234
     7  C    5.775213  -0.012438  -0.000303  -0.009963   0.006110  -0.004957
     8  H   -0.012438   0.310556   0.017272   0.009784   0.006025   0.001198
     9  H   -0.000303   0.017272   0.279840   0.016489   0.000867   0.000987
    10  H   -0.009963   0.009784   0.016489   0.266548   0.000195   0.003478
    11  H    0.006110   0.006025   0.000867   0.000195   0.306900   0.013922
    12  H   -0.004957   0.001198   0.000987   0.003478   0.013922   0.257538
    13  H    0.001492   0.001187  -0.001046   0.000656   0.013922   0.023363
    14  H    0.445089   0.002676  -0.000164  -0.001053   0.006029   0.001188
    15  H    0.404486  -0.000159   0.008537  -0.000791   0.000864  -0.001046
    16  H    0.383558  -0.001050  -0.000793  -0.000767   0.000198   0.000654
              13         14         15         16
     1  O   -0.002650  -0.000627  -0.001225  -0.001556
     2  H   -0.000763  -0.000139  -0.001260   0.000139
     3  H    0.004233  -0.002837   0.002675   0.007376
     4  N   -0.010423  -0.079752  -0.020598   0.017550
     5  C   -0.004939  -0.012450  -0.000260  -0.009969
     6  C    0.392268   0.004320  -0.001639   0.006148
     7  C    0.001492   0.445089   0.404486   0.383558
     8  H    0.001187   0.002676  -0.000159  -0.001050
     9  H   -0.001046  -0.000164   0.008537  -0.000793
    10  H    0.000656  -0.001053  -0.000791  -0.000767
    11  H    0.013922   0.006029   0.000864   0.000198
    12  H    0.023363   0.001188  -0.001046   0.000654
    13  H    0.257561   0.001196   0.000992   0.003470
    14  H    0.001196   0.310534   0.017252   0.009805
    15  H    0.000992   0.017252   0.279872   0.016496
    16  H    0.003470   0.009805   0.016496   0.266528
 Mulliken charges:
               1
     1  O   -0.594134
     2  H    0.154554
     3  H    0.414585
     4  N    0.232306
     5  C   -0.945936
     6  C   -1.014907
     7  C   -0.945831
     8  H    0.298896
     9  H    0.295907
    10  H    0.302168
    11  H    0.266430
    12  H    0.319531
    13  H    0.319482
    14  H    0.298932
    15  H    0.295804
    16  H    0.302213
 Sum of Mulliken charges =  -0.00000
 Mulliken charges with hydrogens summed into heavy atoms:
               1
     1  O   -0.024995
     4  N    0.232306
     5  C   -0.048965
     6  C   -0.109465
     7  C   -0.048882
 Electronic spatial extent (au):  <R**2>=            618.0889
 Charge=             -0.0000 electrons
 Dipole moment (field-independent basis, Debye):
    X=             -2.7224    Y=              0.0018    Z=             -1.2175  Tot=              2.9822
 Quadrupole moment (field-independent basis, Debye-Ang):
   XX=            -39.9078   YY=            -33.4323   ZZ=            -31.1574
   XY=              0.0057   XZ=             -3.8336   YZ=             -0.0029
 Traceless Quadrupole moment (field-independent basis, Debye-Ang):
   XX=             -5.0753   YY=              1.4002   ZZ=              3.6751
   XY=              0.0057   XZ=             -3.8336   YZ=             -0.0029
 Octapole moment (field-independent basis, Debye-Ang**2):
  XXX=             -3.0123  YYY=             -0.0023  ZZZ=             -4.7690  XYY=              1.7816
  XXY=              0.0184  XXZ=            -13.5133  XZZ=              8.3162  YZZ=              0.0073
  YYZ=              0.1886  XYZ=             -0.0079
 Hexadecapole moment (field-independent basis, Debye-Ang**3):
 XXXX=           -432.3551 YYYY=           -192.5124 ZZZZ=           -182.5411 XXXY=              0.0604
 XXXZ=            -45.7944 YYYX=             -0.0037 YYYZ=              0.0029 ZZZX=             -6.8497
 ZZZY=             -0.0108 XXYY=           -108.7830 XXZZ=            -86.6918 YYZZ=            -63.9500
 XXYZ=             -0.0253 YYXZ=              0.7922 ZZXY=              0.0113
 N-N= 2.016592054539D+02 E-N=-9.875802146158D+02  KE= 2.490927508959D+02
 Calling FoFJK, ICntrl=  10002127 FMM=F ISym2X=0 I1Cent= 0 IOpClX= 0 NMat=1 NMatS=1 NMatT=0.
 ***** Axes restored to original set *****
 -------------------------------------------------------------------
 Center     Atomic                   Forces (Hartrees/Bohr)
 Number     Number              X              Y              Z
 -------------------------------------------------------------------
      1        8          -0.000013580    0.000000765   -0.000015631
      2        1           0.000002404    0.000000074    0.000008585
      3        1           0.000015441   -0.000001885    0.000007391
      4        7          -0.000004348   -0.000001405    0.000004525
      5        6           0.000001379   -0.000003488   -0.000003070
      6        6           0.000002711    0.000001417   -0.000006390
      7        6          -0.000002380    0.000007356    0.000002365
      8        1           0.000000457    0.000000561   -0.000000888
      9        1           0.000002006   -0.000001443    0.000002662
     10        1          -0.000003131   -0.000003407   -0.000000237
     11        1           0.000000260    0.000000069    0.000000303
     12        1          -0.000000818    0.000000670   -0.000000726
     13        1          -0.000000698   -0.000000372    0.000000029
     14        1           0.000001500   -0.000000914    0.000000578
     15        1           0.000000126   -0.000000629    0.000003128
     16        1          -0.000001330    0.000002632   -0.000002622
 -------------------------------------------------------------------
 Cartesian Forces:  Max     0.000015631 RMS     0.000004685

 GradGradGradGradGradGradGradGradGradGradGradGradGradGradGradGradGradGrad
 Berny optimization.
 FormGI is forming the generalized inverse of G from B-inverse, IUseBI=4.
 Internal  Forces:  Max     0.000011995 RMS     0.000002934
 Search for a local minimum.
 Step number   1 out of a maximum of   82
 All quantities printed in internal units (Hartrees-Bohrs-Radians)
 Mixed Optimization -- En-DIIS/RFO-DIIS
 Second derivative matrix not updated -- first step.
 ITU=  0
     Eigenvalues ---    0.00230   0.00230   0.00230   0.00922   0.00950
     Eigenvalues ---    0.00950   0.03825   0.04458   0.05508   0.05687
     Eigenvalues ---    0.05915   0.05925   0.05925   0.06148   0.06148
     Eigenvalues ---    0.06165   0.13694   0.15160   0.16000   0.16000
     Eigenvalues ---    0.16000   0.16000   0.16000   0.16000   0.16000
     Eigenvalues ---    0.16000   0.16000   0.16000   0.33654   0.33654
     Eigenvalues ---    0.33697   0.34895   0.34896   0.34923   0.34923
     Eigenvalues ---    0.34942   0.34942   0.37191   0.37457   0.37458
     Eigenvalues ---    0.50813   0.55342
 RFO step:  Lambda= 0.00000000D+00 EMin= 2.30000000D-03
 Linear search not attempted -- first point.
 Iteration  1 RMS(Cart)=  0.00016155 RMS(Int)=  0.00000004
 Iteration  2 RMS(Cart)=  0.00000006 RMS(Int)=  0.00000000
 Variable       Old X    -DE/DX   Delta X   Delta X   Delta X     New X
                                 (Linear)    (Quad)   (Total)
    R1        1.81529   0.00001   0.00000   0.00001   0.00001   1.81530
    R2        1.85742   0.00001   0.00000   0.00002   0.00002   1.85744
    R3        3.50952  -0.00000   0.00000  -0.00008  -0.00008   3.50944
    R4        2.75162  -0.00001   0.00000  -0.00002  -0.00002   2.75160
    R5        2.75559   0.00001   0.00000   0.00002   0.00002   2.75561
    R6        2.75162  -0.00001   0.00000  -0.00002  -0.00002   2.75160
    R7        2.07919   0.00000   0.00000   0.00000   0.00000   2.07919
    R8        2.05845   0.00000   0.00000   0.00001   0.00001   2.05846
    R9        2.05800  -0.00000   0.00000  -0.00000  -0.00000   2.05799
   R10        2.07844   0.00000   0.00000   0.00000   0.00000   2.07844
   R11        2.05770   0.00000   0.00000   0.00000   0.00000   2.05770
   R12        2.05770   0.00000   0.00000   0.00000   0.00000   2.05770
   R13        2.07918   0.00000   0.00000   0.00000   0.00000   2.07919
   R14        2.05845   0.00000   0.00000   0.00001   0.00001   2.05846
   R15        2.05800  -0.00000   0.00000  -0.00000  -0.00000   2.05799
    A1        1.83296  -0.00001   0.00000  -0.00006  -0.00006   1.83290
    A2        1.98387   0.00000   0.00000   0.00001   0.00001   1.98388
    A3        1.71717   0.00000   0.00000   0.00002   0.00002   1.71718
    A4        1.98419  -0.00000   0.00000  -0.00002  -0.00002   1.98417
    A5        1.92135  -0.00000   0.00000  -0.00001  -0.00001   1.92134
    A6        1.92548  -0.00000   0.00000  -0.00002  -0.00002   1.92546
    A7        1.92131   0.00000   0.00000   0.00002   0.00002   1.92134
    A8        1.94959   0.00000   0.00000   0.00001   0.00001   1.94959
    A9        1.91399   0.00000   0.00000   0.00000   0.00000   1.91400
   A10        1.91154  -0.00001   0.00000  -0.00004  -0.00004   1.91150
   A11        1.89420  -0.00000   0.00000   0.00000   0.00000   1.89420
   A12        1.89631   0.00000   0.00000   0.00001   0.00001   1.89632
   A13        1.89740   0.00000   0.00000   0.00001   0.00001   1.89742
   A14        1.94744  -0.00000   0.00000  -0.00000  -0.00000   1.94743
   A15        1.91048   0.00000   0.00000   0.00000   0.00000   1.91049
   A16        1.91048  -0.00000   0.00000  -0.00000  -0.00000   1.91048
   A17        1.90097   0.00000   0.00000   0.00000   0.00000   1.90097
   A18        1.90096   0.00000   0.00000   0.00000   0.00000   1.90096
   A19        1.89268  -0.00000   0.00000  -0.00000  -0.00000   1.89268
   A20        1.94957   0.00000   0.00000   0.00002   0.00002   1.94958
   A21        1.91398   0.00000   0.00000   0.00001   0.00001   1.91399
   A22        1.91155  -0.00001   0.00000  -0.00004  -0.00004   1.91151
   A23        1.89419  -0.00000   0.00000   0.00000   0.00000   1.89419
   A24        1.89633   0.00000   0.00000   0.00000   0.00000   1.89633
   A25        1.89741   0.00000   0.00000   0.00001   0.00001   1.89742
   A26        2.92303  -0.00000   0.00000  -0.00042  -0.00042   2.92261
   A27        3.25267  -0.00000   0.00000  -0.00053  -0.00053   3.25214
    D1       -1.14563  -0.00000   0.00000  -0.00002  -0.00002  -1.14565
    D2        3.14130   0.00000   0.00000   0.00006   0.00006   3.14136
    D3        1.14497  -0.00000   0.00000   0.00001   0.00001   1.14497
    D4       -2.96338   0.00000   0.00000   0.00010   0.00010  -2.96327
    D5        1.21912   0.00000   0.00000   0.00010   0.00010   1.21921
    D6       -0.86168   0.00000   0.00000   0.00010   0.00010  -0.86158
    D7       -1.05647   0.00000   0.00000   0.00013   0.00013  -1.05634
    D8        3.12602   0.00000   0.00000   0.00012   0.00012   3.12614
    D9        1.04522   0.00000   0.00000   0.00012   0.00012   1.04535
   D10        1.06740   0.00000   0.00000   0.00014   0.00014   1.06754
   D11       -1.03329   0.00000   0.00000   0.00013   0.00013  -1.03316
   D12       -3.11409   0.00000   0.00000   0.00014   0.00014  -3.11396
   D13        3.14138   0.00000   0.00000   0.00001   0.00001   3.14139
   D14        1.03593   0.00000   0.00000   0.00001   0.00001   1.03593
   D15       -1.03637   0.00000   0.00000   0.00001   0.00001  -1.03636
   D16        1.06313  -0.00000   0.00000  -0.00001  -0.00001   1.06313
   D17       -1.04232  -0.00000   0.00000  -0.00001  -0.00001  -1.04233
   D18       -3.11461  -0.00000   0.00000  -0.00001  -0.00001  -3.11462
   D19       -1.06321   0.00000   0.00000   0.00000   0.00000  -1.06321
   D20        3.11452   0.00000   0.00000  -0.00000  -0.00000   3.11452
   D21        1.04222   0.00000   0.00000   0.00000   0.00000   1.04223
   D22        2.96309   0.00000   0.00000   0.00004   0.00004   2.96313
   D23       -1.21944   0.00000   0.00000   0.00006   0.00006  -1.21938
   D24        0.86137   0.00000   0.00000   0.00006   0.00006   0.86143
   D25       -1.06786  -0.00000   0.00000   0.00002   0.00002  -1.06784
   D26        1.03280   0.00000   0.00000   0.00004   0.00004   1.03284
   D27        3.11361   0.00000   0.00000   0.00004   0.00004   3.11364
   D28        1.05603  -0.00000   0.00000   0.00002   0.00002   1.05605
   D29       -3.12650   0.00000   0.00000   0.00004   0.00004  -3.12646
   D30       -1.04569  -0.00000   0.00000   0.00003   0.00003  -1.04565
         Item               Value     Threshold  Converged?
 Maximum Force            0.000012     0.000450     YES
 RMS     Force            0.000003     0.000300     YES
 Maximum Displacement     0.000685     0.001800     YES
 RMS     Displacement     0.000162     0.001200     YES
 Predicted change in Energy=-2.590004D-09
 Optimization completed.
    -- Stationary point found.
                           ----------------------------
                           !   Optimized Parameters   !
                           ! (Angstroms and Degrees)  !
 --------------------------                            --------------------------
 ! Name  Definition              Value          Derivative Info.                !
 --------------------------------------------------------------------------------
 ! R1    R(1,2)                  0.9606         -DE/DX =    0.0                 !
 ! R2    R(1,3)                  0.9829         -DE/DX =    0.0                 !
 ! R3    R(3,4)                  1.8572         -DE/DX =    0.0                 !
 ! R4    R(4,5)                  1.4561         -DE/DX =    0.0                 !
 ! R5    R(4,6)                  1.4582         -DE/DX =    0.0                 !
 ! R6    R(4,7)                  1.4561         -DE/DX =    0.0                 !
 ! R7    R(5,8)                  1.1003         -DE/DX =    0.0                 !
 ! R8    R(5,9)                  1.0893         -DE/DX =    0.0                 !
 ! R9    R(5,10)                 1.089          -DE/DX =    0.0                 !
 ! R10   R(6,11)                 1.0999         -DE/DX =    0.0                 !
 ! R11   R(6,12)                 1.0889         -DE/DX =    0.0                 !
 ! R12   R(6,13)                 1.0889         -DE/DX =    0.0                 !
 ! R13   R(7,14)                 1.1003         -DE/DX =    0.0                 !
 ! R14   R(7,15)                 1.0893         -DE/DX =    0.0                 !
 ! R15   R(7,16)                 1.089          -DE/DX =    0.0                 !
 ! A1    A(2,1,3)              105.0208         -DE/DX =    0.0                 !
 ! A2    A(3,4,5)              113.6675         -DE/DX =    0.0                 !
 ! A3    A(3,4,6)               98.3864         -DE/DX =    0.0                 !
 ! A4    A(3,4,7)              113.6858         -DE/DX =    0.0                 !
 ! A5    A(5,4,6)              110.0852         -DE/DX =    0.0                 !
 ! A6    A(5,4,7)              110.3218         -DE/DX =    0.0                 !
 ! A7    A(6,4,7)              110.0832         -DE/DX =    0.0                 !
 ! A8    A(4,5,8)              111.703          -DE/DX =    0.0                 !
 ! A9    A(4,5,9)              109.6637         -DE/DX =    0.0                 !
 ! A10   A(4,5,10)             109.5229         -DE/DX =    0.0                 !
 ! A11   A(8,5,9)              108.5294         -DE/DX =    0.0                 !
 ! A12   A(8,5,10)             108.6503         -DE/DX =    0.0                 !
 ! A13   A(9,5,10)             108.7131         -DE/DX =    0.0                 !
 ! A14   A(4,6,11)             111.5799         -DE/DX =    0.0                 !
 ! A15   A(4,6,12)             109.4627         -DE/DX =    0.0                 !
 ! A16   A(4,6,13)             109.4625         -DE/DX =    0.0                 !
 ! A17   A(11,6,12)            108.9174         -DE/DX =    0.0                 !
 ! A18   A(11,6,13)            108.9168         -DE/DX =    0.0                 !
 ! A19   A(12,6,13)            108.4427         -DE/DX =    0.0                 !
 ! A20   A(4,7,14)             111.7019         -DE/DX =    0.0                 !
 ! A21   A(4,7,15)             109.663          -DE/DX =    0.0                 !
 ! A22   A(4,7,16)             109.5237         -DE/DX =    0.0                 !
 ! A23   A(14,7,15)            108.5289         -DE/DX =    0.0                 !
 ! A24   A(14,7,16)            108.6515         -DE/DX =    0.0                 !
 ! A25   A(15,7,16)            108.7135         -DE/DX =    0.0                 !
 ! A26   L(1,3,4,12,-1)        167.477          -DE/DX =    0.0                 !
 ! A27   L(1,3,4,12,-2)        186.3644         -DE/DX =    0.0                 !
 ! D1    D(2,1,4,5)            -65.6396         -DE/DX =    0.0                 !
 ! D2    D(2,1,4,6)            179.983          -DE/DX =    0.0                 !
 ! D3    D(2,1,4,7)             65.6017         -DE/DX =    0.0                 !
 ! D4    D(3,4,5,8)           -169.789          -DE/DX =    0.0                 !
 ! D5    D(3,4,5,9)             69.8502         -DE/DX =    0.0                 !
 ! D6    D(3,4,5,10)           -49.3709         -DE/DX =    0.0                 !
 ! D7    D(6,4,5,8)            -60.5313         -DE/DX =    0.0                 !
 ! D8    D(6,4,5,9)            179.108          -DE/DX =    0.0                 !
 ! D9    D(6,4,5,10)            59.8868         -DE/DX =    0.0                 !
 ! D10   D(7,4,5,8)             61.1576         -DE/DX =    0.0                 !
 ! D11   D(7,4,5,9)            -59.2032         -DE/DX =    0.0                 !
 ! D12   D(7,4,5,10)          -178.4243         -DE/DX =    0.0                 !
 ! D13   D(3,4,6,11)           179.9878         -DE/DX =    0.0                 !
 ! D14   D(3,4,6,12)            59.3544         -DE/DX =    0.0                 !
 ! D15   D(3,4,6,13)           -59.3795         -DE/DX =    0.0                 !
 ! D16   D(5,4,6,11)            60.9131         -DE/DX =    0.0                 !
 ! D17   D(5,4,6,12)           -59.7203         -DE/DX =    0.0                 !
 ! D18   D(5,4,6,13)          -178.4542         -DE/DX =    0.0                 !
 ! D19   D(7,4,6,11)           -60.9176         -DE/DX =    0.0                 !
 ! D20   D(7,4,6,12)           178.449          -DE/DX =    0.0                 !
 ! D21   D(7,4,6,13)            59.7151         -DE/DX =    0.0                 !
 ! D22   D(3,4,7,14)           169.7725         -DE/DX =    0.0                 !
 ! D23   D(3,4,7,15)           -69.8686         -DE/DX =    0.0                 !
 ! D24   D(3,4,7,16)            49.353          -DE/DX =    0.0                 !
 ! D25   D(5,4,7,14)           -61.184          -DE/DX =    0.0                 !
 ! D26   D(5,4,7,15)            59.1749         -DE/DX =    0.0                 !
 ! D27   D(5,4,7,16)           178.3965         -DE/DX =    0.0                 !
 ! D28   D(6,4,7,14)            60.5061         -DE/DX =    0.0                 !
 ! D29   D(6,4,7,15)          -179.135          -DE/DX =    0.0                 !
 ! D30   D(6,4,7,16)           -59.9134         -DE/DX =    0.0                 !
 --------------------------------------------------------------------------------
 GradGradGradGradGradGradGradGradGradGradGradGradGradGradGradGradGradGrad

                          Input orientation:                          
 ---------------------------------------------------------------------
 Center     Atomic      Atomic             Coordinates (Angstroms)
 Number     Number       Type             X           Y           Z
 ---------------------------------------------------------------------
      1          8           0       -2.491292    0.000044    0.131071
      2          1           0       -2.855619    0.001220    1.019911
      3          1           0       -1.516284    0.000248    0.255409
      4          7           0        0.329399    0.000048    0.049288
      5          6           0        0.975879    1.196162    0.570426
      6          6           0        0.380649   -0.002335   -1.408005
      7          6           0        0.976483   -1.194042    0.574307
      8          1           0        2.034393    1.248173    0.274771
      9          1           0        0.919780    1.198733    1.658262
     10          1           0        0.464769    2.080281    0.192115
     11          1           0        1.417003   -0.002644   -1.776337
     12          1           0       -0.129661    0.880280   -1.790429
     13          1           0       -0.129143   -0.886505   -1.787519
     14          1           0        2.034899   -1.246697    0.278422
     15          1           0        0.920818   -1.192849    1.662167
     16          1           0        0.465525   -2.079642    0.199271
 ---------------------------------------------------------------------
                    Distance matrix (angstroms):
                    1          2          3          4          5
     1  O    0.000000
     2  H    0.960610   0.000000
     3  H    0.982904   1.542168   0.000000
     4  N    2.821876   3.329632   1.857157   0.000000
     5  C    3.693915   4.038601   2.782143   1.456094   0.000000
     6  C    3.258344   4.045766   2.522956   1.458196   2.388490
     7  C    3.694288   4.038839   2.782429   1.456095   2.390207
     8  H    4.696839   5.101210   3.763642   2.125009   1.100259
     9  H    3.924867   4.011878   3.055940   2.091457   1.089285
    10  H    3.615164   4.004088   2.873171   2.089520   1.089045
    11  H    4.348906   5.106302   3.568217   2.125040   2.671895
    12  H    3.169271   4.012680   2.623477   2.090479   2.625954
    13  H    3.169654   4.012903   2.623747   2.090478   3.334438
    14  H    4.697071   5.101399   3.763815   2.124995   2.678498
    15  H    3.925525   4.012452   3.056455   2.091449   2.627224
    16  H    3.615593   4.004177   2.873441   2.089530   3.336032
                    6          7          8          9         10
     6  C    0.000000
     7  C    2.388461   0.000000
     8  H    2.670276   2.678303   0.000000
     9  H    3.336948   2.627460   1.777316   0.000000
    10  H    2.627689   3.336033   1.778470   1.770240   0.000000
    11  H    1.099863   2.671893   2.480475   3.672466   3.019955
    12  H    1.088886   3.334418   3.013889   3.618868   2.392453
    13  H    1.088887   2.625873   3.672979   4.161954   3.615730
    14  H    2.670022   1.100257   2.494873   3.021188   3.679883
    15  H    3.336924   1.089284   3.020514   2.391585   3.616962
    16  H    2.627878   1.089044   3.679864   3.617008   4.159929
                   11         12         13         14         15
    11  H    0.000000
    12  H    1.780989   0.000000
    13  H    1.780984   1.766787   0.000000
    14  H    2.480221   3.672805   3.013458   0.000000
    15  H    3.672342   4.161945   3.618922   1.777309   0.000000
    16  H    3.020308   3.615839   2.392601   1.778482   1.770242
                   16
    16  H    0.000000
 Stoichiometry    C3H11NO
 Framework group  C1[X(C3H11NO)]
 Deg. of freedom    42
 Full point group                 C1      NOp   1
 Largest Abelian subgroup         C1      NOp   1
 Largest concise Abelian subgroup C1      NOp   1
                         Standard orientation:                         
 ---------------------------------------------------------------------
 Center     Atomic      Atomic             Coordinates (Angstroms)
 Number     Number       Type             X           Y           Z
 ---------------------------------------------------------------------
      1          8           0        2.491292    0.000044   -0.131071
      2          1           0        2.855619    0.001220   -1.019911
      3          1           0        1.516284    0.000248   -0.255409
      4          7           0       -0.329399    0.000048   -0.049288
      5          6           0       -0.975879    1.196162   -0.570426
      6          6           0       -0.380649   -0.002335    1.408005
      7          6           0       -0.976483   -1.194042   -0.574307
      8          1           0       -2.034393    1.248173   -0.274771
      9          1           0       -0.919780    1.198733   -1.658262
     10          1           0       -0.464769    2.080281   -0.192115
     11          1           0       -1.417003   -0.002644    1.776337
     12          1           0        0.129661    0.880280    1.790429
     13          1           0        0.129143   -0.886505    1.787519
     14          1           0       -2.034899   -1.246697   -0.278422
     15          1           0       -0.920818   -1.192849   -1.662167
     16          1           0       -0.465525   -2.079642   -0.199271
 ---------------------------------------------------------------------
 Rotational constants (GHZ):           5.1010281           2.5678758           2.5406750
 Unable to Open any file for archive entry.
 1\1\GINC-N3047\FOpt\RMP2-FC\Aug-CC-pVTZ\C3H11N1O1\GDS001\29-Mar-2025\0
 \\# MP2/aug-cc-pVTZ opt freq=(vibrot,anharmonic,selectAnharmonicModes)
 \\blah\\0,1\O,-2.491292,0.000044,0.131071\H,-2.855619,0.00122,1.019911
 \H,-1.516284,0.000248,0.255409\N,0.329399,0.000048,0.049288\C,0.975879
 ,1.196162,0.570426\C,0.380649,-0.002335,-1.408005\C,0.976483,-1.194042
 ,0.574307\H,2.034393,1.248173,0.274771\H,0.91978,1.198733,1.658262\H,0
 .464769,2.080281,0.192115\H,1.417003,-0.002644,-1.776337\H,-0.129661,0
 .88028,-1.790429\H,-0.129143,-0.886505,-1.787519\H,2.034899,-1.246697,
 0.278422\H,0.920818,-1.192849,1.662167\H,0.465525,-2.079642,0.199271\\
 Version=EM64L-G16RevC.01\State=1-A\HF=-249.4009072\MP2=-250.4435772\RM
 SD=7.824e-09\RMSF=4.685e-06\Dipole=1.0395337,0.0006753,0.4461141\PG=C0
 1 [X(C3H11N1O1)]\\@
 The archive entry for this job was punched.


 Just remember, when you're over the hill, you begin to pick up speed.
 -- Charles Schulz
 Job cpu time:       0 days  7 hours  8 minutes 45.6 seconds.
 Elapsed time:       0 days  0 hours 10 minutes 47.8 seconds.
 File lengths (MBytes):  RWF=  37355 Int=      0 D2E=      0 Chk=     23 Scr=      1
 Normal termination of Gaussian 16 at Sat Mar 29 11:26:33 2025.
 Link1:  Proceeding to internal job step number  2.
 ----------------------------------------------------------------------
 #N Geom=AllCheck Guess=TCheck SCRF=Check GenChk RMP2(FC)/Aug-CC-pVTZ F
 req
 ----------------------------------------------------------------------
 1/10=4,29=7,30=1,38=21,40=1,80=1/1,6,3;
 2/12=2,40=1/2;
 3/5=16,6=1,7=10,11=1,14=-4,25=1,30=1,70=2,71=2,116=1,140=1/1,2,3;
 4/5=101,69=2/1;
 5/5=2,38=6,98=1/2;
 8/6=3,8=1,10=1,19=11,30=-1/1;
 9/15=3,16=-3/6;
 11/6=1,8=1,15=11,17=12,24=-1,27=1,28=-2,29=300,32=6,42=3/1,2,10;
 10/6=2,21=1,60=-2/2;
 8/6=4,8=1,10=1,19=11,30=-1/11,4;
 10/5=1,20=4,60=-2/2;
 11/12=2,14=11,16=1,17=2,28=-2,42=3,76=2/2,10,12;
 6/7=2,8=2,9=2,10=2,22=-1/1;
 7/10=1,12=2,25=1,44=2,70=1,71=2,72=2/1,2,3,16;
 1/38=20,80=1/6(3);
 7/8=1,25=202,44=-1,70=1,71=1,72=2,92=10/16,17;
 1/10=4,30=1,38=20,80=1/3;
 99//99;
 3/5=16,6=1,7=10,11=1,14=-2,25=1,30=1,70=5,71=2,116=1,140=1/1,2,3;
 4/5=5,16=3,69=2/1;
 5/5=2,38=5,98=1/2;
 8/6=3,8=1,10=1,19=11,30=-1/1;
 9/15=3,16=-3/6;
 11/6=1,8=1,15=11,17=12,24=-1,27=1,28=-2,29=300,32=6,42=3/1,2,10;
 10/6=2,21=1,60=-2/2;
 8/6=4,8=1,10=1,19=11,30=-1/11,4;
 10/5=1,20=4,60=-2/2;
 11/12=2,14=11,16=1,17=2,28=-2,42=3,76=2/2,10,12;
 6/7=2,8=2,9=2,10=2,22=-1/1;
 7/7=1,10=1,12=2,25=1,44=2,70=1,71=1,72=2/1,2,3,16;
 1/38=20,80=1/6(-12);
 7/8=1,25=202,44=-1,70=1,71=1,72=2,92=10/16,17;
 1/10=4,30=1,38=20,80=1/3;
 99//99;
 Structure from the checkpoint file:  "/scr/Gau-79104.chk"
 ----
 blah
 ----
 Charge =  0 Multiplicity = 1
 Redundant internal coordinates found in file.  (old form).
 O,0,-2.491292,0.000044,0.131071
 H,0,-2.855619,0.00122,1.019911
 H,0,-1.516284,0.000248,0.255409
 N,0,0.329399,0.000048,0.049288
 C,0,0.975879,1.196162,0.570426
 C,0,0.380649,-0.002335,-1.408005
 C,0,0.976483,-1.194042,0.574307
 H,0,2.034393,1.248173,0.274771
 H,0,0.91978,1.198733,1.658262
 H,0,0.464769,2.080281,0.192115
 H,0,1.417003,-0.002644,-1.776337
 H,0,-0.129661,0.88028,-1.790429
 H,0,-0.129143,-0.886505,-1.787519
 H,0,2.034899,-1.246697,0.278422
 H,0,0.920818,-1.192849,1.662167
 H,0,0.465525,-2.079642,0.199271
 Recover connectivity data from disk.
 Numerical evaluation of third derivatives.
 Nuclear step= 0.010000 Angstroms, electric field step= 0.000333 atomic units, NStep=1.

 GradGradGradGradGradGradGradGradGradGradGradGradGradGradGradGradGradGrad
 Berny optimization.
 Initialization pass.
                           ----------------------------
                           !    Initial Parameters    !
                           ! (Angstroms and Degrees)  !
 --------------------------                            --------------------------
 ! Name  Definition              Value          Derivative Info.                !
 --------------------------------------------------------------------------------
 ! R1    R(1,2)                  0.9606         calculate D2E/DX2 analytically  !
 ! R2    R(1,3)                  0.9829         calculate D2E/DX2 analytically  !
 ! R3    R(3,4)                  1.8572         calculate D2E/DX2 analytically  !
 ! R4    R(4,5)                  1.4561         calculate D2E/DX2 analytically  !
 ! R5    R(4,6)                  1.4582         calculate D2E/DX2 analytically  !
 ! R6    R(4,7)                  1.4561         calculate D2E/DX2 analytically  !
 ! R7    R(5,8)                  1.1003         calculate D2E/DX2 analytically  !
 ! R8    R(5,9)                  1.0893         calculate D2E/DX2 analytically  !
 ! R9    R(5,10)                 1.089          calculate D2E/DX2 analytically  !
 ! R10   R(6,11)                 1.0999         calculate D2E/DX2 analytically  !
 ! R11   R(6,12)                 1.0889         calculate D2E/DX2 analytically  !
 ! R12   R(6,13)                 1.0889         calculate D2E/DX2 analytically  !
 ! R13   R(7,14)                 1.1003         calculate D2E/DX2 analytically  !
 ! R14   R(7,15)                 1.0893         calculate D2E/DX2 analytically  !
 ! R15   R(7,16)                 1.089          calculate D2E/DX2 analytically  !
 ! A1    A(2,1,3)              105.0208         calculate D2E/DX2 analytically  !
 ! A2    A(3,4,5)              113.6675         calculate D2E/DX2 analytically  !
 ! A3    A(3,4,6)               98.3864         calculate D2E/DX2 analytically  !
 ! A4    A(3,4,7)              113.6858         calculate D2E/DX2 analytically  !
 ! A5    A(5,4,6)              110.0852         calculate D2E/DX2 analytically  !
 ! A6    A(5,4,7)              110.3218         calculate D2E/DX2 analytically  !
 ! A7    A(6,4,7)              110.0832         calculate D2E/DX2 analytically  !
 ! A8    A(4,5,8)              111.703          calculate D2E/DX2 analytically  !
 ! A9    A(4,5,9)              109.6637         calculate D2E/DX2 analytically  !
 ! A10   A(4,5,10)             109.5229         calculate D2E/DX2 analytically  !
 ! A11   A(8,5,9)              108.5294         calculate D2E/DX2 analytically  !
 ! A12   A(8,5,10)             108.6503         calculate D2E/DX2 analytically  !
 ! A13   A(9,5,10)             108.7131         calculate D2E/DX2 analytically  !
 ! A14   A(4,6,11)             111.5799         calculate D2E/DX2 analytically  !
 ! A15   A(4,6,12)             109.4627         calculate D2E/DX2 analytically  !
 ! A16   A(4,6,13)             109.4625         calculate D2E/DX2 analytically  !
 ! A17   A(11,6,12)            108.9174         calculate D2E/DX2 analytically  !
 ! A18   A(11,6,13)            108.9168         calculate D2E/DX2 analytically  !
 ! A19   A(12,6,13)            108.4427         calculate D2E/DX2 analytically  !
 ! A20   A(4,7,14)             111.7019         calculate D2E/DX2 analytically  !
 ! A21   A(4,7,15)             109.663          calculate D2E/DX2 analytically  !
 ! A22   A(4,7,16)             109.5237         calculate D2E/DX2 analytically  !
 ! A23   A(14,7,15)            108.5289         calculate D2E/DX2 analytically  !
 ! A24   A(14,7,16)            108.6515         calculate D2E/DX2 analytically  !
 ! A25   A(15,7,16)            108.7135         calculate D2E/DX2 analytically  !
 ! A26   L(1,3,4,12,-1)        167.477          calculate D2E/DX2 analytically  !
 ! A27   L(1,3,4,12,-2)        186.3644         calculate D2E/DX2 analytically  !
 ! D1    D(2,1,4,5)            -65.6396         calculate D2E/DX2 analytically  !
 ! D2    D(2,1,4,6)            179.983          calculate D2E/DX2 analytically  !
 ! D3    D(2,1,4,7)             65.6017         calculate D2E/DX2 analytically  !
 ! D4    D(3,4,5,8)           -169.789          calculate D2E/DX2 analytically  !
 ! D5    D(3,4,5,9)             69.8502         calculate D2E/DX2 analytically  !
 ! D6    D(3,4,5,10)           -49.3709         calculate D2E/DX2 analytically  !
 ! D7    D(6,4,5,8)            -60.5313         calculate D2E/DX2 analytically  !
 ! D8    D(6,4,5,9)            179.108          calculate D2E/DX2 analytically  !
 ! D9    D(6,4,5,10)            59.8868         calculate D2E/DX2 analytically  !
 ! D10   D(7,4,5,8)             61.1576         calculate D2E/DX2 analytically  !
 ! D11   D(7,4,5,9)            -59.2032         calculate D2E/DX2 analytically  !
 ! D12   D(7,4,5,10)          -178.4243         calculate D2E/DX2 analytically  !
 ! D13   D(3,4,6,11)           179.9878         calculate D2E/DX2 analytically  !
 ! D14   D(3,4,6,12)            59.3544         calculate D2E/DX2 analytically  !
 ! D15   D(3,4,6,13)           -59.3795         calculate D2E/DX2 analytically  !
 ! D16   D(5,4,6,11)            60.9131         calculate D2E/DX2 analytically  !
 ! D17   D(5,4,6,12)           -59.7203         calculate D2E/DX2 analytically  !
 ! D18   D(5,4,6,13)          -178.4542         calculate D2E/DX2 analytically  !
 ! D19   D(7,4,6,11)           -60.9176         calculate D2E/DX2 analytically  !
 ! D20   D(7,4,6,12)           178.449          calculate D2E/DX2 analytically  !
 ! D21   D(7,4,6,13)            59.7151         calculate D2E/DX2 analytically  !
 ! D22   D(3,4,7,14)           169.7725         calculate D2E/DX2 analytically  !
 ! D23   D(3,4,7,15)           -69.8686         calculate D2E/DX2 analytically  !
 ! D24   D(3,4,7,16)            49.353          calculate D2E/DX2 analytically  !
 ! D25   D(5,4,7,14)           -61.184          calculate D2E/DX2 analytically  !
 ! D26   D(5,4,7,15)            59.1749         calculate D2E/DX2 analytically  !
 ! D27   D(5,4,7,16)           178.3965         calculate D2E/DX2 analytically  !
 ! D28   D(6,4,7,14)            60.5061         calculate D2E/DX2 analytically  !
 ! D29   D(6,4,7,15)          -179.135          calculate D2E/DX2 analytically  !
 ! D30   D(6,4,7,16)           -59.9134         calculate D2E/DX2 analytically  !
 --------------------------------------------------------------------------------
 Trust Radius=3.00D-01 FncErr=1.00D-07 GrdErr=1.00D-07 EigMax=2.50D+02 EigMin=1.00D-04
 Number of steps in this run=      2 maximum allowed number of steps=      2.
 GradGradGradGradGradGradGradGradGradGradGradGradGradGradGradGradGradGrad

                          Input orientation:                          
 ---------------------------------------------------------------------
 Center     Atomic      Atomic             Coordinates (Angstroms)
 Number     Number       Type             X           Y           Z
 ---------------------------------------------------------------------
      1          8           0       -2.491292    0.000044    0.131071
      2          1           0       -2.855619    0.001220    1.019911
      3          1           0       -1.516284    0.000248    0.255409
      4          7           0        0.329399    0.000048    0.049288
      5          6           0        0.975879    1.196162    0.570426
      6          6           0        0.380649   -0.002335   -1.408005
      7          6           0        0.976483   -1.194042    0.574307
      8          1           0        2.034393    1.248173    0.274771
      9          1           0        0.919780    1.198733    1.658262
     10          1           0        0.464769    2.080281    0.192115
     11          1           0        1.417003   -0.002644   -1.776337
     12          1           0       -0.129661    0.880280   -1.790429
     13          1           0       -0.129143   -0.886505   -1.787519
     14          1           0        2.034899   -1.246697    0.278422
     15          1           0        0.920818   -1.192849    1.662167
     16          1           0        0.465525   -2.079642    0.199271
 ---------------------------------------------------------------------
                    Distance matrix (angstroms):
                    1          2          3          4          5
     1  O    0.000000
     2  H    0.960610   0.000000
     3  H    0.982904   1.542168   0.000000
     4  N    2.821876   3.329632   1.857157   0.000000
     5  C    3.693915   4.038601   2.782143   1.456094   0.000000
     6  C    3.258344   4.045766   2.522956   1.458196   2.388490
     7  C    3.694288   4.038839   2.782429   1.456095   2.390207
     8  H    4.696839   5.101210   3.763642   2.125009   1.100259
     9  H    3.924867   4.011878   3.055940   2.091457   1.089285
    10  H    3.615164   4.004088   2.873171   2.089520   1.089045
    11  H    4.348906   5.106302   3.568217   2.125040   2.671895
    12  H    3.169271   4.012680   2.623477   2.090479   2.625954
    13  H    3.169654   4.012903   2.623747   2.090478   3.334438
    14  H    4.697071   5.101399   3.763815   2.124995   2.678498
    15  H    3.925525   4.012452   3.056455   2.091449   2.627224
    16  H    3.615593   4.004177   2.873441   2.089530   3.336032
                    6          7          8          9         10
     6  C    0.000000
     7  C    2.388461   0.000000
     8  H    2.670276   2.678303   0.000000
     9  H    3.336948   2.627460   1.777316   0.000000
    10  H    2.627689   3.336033   1.778470   1.770240   0.000000
    11  H    1.099863   2.671893   2.480475   3.672466   3.019955
    12  H    1.088886   3.334418   3.013889   3.618868   2.392453
    13  H    1.088887   2.625873   3.672979   4.161954   3.615730
    14  H    2.670022   1.100257   2.494873   3.021188   3.679883
    15  H    3.336924   1.089284   3.020514   2.391585   3.616962
    16  H    2.627878   1.089044   3.679864   3.617008   4.159929
                   11         12         13         14         15
    11  H    0.000000
    12  H    1.780989   0.000000
    13  H    1.780984   1.766787   0.000000
    14  H    2.480221   3.672805   3.013458   0.000000
    15  H    3.672342   4.161945   3.618922   1.777309   0.000000
    16  H    3.020308   3.615839   2.392601   1.778482   1.770242
                   16
    16  H    0.000000
 Stoichiometry    C3H11NO
 Framework group  C1[X(C3H11NO)]
 Deg. of freedom    42
 Full point group                 C1      NOp   1
 Largest Abelian subgroup         C1      NOp   1
 Largest concise Abelian subgroup C1      NOp   1
                         Standard orientation:                         
 ---------------------------------------------------------------------
 Center     Atomic      Atomic             Coordinates (Angstroms)
 Number     Number       Type             X           Y           Z
 ---------------------------------------------------------------------
      1          8           0        2.491292    0.000044   -0.131071
      2          1           0        2.855619    0.001220   -1.019911
      3          1           0        1.516284    0.000248   -0.255409
      4          7           0       -0.329399    0.000048   -0.049288
      5          6           0       -0.975879    1.196162   -0.570426
      6          6           0       -0.380649   -0.002335    1.408005
      7          6           0       -0.976483   -1.194042   -0.574307
      8          1           0       -2.034393    1.248173   -0.274771
      9          1           0       -0.919780    1.198733   -1.658262
     10          1           0       -0.464769    2.080281   -0.192115
     11          1           0       -1.417003   -0.002644    1.776337
     12          1           0        0.129661    0.880280    1.790429
     13          1           0        0.129143   -0.886505    1.787519
     14          1           0       -2.034899   -1.246697   -0.278422
     15          1           0       -0.920818   -1.192849   -1.662167
     16          1           0       -0.465525   -2.079642   -0.199271
 ---------------------------------------------------------------------
 Rotational constants (GHZ):           5.1010281           2.5678758           2.5406750
 Standard basis: Aug-CC-pVTZ (5D, 7F)
 There are   550 symmetry adapted cartesian basis functions of A   symmetry.
 There are   483 symmetry adapted basis functions of A   symmetry.
   483 basis functions,   657 primitive gaussians,   550 cartesian basis functions
    22 alpha electrons       22 beta electrons
       nuclear repulsion energy       201.6592054539 Hartrees.
 NAtoms=   16 NActive=   16 NUniq=   16 SFac= 1.00D+00 NAtFMM=   60 NAOKFM=F Big=F
 Integral buffers will be    131072 words long.
 Raffenetti 1 integral format.
 Two-electron integral symmetry is turned on.
 One-electron integrals computed using PRISM.
 NBasis=   483 RedAO= T EigKep=  3.77D-06  NBF=   483
 NBsUse=   483 1.00D-06 EigRej= -1.00D+00 NBFU=   483
 Initial guess from the checkpoint file:  "/scr/Gau-79104.chk"
 B after Tr=     0.000000    0.000000   -0.000000
         Rot=    1.000000   -0.000000    0.000000    0.000000 Ang=   0.00 deg.
 Requested convergence on RMS density matrix=1.00D-08 within 128 cycles.
 Requested convergence on MAX density matrix=1.00D-06.
 Requested convergence on             energy=1.00D-06.
 No special actions if energy rises.
 SCF Done:  E(RHF) =  -249.400907228     A.U. after    1 cycles
            NFock=  1  Conv=0.11D-08     -V/T= 2.0012
 ExpMin= 2.53D-02 ExpMax= 1.53D+04 ExpMxC= 5.22D+02 IAcc=3 IRadAn=         5 AccDes= 0.00D+00
 HarFok:  IExCor=  205 AccDes= 0.00D+00 IRadAn=         5 IDoV=-2 UseB2=F ITyADJ=14
 ICtDFT= 12500011 ScaDFX=  1.000000  1.000000  1.000000  1.000000
 Range of M.O.s used for correlation:     6   483
 NBasis=   483 NAE=    22 NBE=    22 NFC=     5 NFV=     0
 NROrb=    478 NOA=    17 NOB=    17 NVA=   461 NVB=   461

 **** Warning!!: The largest alpha MO coefficient is  0.13009506D+03

 Disk-based method using ON**2 memory for 17 occupieds at a time.
 Permanent disk used for amplitudes=   127353094 words.
 Estimated scratch disk usage=  5065747952 words.
 Actual    scratch disk usage=  4898293232 words.
 JobTyp=1 Pass  1:  I=   6 to  22 NPSUse= 40 ParTrn=T ParDer=T DoDerP=T.
 Spin components of T(2) and E(2):
     alpha-alpha T2 =       0.3587483903D-01 E2=     -0.1190405964D+00
     alpha-beta  T2 =       0.2224553205D+00 E2=     -0.8045887662D+00
     beta-beta   T2 =       0.3587483903D-01 E2=     -0.1190405964D+00
 ANorm=    0.1137631310D+01
 E2 =    -0.1042669959D+01 EUMP2 =    -0.25044357718716D+03
 G2DrvN: will do    17 centers at a time, making    1 passes.
 Calling FoFCou, ICntrl=  3107 FMM=F I1Cent=   0 AccDes= 0.00D+00.
 End of G2Drv F.D. properties file   721 does not exist.
 End of G2Drv F.D. properties file   722 does not exist.
 End of G2Drv F.D. properties file   788 does not exist.
          IDoAtm=1111111111111111
          Differentiating once with respect to electric field.
                with respect to dipole field.
          Differentiating once with respect to nuclear coordinates.
          There are    51 degrees of freedom in the 1st order CPHF.  IDoFFX=6 NUNeed=    51.
     48 vectors produced by pass  0 Test12= 1.99D-14 1.96D-09 XBig12= 1.41D+01 6.66D-01.
 AX will form    48 AO Fock derivatives at one time.
     48 vectors produced by pass  1 Test12= 1.99D-14 1.96D-09 XBig12= 5.23D-01 1.16D-01.
     48 vectors produced by pass  2 Test12= 1.99D-14 1.96D-09 XBig12= 9.62D-03 1.08D-02.
     48 vectors produced by pass  3 Test12= 1.99D-14 1.96D-09 XBig12= 1.15D-04 1.68D-03.
     48 vectors produced by pass  4 Test12= 1.99D-14 1.96D-09 XBig12= 9.28D-07 1.26D-04.
     48 vectors produced by pass  5 Test12= 1.99D-14 1.96D-09 XBig12= 6.03D-09 8.83D-06.
     46 vectors produced by pass  6 Test12= 1.99D-14 1.96D-09 XBig12= 3.38D-11 5.95D-07.
      6 vectors produced by pass  7 Test12= 1.99D-14 1.96D-09 XBig12= 1.61D-13 5.65D-08.
      3 vectors produced by pass  8 Test12= 1.99D-14 1.96D-09 XBig12= 8.00D-16 3.73D-09.
 InvSVY:  IOpt=1 It=  1 EMax= 4.00D-15
 Solved reduced A of dimension   343 with    51 vectors.
 End of Minotr F.D. properties file   721 does not exist.
 End of Minotr F.D. properties file   722 does not exist.
 End of Minotr F.D. properties file   788 does not exist.
 MDV=  6710886400.
 Form MO integral derivatives with frozen-active canonical formalism.
 Discarding MO integrals.
 Reordered first order wavefunction length =    205720328
 In DefCFB: NBatch=  1 ICI= 22 ICA=461 LFMax= 66
            Large arrays: LIAPS= 10776889200 LIARS=  2147568500 words.
 Semi-Direct transformation.
 ModeAB=           4 MOrb=            22 LenV=    6705180133
 LASXX=   1205078952 LTotXX=  1205078952 LenRXX=  2417542996
 LTotAB=  1212464044 MaxLAS=  1599850560 LenRXY=           0
 NonZer=  3622621948 LenScr=  7273656832 LnRSAI=  1599850560
 LnScr1=  2409187328 LExtra=           0 Total=  13700237716
 MaxDsk=          -1 SrtSym=           T ITran=            4
 JobTyp=0 Pass  1:  I=   1 to  22.
 (rs|ai) integrals will be sorted in core.
[...]
 Alpha  occ. eigenvalues --   -0.55627  -0.54652  -0.52853  -0.51175  -0.51162
 Alpha  occ. eigenvalues --   -0.46972  -0.37940
 Alpha virt. eigenvalues --    0.02606   0.03702   0.03914   0.04241   0.05765
 Alpha virt. eigenvalues --    0.05844   0.05869   0.06240   0.06424   0.08037
 Alpha virt. eigenvalues --    0.09808   0.11738   0.11997   0.12395   0.12951
 Alpha virt. eigenvalues --    0.13046   0.13164   0.13869   0.14951   0.16273
 Alpha virt. eigenvalues --    0.17470   0.17610   0.17926   0.18264   0.18644
 Alpha virt. eigenvalues --    0.19081   0.19862   0.20872   0.22927   0.23388
 Alpha virt. eigenvalues --    0.24603   0.25562   0.25845   0.27578   0.28238
 Alpha virt. eigenvalues --    0.28905   0.29899   0.30418   0.30859   0.32719
 Alpha virt. eigenvalues --    0.33518   0.33905   0.35052   0.35723   0.36056
 Alpha virt. eigenvalues --    0.36565   0.36813   0.37925   0.38087   0.38284
 Alpha virt. eigenvalues --    0.38541   0.39061   0.39678   0.39869   0.39898
 Alpha virt. eigenvalues --    0.40902   0.41156   0.41258   0.43347   0.44061
 Alpha virt. eigenvalues --    0.44116   0.45117   0.45608   0.45823   0.45994
 Alpha virt. eigenvalues --    0.46859   0.47299   0.48057   0.48618   0.49276
 Alpha virt. eigenvalues --    0.50410   0.50843   0.51160   0.52017   0.52484
 Alpha virt. eigenvalues --    0.53198   0.53612   0.54001   0.54403   0.55694
 Alpha virt. eigenvalues --    0.56877   0.57151   0.58024   0.60500   0.61675
 Alpha virt. eigenvalues --    0.61875   0.63081   0.64480   0.64515   0.65799
 Alpha virt. eigenvalues --    0.65950   0.67294   0.67318   0.69630   0.70189
 Alpha virt. eigenvalues --    0.74753   0.75353   0.75673   0.76441   0.76874
 Alpha virt. eigenvalues --    0.78225   0.78353   0.79383   0.80282   0.81286
 Alpha virt. eigenvalues --    0.81449   0.82680   0.83411   0.83722   0.86238
 Alpha virt. eigenvalues --    0.87163   0.87306   0.87524   0.87543   0.90438
 Alpha virt. eigenvalues --    0.91258   0.91807   0.93296   0.93368   0.93685
 Alpha virt. eigenvalues --    0.94194   0.94341   0.94836   0.95320   0.96600
 Alpha virt. eigenvalues --    0.97057   0.98589   0.99809   0.99858   1.00313
 Alpha virt. eigenvalues --    1.01231   1.02873   1.03471   1.04151   1.04773
 Alpha virt. eigenvalues --    1.06034   1.06264   1.08697   1.10262   1.11099
 Alpha virt. eigenvalues --    1.12553   1.12696   1.13200   1.13829   1.14963
 Alpha virt. eigenvalues --    1.16895   1.18648   1.18988   1.20148   1.20249
 Alpha virt. eigenvalues --    1.20590   1.20814   1.23074   1.23114   1.23282
 Alpha virt. eigenvalues --    1.24805   1.24971   1.26565   1.27011   1.27907
 Alpha virt. eigenvalues --    1.28086   1.30935   1.31319   1.32061   1.34803
 Alpha virt. eigenvalues --    1.34964   1.35806   1.37360   1.38533   1.39508
 Alpha virt. eigenvalues --    1.41391   1.41717   1.42030   1.42892   1.45163
 Alpha virt. eigenvalues --    1.45168   1.46623   1.49350   1.49709   1.51131
 Alpha virt. eigenvalues --    1.53078   1.54038   1.54220   1.55198   1.55634
 Alpha virt. eigenvalues --    1.56702   1.58382   1.58606   1.59895   1.61695
 Alpha virt. eigenvalues --    1.62057   1.62594   1.64305   1.64835   1.65274
 Alpha virt. eigenvalues --    1.67719   1.68635   1.69841   1.70248   1.70897
 Alpha virt. eigenvalues --    1.72297   1.73508   1.73806   1.74076   1.74299
 Alpha virt. eigenvalues --    1.76881   1.78008   1.78241   1.80605   1.80837
 Alpha virt. eigenvalues --    1.82191   1.83582   1.84423   1.86475   1.89241
 Alpha virt. eigenvalues --    1.90479   1.90945   1.91901   1.94039   1.96357
 Alpha virt. eigenvalues --    1.97406   1.97887   1.99040   2.01670   2.01725
 Alpha virt. eigenvalues --    2.04160   2.07138   2.09932   2.10435   2.12400
 Alpha virt. eigenvalues --    2.12650   2.14828   2.17073   2.17438   2.18360
 Alpha virt. eigenvalues --    2.19078   2.20119   2.21330   2.24801   2.25221
 Alpha virt. eigenvalues --    2.26015   2.27807   2.28129   2.29025   2.33480
 Alpha virt. eigenvalues --    2.35320   2.35934   2.36331   2.37299   2.41480
 Alpha virt. eigenvalues --    2.45001   2.45266   2.47373   2.47412   2.49344
 Alpha virt. eigenvalues --    2.51755   2.53245   2.54247   2.55905   2.57172
 Alpha virt. eigenvalues --    2.57221   2.63503   2.64107   2.67334   2.68030
 Alpha virt. eigenvalues --    2.70201   2.70342   2.73040   2.77145   2.82360
 Alpha virt. eigenvalues --    2.82413   2.89184   2.94034   2.97409   3.01146
 Alpha virt. eigenvalues --    3.03402   3.03756   3.13196   3.15951   3.18669
 Alpha virt. eigenvalues --    3.21215   3.21602   3.39026   3.42484   3.46361
 Alpha virt. eigenvalues --    3.46500   3.48042   3.52961   3.57081   3.58401
 Alpha virt. eigenvalues --    3.59635   3.60576   3.62905   3.65737   3.67861
 Alpha virt. eigenvalues --    3.68463   3.69276   3.74869   3.75532   3.78134
 Alpha virt. eigenvalues --    3.78457   3.78824   3.79871   3.85490   3.86063
 Alpha virt. eigenvalues --    3.87217   3.88492   3.88617   3.91951   3.92400
 Alpha virt. eigenvalues --    3.92485   3.92951   3.93644   3.95087   3.97786
 Alpha virt. eigenvalues --    4.00272   4.01287   4.01647   4.02444   4.04265
 Alpha virt. eigenvalues --    4.04657   4.09378   4.11612   4.11690   4.14643
 Alpha virt. eigenvalues --    4.16797   4.20683   4.20911   4.23178   4.23894
 Alpha virt. eigenvalues --    4.24949   4.27193   4.27224   4.29670   4.30360
 Alpha virt. eigenvalues --    4.31744   4.31799   4.34323   4.34384   4.36489
 Alpha virt. eigenvalues --    4.37503   4.39573   4.40169   4.42389   4.46625
 Alpha virt. eigenvalues --    4.48737   4.48946   4.50164   4.54842   4.55382
 Alpha virt. eigenvalues --    4.57802   4.58068   4.64617   4.65006   4.66702
 Alpha virt. eigenvalues --    4.67833   4.68044   4.70086   4.71251   4.73939
 Alpha virt. eigenvalues --    4.77130   4.79749   4.80799   4.81555   4.82758
 Alpha virt. eigenvalues --    4.84889   4.88090   4.88583   4.88884   4.91177
 Alpha virt. eigenvalues --    4.92732   4.94919   4.99196   5.03783   5.05107
 Alpha virt. eigenvalues --    5.06529   5.08889   5.11812   5.12560   5.15124
 Alpha virt. eigenvalues --    5.15381   5.16167   5.18543   5.22277   5.24214
 Alpha virt. eigenvalues --    5.27295   5.27342   5.30651   5.31060   5.35504
 Alpha virt. eigenvalues --    5.36966   5.37612   5.39723   5.40499   5.41486
 Alpha virt. eigenvalues --    5.44034   5.48483   5.50697   5.50713   5.55795
 Alpha virt. eigenvalues --    5.57073   5.63480   5.64751   5.64950   5.65317
 Alpha virt. eigenvalues --    5.66172   5.70931   5.71405   5.76493   5.77026
 Alpha virt. eigenvalues --    5.86704   5.88532   5.89614   5.90770   5.93552
 Alpha virt. eigenvalues --    5.97229   6.01142   6.03248   6.08681   6.10033
 Alpha virt. eigenvalues --    6.10904   6.12644   6.19083   6.20607   6.31205
 Alpha virt. eigenvalues --    6.31411   6.33180   6.36827   6.39221   6.44545
 Alpha virt. eigenvalues --    6.56385   6.59303   6.66334   6.79558   6.79578
 Alpha virt. eigenvalues --    6.82981   6.84801   6.86477   6.88016   6.91486
 Alpha virt. eigenvalues --    6.92668   6.97388   6.98894   6.99259   6.99652
 Alpha virt. eigenvalues --    7.11511   7.24674   7.36688   7.46326   7.48528
 Alpha virt. eigenvalues --    7.56862   7.71608   7.98191   8.10925   8.17999
 Alpha virt. eigenvalues --    8.95623  16.86922  17.76056  18.54603  18.65401
 Alpha virt. eigenvalues --   19.13319
          Condensed to atoms (all electrons):
               1          2          3          4          5          6
     1  O    8.352401   0.224294  -0.019989   0.065163  -0.015599  -0.021391
     2  H    0.224294   0.613266   0.014894   0.007244  -0.003288   0.001622
     3  H   -0.019989   0.014894   0.796939  -0.119858  -0.061375   0.006023
     4  N    0.065163   0.007244  -0.119858   7.759720  -0.053938  -0.096629
     5  C   -0.015599  -0.003288  -0.061375  -0.053938   6.926332  -0.161117
     6  C   -0.021391   0.001622   0.006023  -0.096629  -0.161117   6.921579
     7  C   -0.015600  -0.003286  -0.061408  -0.053891  -0.173523  -0.161099
     8  H   -0.000396   0.000002   0.003548  -0.141502   0.181490   0.019305
     9  H   -0.001522  -0.001309   0.013890  -0.079290   0.143010   0.002007
    10  H   -0.002718   0.000093   0.014130  -0.043727   0.143813   0.028675
    11  H   -0.000013   0.000546   0.019667  -0.155056   0.017070   0.168282
    12  H   -0.001121  -0.001772   0.002025  -0.063163   0.028947   0.145593
    13  H   -0.001130  -0.001773   0.002040  -0.063204  -0.011161   0.145656
    14  H   -0.000392   0.000002   0.003532  -0.141392   0.000412   0.019292
    15  H   -0.001522  -0.001308   0.013894  -0.079319   0.028103   0.002012
    16  H   -0.002725   0.000093   0.014133  -0.043734  -0.013047   0.028652
               7          8          9         10         11         12
     1  O   -0.015600  -0.000396  -0.001522  -0.002718  -0.000013  -0.001121
     2  H   -0.003286   0.000002  -0.001309   0.000093   0.000546  -0.001772
     3  H   -0.061408   0.003548   0.013890   0.014130   0.019667   0.002025
     4  N   -0.053891  -0.141502  -0.079290  -0.043727  -0.155056  -0.063163
     5  C   -0.173523   0.181490   0.143010   0.143813   0.017070   0.028947
     6  C   -0.161099   0.019305   0.002007   0.028675   0.168282   0.145593
     7  C    6.926242   0.000422   0.028051  -0.013049   0.017116  -0.011185
     8  H    0.000422   0.637912  -0.009273  -0.011416   0.005137   0.000077
     9  H    0.028051  -0.009273   0.634883  -0.043074   0.008449   0.006035
    10  H   -0.013049  -0.011416  -0.043074   0.617280   0.001803  -0.010181
    11  H    0.017116   0.005137   0.008449   0.001803   0.693486  -0.030992
    12  H   -0.011185   0.000077   0.006035  -0.010181  -0.030992   0.634402
    13  H    0.028923   0.007245  -0.003605   0.005633  -0.031001  -0.032736
    14  H    0.181464   0.002178  -0.000723   0.002598   0.005139   0.007255
    15  H    0.143028  -0.000725  -0.005962   0.005758   0.008441  -0.003605
    16  H    0.143821   0.002620   0.005736  -0.003307   0.001811   0.005617
              13         14         15         16
     1  O   -0.001130  -0.000392  -0.001522  -0.002725
     2  H   -0.001773   0.000002  -0.001308   0.000093
     3  H    0.002040   0.003532   0.013894   0.014133
     4  N   -0.063204  -0.141392  -0.079319  -0.043734
     5  C   -0.011161   0.000412   0.028103  -0.013047
     6  C    0.145656   0.019292   0.002012   0.028652
     7  C    0.028923   0.181464   0.143028   0.143821
     8  H    0.007245   0.002178  -0.000725   0.002620
     9  H   -0.003605  -0.000723  -0.005962   0.005736
    10  H    0.005633   0.002598   0.005758  -0.003307
    11  H   -0.031001   0.005139   0.008441   0.001811
    12  H   -0.032736   0.007255  -0.003605   0.005617
    13  H    0.634421   0.000061   0.006056  -0.010192
    14  H    0.000061   0.637824  -0.009321  -0.011338
    15  H    0.006056  -0.009321   0.634951  -0.043078
    16  H   -0.010192  -0.011338  -0.043078   0.617206
 Mulliken charges:
               1
     1  O   -0.557740
     2  H    0.150680
     3  H    0.357915
     4  N    0.302576
     5  C   -0.976129
     6  C   -1.048462
     7  C   -0.976027
     8  H    0.303375
     9  H    0.302697
    10  H    0.307690
    11  H    0.270114
    12  H    0.324806
    13  H    0.324767
    14  H    0.303412
    15  H    0.302597
    16  H    0.307730
 Sum of Mulliken charges =  -0.00000
 Mulliken charges with hydrogens summed into heavy atoms:
               1
     1  O   -0.049145
     4  N    0.302576
     5  C   -0.062367
     6  C   -0.128776
     7  C   -0.062288
 APT charges:
               1
     1  O   -0.672640
     2  H    0.235531
     3  H    0.436759
     4  N   -0.682565
     5  C    0.302664
     6  C    0.290715
     7  C    0.302664
     8  H   -0.064759
     9  H   -0.010374
    10  H   -0.002884
    11  H   -0.060870
    12  H    0.001894
    13  H    0.001889
    14  H   -0.064759
    15  H   -0.010368
    16  H   -0.002897
 Sum of APT charges =  -0.00000
 APT charges with hydrogens summed into heavy atoms:
               1
     1  O   -0.000350
     4  N   -0.682565
     5  C    0.224647
     6  C    0.233628
     7  C    0.224641
 Electronic spatial extent (au):  <R**2>=            619.1823
 Charge=              0.0000 electrons
 Dipole moment (field-independent basis, Debye):
    X=             -2.5959    Y=              0.0017    Z=             -1.1391  Tot=              2.8349
 Quadrupole moment (field-independent basis, Debye-Ang):
   XX=            -40.3959   YY=            -33.9271   ZZ=            -31.6630
   XY=              0.0052   XZ=             -3.4943   YZ=             -0.0029
 Traceless Quadrupole moment (field-independent basis, Debye-Ang):
   XX=             -5.0672   YY=              1.4016   ZZ=              3.6657
   XY=              0.0052   XZ=             -3.4943   YZ=             -0.0029
 Octapole moment (field-independent basis, Debye-Ang**2):
  XXX=             -1.9577  YYY=             -0.0022  ZZZ=             -4.6230  XYY=              1.3533
  XXY=              0.0177  XXZ=            -13.0752  XZZ=              7.9415  YZZ=              0.0070
  YYZ=              0.1681  XYZ=             -0.0080
 Hexadecapole moment (field-independent basis, Debye-Ang**3):
 XXXX=           -443.6594 YYYY=           -196.6954 ZZZZ=           -186.8610 XXXY=              0.0577
 XXXZ=            -43.8484 YYYX=             -0.0048 YYYZ=              0.0027 ZZZX=             -5.6218
 ZZZY=             -0.0105 XXYY=           -112.5789 XXZZ=            -90.2610 YYZZ=            -65.3066
 XXYZ=             -0.0257 YYXZ=              1.1884 ZZXY=              0.0109
 N-N= 2.016992862028D+02 E-N=-9.880872477315D+02  KE= 2.502275148751D+02
  Exact polarizability:      62.038       0.000      58.519      -0.098      -0.001      58.604
 Approx polarizability:      48.516       0.001      46.910      -0.414      -0.002      48.114
 Calling FoFJK, ICntrl=  10100127 FMM=F ISym2X=0 I1Cent= 0 IOpClX= 0 NMat=1 NMatS=1 NMatT=0.
 -------------------------------------------------------------------
 Center     Atomic                   Forces (Hartrees/Bohr)
 Number     Number              X              Y              Z
 -------------------------------------------------------------------
      1        8           0.007989359   -0.000001933    0.001798776
      2        1           0.000628733    0.000001280   -0.000930149
      3        1          -0.008368033   -0.000000370   -0.000869700
      4        7          -0.000139203   -0.000001384   -0.000029791
      5        6           0.000137565   -0.000177286    0.000057627
      6        6           0.000098037    0.000001829   -0.000244325
      7        6           0.000141363    0.000180954    0.000052808
      8        1          -0.000188441    0.000044616    0.000033753
      9        1          -0.000007118    0.000004556   -0.000053015
     10        1           0.000017934    0.000049391    0.000017207
     11        1          -0.000163418   -0.000000045    0.000097547
     12        1           0.000015992    0.000051003    0.000036045
     13        1           0.000015875   -0.000050876    0.000035180
     14        1          -0.000189501   -0.000045055    0.000032194
     15        1          -0.000005281   -0.000006505   -0.000053552
     16        1           0.000016138   -0.000050176    0.000019396
 -------------------------------------------------------------------
 Cartesian Forces:  Max     0.008368033 RMS     0.001704401
 NDeriv=     29 NFrqRd=  0 NDerD0=      0 MskFDP=       0 MskDFD=       0 MskDF0=       0
 Re-enter D2Numr:  normal mode     28 step-down number 1
 Standard basis: Aug-CC-pVTZ (5D, 7F)
   483 basis functions,   657 primitive gaussians,   550 cartesian basis functions
    22 alpha electrons       22 beta electrons
       nuclear repulsion energy       201.6123804548 Hartrees.
 NAtoms=   16 NActive=   16 NUniq=   16 SFac= 1.00D+00 NAtFMM=   60 NAOKFM=F Big=F
 Integral buffers will be    131072 words long.
 Raffenetti 1 integral format.
 Two-electron integral symmetry is turned off.
 One-electron integrals computed using PRISM.
 NBasis=   483 RedAO= T EigKep=  3.77D-06  NBF=   483
 NBsUse=   483 1.00D-06 EigRej= -1.00D+00 NBFU=   483
 Initial guess from the checkpoint file:  "/scr/Gau-79104.chk"
 B after Tr=     0.000107    0.000000   -0.000178
         Rot=    1.000000   -0.000000   -0.000042   -0.000000 Ang=  -0.00 deg.
 Requested convergence on RMS density matrix=1.00D-08 within 128 cycles.
 Requested convergence on MAX density matrix=1.00D-06.
 Requested convergence on             energy=1.00D-06.
 No special actions if energy rises.
 SCF Done:  E(RHF) =  -249.400453049     A.U. after    8 cycles
            NFock=  8  Conv=0.50D-08     -V/T= 2.0013
 ExpMin= 2.53D-02 ExpMax= 1.53D+04 ExpMxC= 5.22D+02 IAcc=3 IRadAn=         5 AccDes= 0.00D+00
 HarFok:  IExCor=  205 AccDes= 0.00D+00 IRadAn=         5 IDoV=-2 UseB2=F ITyADJ=14
 ICtDFT= 12500011 ScaDFX=  1.000000  1.000000  1.000000  1.000000
 Range of M.O.s used for correlation:     6   483
 NBasis=   483 NAE=    22 NBE=    22 NFC=     5 NFV=     0
 NROrb=    478 NOA=    17 NOB=    17 NVA=   461 NVB=   461

 **** Warning!!: The largest alpha MO coefficient is  0.12989081D+03

 Disk-based method using ON**2 memory for 17 occupieds at a time.
 Permanent disk used for amplitudes=   127353094 words.
 Estimated scratch disk usage=  5065747952 words.
 Actual    scratch disk usage=  4898293232 words.
 JobTyp=1 Pass  1:  I=   6 to  22 NPSUse= 40 ParTrn=T ParDer=T DoDerP=T.
 Spin components of T(2) and E(2):
     alpha-alpha T2 =       0.3591346583D-01 E2=     -0.1190791917D+00
     alpha-beta  T2 =       0.2227095741D+00 E2=     -0.8048654452D+00
     beta-beta   T2 =       0.3591346583D-01 E2=     -0.1190791917D+00
 ANorm=    0.1137777002D+01
 E2 =    -0.1043023829D+01 EUMP2 =    -0.25044347687740D+03
 G2DrvN: will do    17 centers at a time, making    1 passes.
 Calling FoFCou, ICntrl=  3107 FMM=F I1Cent=   0 AccDes= 0.00D+00.
 End of G2Drv F.D. properties file   721 does not exist.
 End of G2Drv F.D. properties file   722 does not exist.
 End of G2Drv F.D. properties file   788 does not exist.
          IDoAtm=1111111111111111
          Differentiating once with respect to electric field.
                with respect to dipole field.
          Differentiating once with respect to nuclear coordinates.
          There are    51 degrees of freedom in the 1st order CPHF.  IDoFFX=6 NUNeed=    51.
     48 vectors produced by pass  0 Test12= 1.99D-14 1.96D-09 XBig12= 1.41D+01 6.55D-01.
 AX will form    48 AO Fock derivatives at one time.
     48 vectors produced by pass  1 Test12= 1.99D-14 1.96D-09 XBig12= 5.22D-01 1.15D-01.
     48 vectors produced by pass  2 Test12= 1.99D-14 1.96D-09 XBig12= 9.61D-03 1.08D-02.
     48 vectors produced by pass  3 Test12= 1.99D-14 1.96D-09 XBig12= 1.15D-04 1.67D-03.
     48 vectors produced by pass  4 Test12= 1.99D-14 1.96D-09 XBig12= 9.34D-07 1.28D-04.
     48 vectors produced by pass  5 Test12= 1.99D-14 1.96D-09 XBig12= 6.05D-09 8.64D-06.
     46 vectors produced by pass  6 Test12= 1.99D-14 1.96D-09 XBig12= 3.39D-11 6.06D-07.
      6 vectors produced by pass  7 Test12= 1.99D-14 1.96D-09 XBig12= 1.62D-13 5.73D-08.
      3 vectors produced by pass  8 Test12= 1.99D-14 1.96D-09 XBig12= 8.09D-16 3.81D-09.
 InvSVY:  IOpt=1 It=  1 EMax= 3.11D-15
 Solved reduced A of dimension   343 with    51 vectors.
 End of Minotr F.D. properties file   721 does not exist.
 End of Minotr F.D. properties file   722 does not exist.
 End of Minotr F.D. properties file   788 does not exist.
 MDV=  6710886400.
 Form MO integral derivatives with frozen-active canonical formalism.
 Discarding MO integrals.
 Reordered first order wavefunction length =    205720328
 In DefCFB: NBatch=  1 ICI= 22 ICA=461 LFMax= 66
            Large arrays: LIAPS= 10776889200 LIARS=  2147568500 words.
