 Entering Gaussian System, Link 0=g16
 Input=h2o_nch_mp2_avdz_opt_anharmonic.gjf
 Output=h2o_nch_mp2_avdz_opt_anharmonic.log
 Initial command:
 /sw/contrib/gaussian/g16/A03/g16/l1.exe "/gscratch/scrubbed/gds001/Gau-7395.inp" -scrdir="/gscratch/scrubbed/gds001/"
 Entering Link 1 = /sw/contrib/gaussian/g16/A03/g16/l1.exe PID=      7396.
  
 Copyright (c) 1988,1990,1992,1993,1995,1998,2003,2009,2016,
            Gaussian, Inc.  All Rights Reserved.
  
 This is part of the Gaussian(R) 16 program.  It is based on
 the Gaussian(R) 09 system (copyright 2009, Gaussian, Inc.),
 the Gaussian(R) 03 system (copyright 2003, Gaussian, Inc.),
 the Gaussian(R) 98 system (copyright 1998, Gaussian, Inc.),
 the Gaussian(R) 94 system (copyright 1995, Gaussian, Inc.),
 the Gaussian 92(TM) system (copyright 1992, Gaussian, Inc.),
 the Gaussian 90(TM) system (copyright 1990, Gaussian, Inc.),
 the Gaussian 88(TM) system (copyright 1988, Gaussian, Inc.),
 the Gaussian 86(TM) system (copyright 1986, Carnegie Mellon
 University), and the Gaussian 82(TM) system (copyright 1983,
 Carnegie Mellon University). Gaussian is a federally registered
 trademark of Gaussian, Inc.
  
 This software contains proprietary and confidential information,
 including trade secrets, belonging to Gaussian, Inc.
  
 This software is provided under written license and may be
 used, copied, transmitted, or stored only in accord with that
 written license.
  
 The following legend is applicable only to US Government
 contracts under FAR:
  
                    RESTRICTED RIGHTS LEGEND
  
 Use, reproduction and disclosure by the US Government is
 subject to restrictions as set forth in subparagraphs (a)
 and (c) of the Commercial Computer Software - Restricted
 Rights clause in FAR 52.227-19.
  
 Gaussian, Inc.
 340 Quinnipiac St., Bldg. 40, Wallingford CT 06492
  
  
 ---------------------------------------------------------------
 Warning -- This program may not be used in any manner that
 competes with the business of Gaussian, Inc. or will provide
 assistance to any competitor of Gaussian, Inc.  The licensee
 of this program is prohibited from giving any competitor of
 Gaussian, Inc. access to this program.  By using this program,
 the user acknowledges that Gaussian, Inc. is engaged in the
 business of creating and licensing software in the field of
 computational chemistry and represents and warrants to the
 licensee that it is not a competitor of Gaussian, Inc. and that
 it will not use this program in any manner prohibited above.
 ---------------------------------------------------------------
  

 Cite this work as:
 Gaussian 16, Revision A.03,
 M. J. Frisch, G. W. Trucks, H. B. Schlegel, G. E. Scuseria, 
 M. A. Robb, J. R. Cheeseman, G. Scalmani, V. Barone, 
 G. A. Petersson, H. Nakatsuji, X. Li, M. Caricato, A. V. Marenich, 
 J. Bloino, B. G. Janesko, R. Gomperts, B. Mennucci, H. P. Hratchian, 
 J. V. Ortiz, A. F. Izmaylov, J. L. Sonnenberg, D. Williams-Young, 
 F. Ding, F. Lipparini, F. Egidi, J. Goings, B. Peng, A. Petrone, 
 T. Henderson, D. Ranasinghe, V. G. Zakrzewski, J. Gao, N. Rega, 
 G. Zheng, W. Liang, M. Hada, M. Ehara, K. Toyota, R. Fukuda, 
 J. Hasegawa, M. Ishida, T. Nakajima, Y. Honda, O. Kitao, H. Nakai, 
 T. Vreven, K. Throssell, J. A. Montgomery, Jr., J. E. Peralta, 
 F. Ogliaro, M. J. Bearpark, J. J. Heyd, E. N. Brothers, K. N. Kudin, 
 V. N. Staroverov, T. A. Keith, R. Kobayashi, J. Normand, 
 K. Raghavachari, A. P. Rendell, J. C. Burant, S. S. Iyengar, 
 J. Tomasi, M. Cossi, J. M. Millam, M. Klene, C. Adamo, R. Cammi, 
 J. W. Ochterski, R. L. Martin, K. Morokuma, O. Farkas, 
 J. B. Foresman, and D. J. Fox, Gaussian, Inc., Wallingford CT, 2016.
 
 ******************************************
 Gaussian 16:  ES64L-G16RevA.03 25-Dec-2016
                17-Dec-2021 
 ******************************************
 %nprocshared=28
 Will use up to   28 processors via shared memory.
 %mem=41GB
 ----------------------------------------------
 # MP2/aug-cc-pVDZ opt freq=(vibrot,anharmonic)
 ----------------------------------------------
 1/18=20,19=15,38=1,80=1/1,3;
 2/9=110,12=2,17=6,18=5,40=1/2;
 3/5=16,7=10,11=9,25=1,30=1,71=1/1,2,3;
 4//1;
 5/5=2,38=5/2;
 8/6=4,10=1/1;
 9/15=2,16=-3/6;
 10/5=1/2;
 6/7=2,8=2,9=2,10=2/1;
 7/12=2/1,2,3,16;
 1/18=20,19=15,80=1/3(2);
 2/9=110/2;
 99//99;
 2/9=110/2;
 3/5=16,7=10,11=9,25=1,30=1,71=1/1,2,3;
 4/5=5,16=3,69=1/1;
 5/5=2,38=5/2;
 8/6=4,10=1/1;
 9/15=2,16=-3/6;
 10/5=1/2;
 7/12=2/1,2,3,16;
 1/18=20,19=15,80=1/3(-8);
 2/9=110/2;
 6/7=2,8=2,9=2,10=2/1;
 99//99;
 ----
 bleh
 ----
 Symbolic Z-matrix:
 Charge =  0 Multiplicity = 1
 C                     2.18635   0.27143  -0.06808 
 N                     1.04895   0.378    -0.27612 
 H                     3.22972   0.17228   0.12396 
 O                    -1.73874  -0.3049    0.02554 
 H                    -0.76694  -0.18297   0.0204 
 H                    -2.02262   0.38265  -0.59534 
 
 Add virtual bond connecting atoms H5         and N2         Dist= 3.63D+00.

 GradGradGradGradGradGradGradGradGradGradGradGradGradGradGradGradGradGrad
 Berny optimization.
 Initialization pass.
                           ----------------------------
                           !    Initial Parameters    !
                           ! (Angstroms and Degrees)  !
 --------------------------                            --------------------------
 ! Name  Definition              Value          Derivative Info.                !
 --------------------------------------------------------------------------------
 ! R1    R(1,2)                  1.1612         estimate D2E/DX2                !
 ! R2    R(1,3)                  1.0655         estimate D2E/DX2                !
 ! R3    R(2,5)                  1.9236         estimate D2E/DX2                !
 ! R4    R(4,5)                  0.9794         estimate D2E/DX2                !
 ! R5    R(4,6)                  0.9689         estimate D2E/DX2                !
 ! A1    A(1,2,5)              150.4959         estimate D2E/DX2                !
 ! A2    A(5,4,6)              101.4782         estimate D2E/DX2                !
 ! A3    L(2,1,3,5,-1)         179.9027         estimate D2E/DX2                !
 ! A4    L(2,5,4,6,-1)         166.8519         estimate D2E/DX2                !
 ! A5    L(2,1,3,5,-2)         179.9996         estimate D2E/DX2                !
 ! A6    L(2,5,4,6,-2)         179.9942         estimate D2E/DX2                !
 ! D1    D(1,2,4,6)           -179.9645         estimate D2E/DX2                !
 --------------------------------------------------------------------------------
 Trust Radius=3.00D-01 FncErr=1.00D-07 GrdErr=1.00D-07 EigMax=2.50D+02 EigMin=1.00D-04
 Number of steps in this run=     22 maximum allowed number of steps=    100.
 GradGradGradGradGradGradGradGradGradGradGradGradGradGradGradGradGradGrad

                          Input orientation:                          
 ---------------------------------------------------------------------
 Center     Atomic      Atomic             Coordinates (Angstroms)
 Number     Number       Type             X           Y           Z
 ---------------------------------------------------------------------
      1          6           0        2.186353    0.271434   -0.068080
      2          7           0        1.048954    0.377999   -0.276119
      3          1           0        3.229722    0.172282    0.123960
      4          8           0       -1.738742   -0.304904    0.025541
      5          1           0       -0.766935   -0.182973    0.020399
      6          1           0       -2.022617    0.382647   -0.595343
 ---------------------------------------------------------------------
                    Distance matrix (angstroms):
                    1          2          3          4          5
     1  C    0.000000
     2  N    1.161169   0.000000
     3  H    1.065518   2.226686   0.000000
     4  O    3.968287   2.885932   4.992296   0.000000
     5  H    2.989352   1.923556   4.013751   0.979440   0.000000
     6  H    4.243325   3.088118   5.305536   0.968921   1.508576
                    6
     6  H    0.000000
 Stoichiometry    CH3NO
 Framework group  C1[X(CH3NO)]
 Deg. of freedom    12
 Full point group                 C1      NOp   1
 Largest Abelian subgroup         C1      NOp   1
 Largest concise Abelian subgroup C1      NOp   1
                         Standard orientation:                         
 ---------------------------------------------------------------------
 Center     Atomic      Atomic             Coordinates (Angstroms)
 Number     Number       Type             X           Y           Z
 ---------------------------------------------------------------------
      1          6           0       -1.901247   -0.101500    0.000045
      2          7           0       -0.791500    0.240228   -0.000087
      3          1           0       -2.919043   -0.416805    0.000168
      4          8           0        2.066617   -0.159483    0.000001
      5          1           0        1.087263   -0.172462   -0.000122
      6          1           0        2.246827    0.792532    0.000282
 ---------------------------------------------------------------------
 Rotational constants (GHZ):         238.6819869           3.7329530           3.6754692
 Standard basis: Aug-CC-pVDZ (5D, 7F)
 There are   102 symmetry adapted cartesian basis functions of A   symmetry.
 There are    96 symmetry adapted basis functions of A   symmetry.
    96 basis functions,   162 primitive gaussians,   102 cartesian basis functions
    12 alpha electrons       12 beta electrons
       nuclear repulsion energy        55.5107088983 Hartrees.
 NAtoms=    6 NActive=    6 NUniq=    6 SFac= 1.00D+00 NAtFMM=   60 NAOKFM=F Big=F
 Integral buffers will be    131072 words long.
 Raffenetti 1 integral format.
 Two-electron integral symmetry is turned on.
 One-electron integrals computed using PRISM.
 NBasis=    96 RedAO= T EigKep=  4.82D-04  NBF=    96
 NBsUse=    96 1.00D-06 EigRej= -1.00D+00 NBFU=    96
 ExpMin= 2.97D-02 ExpMax= 1.17D+04 ExpMxC= 4.01D+02 IAcc=3 IRadAn=         5 AccDes= 0.00D+00
 Harris functional with IExCor=  205 and IRadAn=       5 diagonalized for initial guess.
 HarFok:  IExCor=  205 AccDes= 0.00D+00 IRadAn=         5 IDoV= 1 UseB2=F ITyADJ=14
 ICtDFT=  3500011 ScaDFX=  1.000000  1.000000  1.000000  1.000000
 FoFCou: FMM=F IPFlag=           0 FMFlag=      100000 FMFlg1=           0
         NFxFlg=           0 DoJE=T BraDBF=F KetDBF=T FulRan=T
         wScrn=  0.000000 ICntrl=       500 IOpCl=  0 I1Cent=   200000004 NGrid=           0
         NMat0=    1 NMatS0=      1 NMatT0=    0 NMatD0=    1 NMtDS0=    0 NMtDT0=    0
 Petite list used in FoFCou.
 Keep R1 ints in memory in canonical form, NReq=16747409.
 Requested convergence on RMS density matrix=1.00D-08 within 128 cycles.
 Requested convergence on MAX density matrix=1.00D-06.
 Requested convergence on             energy=1.00D-06.
 No special actions if energy rises.
 SCF Done:  E(RHF) =  -168.928003667     A.U. after   13 cycles
            NFock= 13  Conv=0.29D-08     -V/T= 2.0024
 ExpMin= 2.97D-02 ExpMax= 1.17D+04 ExpMxC= 4.01D+02 IAcc=3 IRadAn=         5 AccDes= 0.00D+00
 HarFok:  IExCor=  205 AccDes= 0.00D+00 IRadAn=         5 IDoV=-2 UseB2=F ITyADJ=14
 ICtDFT= 12500011 ScaDFX=  1.000000  1.000000  1.000000  1.000000
 Range of M.O.s used for correlation:     4    96
 NBasis=    96 NAE=    12 NBE=    12 NFC=     3 NFV=     0
 NROrb=     93 NOA=     9 NOB=     9 NVA=    84 NVB=    84

 **** Warning!!: The largest alpha MO coefficient is  0.13650526D+02

 Fully direct method using O(ONN) memory.
 JobTyp=1 Pass  1:  I=   4 to  12 NPSUse= 28 ParTrn=T ParDer=T DoDerP=T.
 Spin components of T(2) and E(2):
     alpha-alpha T2 =       0.2317905217D-01 E2=     -0.6684666001D-01
     alpha-beta  T2 =       0.1303844067D+00 E2=     -0.3871507699D+00
     beta-beta   T2 =       0.2317905217D-01 E2=     -0.6684666001D-01
 ANorm=    0.1084777632D+01
 E2 =    -0.5208440899D+00 EUMP2 =    -0.16944884775729D+03
          IDoAtm=111111
          Differentiating once with respect to electric field.
                with respect to dipole field.
          Differentiating once with respect to nuclear coordinates.
 Keep R1 ints in memory in canonical form, NReq=16750272.
          There are     1 degrees of freedom in the 1st order CPHF.  IDoFFX=0 NUNeed=     1.
 LinEq1:  Iter=  0 NonCon=     1 RMS=5.88D-03 Max=4.68D-02 NDo=     1
 AX will form     1 AO Fock derivatives at one time.
 LinEq1:  Iter=  1 NonCon=     1 RMS=1.33D-03 Max=8.78D-03 NDo=     1
 LinEq1:  Iter=  2 NonCon=     1 RMS=4.96D-04 Max=4.20D-03 NDo=     1
 LinEq1:  Iter=  3 NonCon=     1 RMS=2.06D-04 Max=2.55D-03 NDo=     1
 LinEq1:  Iter=  4 NonCon=     1 RMS=8.50D-05 Max=6.79D-04 NDo=     1
 LinEq1:  Iter=  5 NonCon=     1 RMS=3.31D-05 Max=4.74D-04 NDo=     1
 LinEq1:  Iter=  6 NonCon=     1 RMS=9.72D-06 Max=9.73D-05 NDo=     1
 LinEq1:  Iter=  7 NonCon=     1 RMS=2.51D-06 Max=2.04D-05 NDo=     1
 LinEq1:  Iter=  8 NonCon=     1 RMS=3.34D-07 Max=2.09D-06 NDo=     1
 LinEq1:  Iter=  9 NonCon=     1 RMS=4.86D-08 Max=4.12D-07 NDo=     1
 LinEq1:  Iter= 10 NonCon=     1 RMS=1.00D-08 Max=8.38D-08 NDo=     1
 LinEq1:  Iter= 11 NonCon=     1 RMS=1.77D-09 Max=1.15D-08 NDo=     1
 LinEq1:  Iter= 12 NonCon=     1 RMS=3.08D-10 Max=2.34D-09 NDo=     1
 LinEq1:  Iter= 13 NonCon=     0 RMS=6.17D-11 Max=3.24D-10 NDo=     1
 Linear equations converged to 1.000D-10 1.000D-09 after    13 iterations.
 End of Minotr F.D. properties file   721 does not exist.
 End of Minotr F.D. properties file   722 does not exist.
 End of Minotr F.D. properties file   788 does not exist.

 **********************************************************************

            Population analysis using the SCF density.

 **********************************************************************

 Orbital symmetries:
       Occupied  (A) (A) (A) (A) (A) (A) (A) (A) (A) (A) (A) (A)
       Virtual   (A) (A) (A) (A) (A) (A) (A) (A) (A) (A) (A) (A)
                 (A) (A) (A) (A) (A) (A) (A) (A) (A) (A) (A) (A)
                 (A) (A) (A) (A) (A) (A) (A) (A) (A) (A) (A) (A)
                 (A) (A) (A) (A) (A) (A) (A) (A) (A) (A) (A) (A)
                 (A) (A) (A) (A) (A) (A) (A) (A) (A) (A) (A) (A)
                 (A) (A) (A) (A) (A) (A) (A) (A) (A) (A) (A) (A)
                 (A) (A) (A) (A) (A) (A) (A) (A) (A) (A) (A) (A)
 The electronic state is 1-A.
 Alpha  occ. eigenvalues --  -20.53981 -15.63433 -11.33184  -1.31337  -1.26126
 Alpha  occ. eigenvalues --   -0.83577  -0.68206  -0.61350  -0.54331  -0.51807
 Alpha  occ. eigenvalues --   -0.51727  -0.47096
 Alpha virt. eigenvalues --    0.02255   0.05640   0.06863   0.07350   0.08306
 Alpha virt. eigenvalues --    0.10449   0.14432   0.14769   0.16082   0.20365
 Alpha virt. eigenvalues --    0.21677   0.22613   0.24848   0.25957   0.26464
 Alpha virt. eigenvalues --    0.27410   0.31222   0.34604   0.37023   0.39142
 Alpha virt. eigenvalues --    0.40282   0.40912   0.41637   0.43627   0.47246
 Alpha virt. eigenvalues --    0.50131   0.50899   0.53125   0.57033   0.59733
 Alpha virt. eigenvalues --    0.66219   0.67797   0.71502   0.77822   0.78996
 Alpha virt. eigenvalues --    0.80426   0.81094   0.83133   0.86682   0.95559
 Alpha virt. eigenvalues --    0.98352   1.02626   1.04095   1.11143   1.13919
 Alpha virt. eigenvalues --    1.18594   1.20193   1.22584   1.36280   1.42959
 Alpha virt. eigenvalues --    1.52787   1.54958   1.57647   1.58034   1.63323
 Alpha virt. eigenvalues --    1.63979   1.64610   1.70607   1.71298   1.89048
 Alpha virt. eigenvalues --    1.99996   2.04512   2.13498   2.14906   2.26043
 Alpha virt. eigenvalues --    2.26666   2.33112   2.51639   2.55863   2.59706
 Alpha virt. eigenvalues --    2.59959   2.64827   2.76956   2.93921   2.95444
 Alpha virt. eigenvalues --    3.00175   3.06551   3.49217   3.71416   3.75638
 Alpha virt. eigenvalues --    3.76785   3.80148   4.11536   4.40469
          Condensed to atoms (all electrons):
               1          2          3          4          5          6
     1  C    5.016068   0.642652   0.101621   0.000146  -0.009999  -0.002136
     2  N    0.642652   6.781501   0.008591  -0.035276  -0.038395   0.001466
     3  H    0.101621   0.008591   0.816061   0.000537   0.000322  -0.000352
     4  O    0.000146  -0.035276   0.000537   7.815713   0.271151   0.344497
     5  H   -0.009999  -0.038395   0.000322   0.271151   0.508938  -0.027876
     6  H   -0.002136   0.001466  -0.000352   0.344497  -0.027876   0.547822
 Mulliken charges:
               1
     1  C    0.251648
     2  N   -0.360539
     3  H    0.073220
     4  O   -0.396767
     5  H    0.295858
     6  H    0.136580
 Sum of Mulliken charges =  -0.00000
 Mulliken charges with hydrogens summed into heavy atoms:
               1
     1  C    0.324868
     2  N   -0.360539
     4  O    0.035671
 Electronic spatial extent (au):  <R**2>=            309.3044
 Charge=             -0.0000 electrons
 Dipole moment (field-independent basis, Debye):
    X=             -5.2698    Y=              0.5994    Z=              0.0006  Tot=              5.3038
 Quadrupole moment (field-independent basis, Debye-Ang):
   XX=            -11.5360   YY=            -17.4906   ZZ=            -19.5869
   XY=              6.1613   XZ=              0.0002   YZ=              0.0006
 Traceless Quadrupole moment (field-independent basis, Debye-Ang):
   XX=              4.6685   YY=             -1.2861   ZZ=             -3.3824
   XY=              6.1613   XZ=              0.0002   YZ=              0.0006
 Octapole moment (field-independent basis, Debye-Ang**2):
  XXX=            -39.2492  YYY=              0.7205  ZZZ=              0.0003  XYY=              4.2178
  XXY=              4.5970  XXZ=              0.0051  XZZ=              0.7732  YZZ=              0.0355
  YYZ=              0.0005  XYZ=              0.0018
 Hexadecapole moment (field-independent basis, Debye-Ang**3):
 XXXX=           -263.4654 YYYY=            -22.3220 ZZZZ=            -19.3809 XXXY=             41.6999
 XXXZ=              0.0013 YYYX=              5.4602 YYYZ=              0.0008 ZZZX=              0.0001
 ZZZY=              0.0004 XXYY=            -54.7090 XXZZ=            -65.3025 YYZZ=             -7.1613
 XXYZ=              0.0025 YYXZ=              0.0007 ZZXY=              1.0563
 N-N= 5.551070889834D+01 E-N=-5.088719937894D+02  KE= 1.685177109607D+02
 Calling FoFJK, ICntrl=  10002127 FMM=F ISym2X=0 I1Cent= 0 IOpClX= 0 NMat=1 NMatS=1 NMatT=0.
 ***** Axes restored to original set *****
 -------------------------------------------------------------------
 Center     Atomic                   Forces (Hartrees/Bohr)
 Number     Number              X              Y              Z
 -------------------------------------------------------------------
      1        6           0.032079899   -0.002837829    0.005723238
      2        7          -0.035794298    0.003676937   -0.006823972
      3        1           0.009232804   -0.000584660    0.001447686
      4        8           0.006257697    0.002917717   -0.001868428
      5        1          -0.010828166   -0.000500539   -0.000680630
      6        1          -0.000947937   -0.002671625    0.002202107
 -------------------------------------------------------------------
 Cartesian Forces:  Max     0.035794298 RMS     0.012204144

 GradGradGradGradGradGradGradGradGradGradGradGradGradGradGradGradGradGrad
 Berny optimization.
 FormGI is forming the generalized inverse of G from B-inverse, IUseBI=4.
 Internal  Forces:  Max     0.042065872 RMS     0.012778638
 Search for a local minimum.
 Step number   1 out of a maximum of   22
 All quantities printed in internal units (Hartrees-Bohrs-Radians)
 Mixed Optimization -- RFO/linear search
 Second derivative matrix not updated -- first step.
 The second derivative matrix:
                          R1        R2        R3        R4        R5
           R1           1.27032
           R2           0.00000   0.37802
           R3           0.00000   0.00000   0.04900
           R4           0.00000   0.00000   0.00000   0.51494
           R5           0.00000   0.00000   0.00000   0.00000   0.53598
           A1           0.00000   0.00000   0.00000   0.00000   0.00000
           A2           0.00000   0.00000   0.00000   0.00000   0.00000
           A3           0.00000   0.00000   0.00000   0.00000   0.00000
           A4           0.00000   0.00000   0.00000   0.00000   0.00000
           A5           0.00000   0.00000   0.00000   0.00000   0.00000
           A6           0.00000   0.00000   0.00000   0.00000   0.00000
           D1           0.00000   0.00000   0.00000   0.00000   0.00000
                          A1        A2        A3        A4        A5
           A1           0.16000
           A2           0.00000   0.16000
           A3           0.00000   0.00000   0.00559
           A4           0.00000   0.00000   0.00000   0.01300
           A5           0.00000   0.00000   0.00000   0.00000   0.00559
           A6           0.00000   0.00000   0.00000   0.00000   0.00000
           D1           0.00000   0.00000   0.00000   0.00000   0.00000
                          A6        D1
           A6           0.01300
           D1           0.00000   0.00230
 ITU=  0
     Eigenvalues ---    0.00230   0.00559   0.00559   0.01300   0.01300
     Eigenvalues ---    0.04900   0.16000   0.16000   0.37802   0.51494
     Eigenvalues ---    0.53598   1.27032
 RFO step:  Lambda=-3.61834015D-03 EMin= 2.30000000D-03
 Linear search not attempted -- first point.
 Maximum step size (   0.300) exceeded in Quadratic search.
    -- Step size scaled by   0.978
 Iteration  1 RMS(Cart)=  0.13177019 RMS(Int)=  0.02248222
 Iteration  2 RMS(Cart)=  0.03966234 RMS(Int)=  0.00119249
 Iteration  3 RMS(Cart)=  0.00158807 RMS(Int)=  0.00000022
 Iteration  4 RMS(Cart)=  0.00000043 RMS(Int)=  0.00000000
 Variable       Old X    -DE/DX   Delta X   Delta X   Delta X     New X
                                 (Linear)    (Quad)   (Total)
    R1        2.19429   0.04207   0.00000   0.03230   0.03230   2.22659
    R2        2.01354   0.00936   0.00000   0.02398   0.02398   2.03752
    R3        3.63499   0.00523   0.00000   0.09722   0.09722   3.73221
    R4        1.85087  -0.00530   0.00000  -0.00999  -0.00999   1.84088
    R5        1.83099  -0.00303   0.00000  -0.00549  -0.00549   1.82550
    A1        2.62665   0.00204   0.00000   0.01218   0.01218   2.63883
    A2        1.77113   0.00353   0.00000   0.02108   0.02108   1.79221
    A3        3.13989   0.00076   0.00000   0.08113   0.08113   3.22102
    A4        2.91211   0.00455   0.00000   0.26763   0.26763   3.17974
    A5        3.14159   0.00000   0.00000   0.00000   0.00000   3.14159
    A6        3.14149   0.00000   0.00000   0.00000   0.00000   3.14149
    D1       -3.14097   0.00000   0.00000   0.00001   0.00001  -3.14096
         Item               Value     Threshold  Converged?
 Maximum Force            0.042066     0.000450     NO 
 RMS     Force            0.012779     0.000300     NO 
 Maximum Displacement     0.332796     0.001800     NO 
 RMS     Displacement     0.160745     0.001200     NO 
 Predicted change in Energy=-1.971135D-03
 GradGradGradGradGradGradGradGradGradGradGradGradGradGradGradGradGradGrad

                          Input orientation:                          
 ---------------------------------------------------------------------
 Center     Atomic      Atomic             Coordinates (Angstroms)
 Number     Number       Type             X           Y           Z
 ---------------------------------------------------------------------
      1          6           0        2.247222    0.239010   -0.033949
      2          7           0        1.110031    0.405547   -0.293493
      3          1           0        3.305955    0.150985    0.150079
      4          8           0       -1.729565   -0.317099    0.036947
      5          1           0       -0.798183   -0.060518   -0.088213
      6          1           0       -2.198725    0.298559   -0.541014
 ---------------------------------------------------------------------
                    Distance matrix (angstroms):
                    1          2          3          4          5
     1  C    0.000000
     2  N    1.178262   0.000000
     3  H    1.078208   2.254693   0.000000
     4  O    4.016107   2.948680   5.058494   0.000000
     5  H    3.060580   1.975003   4.116487   0.974152   0.000000
     6  H    4.475165   3.319726   5.549855   0.966015   1.515085
                    6
     6  H    0.000000
 Stoichiometry    CH3NO
 Framework group  C1[X(CH3NO)]
 Deg. of freedom    12
 Full point group                 C1      NOp   1
 Largest Abelian subgroup         C1      NOp   1
 Largest concise Abelian subgroup C1      NOp   1
                         Standard orientation:                         
 ---------------------------------------------------------------------
 Center     Atomic      Atomic             Coordinates (Angstroms)
 Number     Number       Type             X           Y           Z
 ---------------------------------------------------------------------
      1          6           0       -1.927659   -0.134730    0.000047
      2          7           0       -0.824699    0.279731   -0.000082
      3          1           0       -2.963872   -0.432716    0.000147
      4          8           0        2.088213   -0.178150   -0.000015
      5          1           0        1.130057   -0.002345   -0.000066
      6          1           0        2.466957    0.710522    0.000337
 ---------------------------------------------------------------------
 Rotational constants (GHZ):         206.1770417           3.6048844           3.5429382
 Standard basis: Aug-CC-pVDZ (5D, 7F)
 There are   102 symmetry adapted cartesian basis functions of A   symmetry.
 There are    96 symmetry adapted basis functions of A   symmetry.
    96 basis functions,   162 primitive gaussians,   102 cartesian basis functions
    12 alpha electrons       12 beta electrons
       nuclear repulsion energy        54.7015727969 Hartrees.
 NAtoms=    6 NActive=    6 NUniq=    6 SFac= 1.00D+00 NAtFMM=   60 NAOKFM=F Big=F
 Integral buffers will be    131072 words long.
 Raffenetti 1 integral format.
 Two-electron integral symmetry is turned on.
 One-electron integrals computed using PRISM.
 NBasis=    96 RedAO= T EigKep=  4.78D-04  NBF=    96
 NBsUse=    96 1.00D-06 EigRej= -1.00D+00 NBFU=    96
 Initial guess from the checkpoint file:  "/gscratch/scrubbed/gds001/Gau-7396.chk"
 B after Tr=    -0.000000   -0.000000   -0.000000
         Rot=    0.999999   -0.000049   -0.000001    0.001408 Ang=  -0.16 deg.
 ExpMin= 2.97D-02 ExpMax= 1.17D+04 ExpMxC= 4.01D+02 IAcc=3 IRadAn=         5 AccDes= 0.00D+00
 Harris functional with IExCor=  205 and IRadAn=       5 diagonalized for initial guess.
 HarFok:  IExCor=  205 AccDes= 0.00D+00 IRadAn=         5 IDoV= 1 UseB2=F ITyADJ=14
 ICtDFT=  3500011 ScaDFX=  1.000000  1.000000  1.000000  1.000000
 FoFCou: FMM=F IPFlag=           0 FMFlag=      100000 FMFlg1=           0
         NFxFlg=           0 DoJE=T BraDBF=F KetDBF=T FulRan=T
         wScrn=  0.000000 ICntrl=       500 IOpCl=  0 I1Cent=   200000004 NGrid=           0
         NMat0=    1 NMatS0=      1 NMatT0=    0 NMatD0=    1 NMtDS0=    0 NMtDT0=    0
 Petite list used in FoFCou.
 Keep R1 ints in memory in canonical form, NReq=16746503.
 Requested convergence on RMS density matrix=1.00D-08 within 128 cycles.
 Requested convergence on MAX density matrix=1.00D-06.
 Requested convergence on             energy=1.00D-06.
 No special actions if energy rises.
 SCF Done:  E(RHF) =  -168.926482775     A.U. after   13 cycles
            NFock= 13  Conv=0.29D-08     -V/T= 2.0031
 ExpMin= 2.97D-02 ExpMax= 1.17D+04 ExpMxC= 4.01D+02 IAcc=3 IRadAn=         5 AccDes= 0.00D+00
 HarFok:  IExCor=  205 AccDes= 0.00D+00 IRadAn=         5 IDoV=-2 UseB2=F ITyADJ=14
 ICtDFT= 12500011 ScaDFX=  1.000000  1.000000  1.000000  1.000000
 Range of M.O.s used for correlation:     4    96
 NBasis=    96 NAE=    12 NBE=    12 NFC=     3 NFV=     0
 NROrb=     93 NOA=     9 NOB=     9 NVA=    84 NVB=    84

 **** Warning!!: The largest alpha MO coefficient is  0.13122233D+02

 Fully direct method using O(ONN) memory.
 JobTyp=1 Pass  1:  I=   4 to  12 NPSUse= 28 ParTrn=T ParDer=T DoDerP=T.
 Spin components of T(2) and E(2):
     alpha-alpha T2 =       0.2365961744D-01 E2=     -0.6731689046D-01
     alpha-beta  T2 =       0.1330025360D+00 E2=     -0.3897189848D+00
     beta-beta   T2 =       0.2365961744D-01 E2=     -0.6731689046D-01
 ANorm=    0.1086426146D+01
 E2 =    -0.5243527657D+00 EUMP2 =    -0.16945083554088D+03
          IDoAtm=111111
          Differentiating once with respect to electric field.
                with respect to dipole field.
          Differentiating once with respect to nuclear coordinates.
 Keep R1 ints in memory in canonical form, NReq=16749555.
          There are     1 degrees of freedom in the 1st order CPHF.  IDoFFX=0 NUNeed=     1.
 LinEq1:  Iter=  0 NonCon=     1 RMS=6.01D-03 Max=4.74D-02 NDo=     1
 AX will form     1 AO Fock derivatives at one time.
 LinEq1:  Iter=  1 NonCon=     1 RMS=1.38D-03 Max=9.32D-03 NDo=     1
 LinEq1:  Iter=  2 NonCon=     1 RMS=5.26D-04 Max=3.79D-03 NDo=     1
 LinEq1:  Iter=  3 NonCon=     1 RMS=2.30D-04 Max=2.79D-03 NDo=     1
 LinEq1:  Iter=  4 NonCon=     1 RMS=9.20D-05 Max=6.67D-04 NDo=     1
 LinEq1:  Iter=  5 NonCon=     1 RMS=3.29D-05 Max=3.88D-04 NDo=     1
 LinEq1:  Iter=  6 NonCon=     1 RMS=7.86D-06 Max=8.22D-05 NDo=     1
 LinEq1:  Iter=  7 NonCon=     1 RMS=2.20D-06 Max=1.94D-05 NDo=     1
 LinEq1:  Iter=  8 NonCon=     1 RMS=3.46D-07 Max=2.21D-06 NDo=     1
 LinEq1:  Iter=  9 NonCon=     1 RMS=4.94D-08 Max=4.11D-07 NDo=     1
 LinEq1:  Iter= 10 NonCon=     1 RMS=9.55D-09 Max=8.49D-08 NDo=     1
 LinEq1:  Iter= 11 NonCon=     1 RMS=1.61D-09 Max=9.41D-09 NDo=     1
 LinEq1:  Iter= 12 NonCon=     1 RMS=2.68D-10 Max=2.08D-09 NDo=     1
 LinEq1:  Iter= 13 NonCon=     0 RMS=4.93D-11 Max=2.98D-10 NDo=     1
 Linear equations converged to 1.000D-10 1.000D-09 after    13 iterations.
 End of Minotr F.D. properties file   721 does not exist.
 End of Minotr F.D. properties file   722 does not exist.
 End of Minotr F.D. properties file   788 does not exist.
 Calling FoFJK, ICntrl=  10002127 FMM=F ISym2X=0 I1Cent= 0 IOpClX= 0 NMat=1 NMatS=1 NMatT=0.
 ***** Axes restored to original set *****
 -------------------------------------------------------------------
 Center     Atomic                   Forces (Hartrees/Bohr)
 Number     Number              X              Y              Z
 -------------------------------------------------------------------
      1        6           0.006291677    0.002678627   -0.001658401
      2        7          -0.002919429   -0.001015997    0.000574531
      3        1          -0.000590728   -0.001549551    0.001271537
      4        8           0.002333291    0.001805087   -0.001314017
      5        1          -0.004101276   -0.001019674    0.000457085
      6        1          -0.001013536   -0.000898492    0.000669265
 -------------------------------------------------------------------
 Cartesian Forces:  Max     0.006291677 RMS     0.002291817

 GradGradGradGradGradGradGradGradGradGradGradGradGradGradGradGradGradGrad
 Berny optimization.
 Using GEDIIS/GDIIS optimizer.
 FormGI is forming the generalized inverse of G from B-inverse, IUseBI=4.
 Internal  Forces:  Max     0.005257430 RMS     0.002346570
 Search for a local minimum.
 Step number   2 out of a maximum of   22
 All quantities printed in internal units (Hartrees-Bohrs-Radians)
 Mixed Optimization -- RFO/linear search
 Update second derivatives using D2CorX and points    1    2
 DE= -1.99D-03 DEPred=-1.97D-03 R= 1.01D+00
 TightC=F SS=  1.41D+00  RLast= 3.00D-01 DXNew= 5.0454D-01 9.0000D-01
 Trust test= 1.01D+00 RLast= 3.00D-01 DXMaxT set to 5.05D-01
 The second derivative matrix:
                          R1        R2        R3        R4        R5
           R1           1.18439
           R2          -0.00110   0.38244
           R3          -0.03127  -0.00568   0.04391
           R4           0.02182   0.00302   0.00468   0.51109
           R5           0.00729   0.00037   0.00232  -0.00168   0.53538
           A1          -0.01709  -0.00344  -0.00238   0.00235   0.00125
           A2          -0.03296  -0.00684  -0.00435   0.00441   0.00239
           A3           0.05524   0.01463   0.00353  -0.00543  -0.00381
           A4          -0.00636   0.00015  -0.00259   0.00176   0.00055
           A5          -0.00000  -0.00000  -0.00000   0.00000   0.00000
           A6           0.00000   0.00000   0.00000  -0.00000  -0.00000
           D1           0.00000   0.00000   0.00000  -0.00000  -0.00000
                          A1        A2        A3        A4        A5
           A1           0.15895
           A2          -0.00189   0.15665
           A3           0.00086   0.00103   0.01382
           A4          -0.00143  -0.00277   0.00481   0.01255
           A5          -0.00000  -0.00000  -0.00000  -0.00000   0.00559
           A6           0.00000   0.00000   0.00000   0.00000  -0.00000
           D1           0.00000   0.00000   0.00000   0.00000  -0.00000
                          A6        D1
           A6           0.01300
           D1           0.00000   0.00230
 ITU=  1  0
 Use linear search instead of GDIIS.
     Eigenvalues ---    0.00230   0.00516   0.00559   0.01300   0.01668
     Eigenvalues ---    0.04361   0.15439   0.16001   0.38330   0.51059
     Eigenvalues ---    0.53550   1.18992
 RFO step:  Lambda=-3.21057972D-03 EMin= 2.30000000D-03
 Quartic linear search produced a step of  0.20079.
 Maximum step size (   0.505) exceeded in Quadratic search.
    -- Step size scaled by   0.851
 Iteration  1 RMS(Cart)=  0.16753550 RMS(Int)=  0.07356118
 Iteration  2 RMS(Cart)=  0.11629997 RMS(Int)=  0.01523873
 Iteration  3 RMS(Cart)=  0.02051548 RMS(Int)=  0.00032086
 Iteration  4 RMS(Cart)=  0.00031773 RMS(Int)=  0.00000010
 Iteration  5 RMS(Cart)=  0.00000013 RMS(Int)=  0.00000000
 Variable       Old X    -DE/DX   Delta X   Delta X   Delta X     New X
                                 (Linear)    (Quad)   (Total)
    R1        2.22659   0.00526   0.00649   0.02418   0.03066   2.25725
    R2        2.03752  -0.00024   0.00482   0.01424   0.01906   2.05657
    R3        3.73221   0.00269   0.01952   0.10803   0.12755   3.85977
    R4        1.84088  -0.00158  -0.00201  -0.00921  -0.01121   1.82967
    R5        1.82550  -0.00048  -0.00110  -0.00429  -0.00539   1.82012
    A1        2.63883   0.00135   0.00245   0.01561   0.01806   2.65689
    A2        1.79221   0.00261   0.00423   0.02868   0.03292   1.82513
    A3        3.22102  -0.00423   0.01629  -0.43951  -0.42322   2.79781
    A4        3.17974   0.00135   0.05374   0.21855   0.27229   3.45203
    A5        3.14159   0.00000   0.00000   0.00001   0.00001   3.14159
    A6        3.14149  -0.00000   0.00000  -0.00001  -0.00001   3.14148
    D1       -3.14096  -0.00000   0.00000  -0.00002  -0.00002  -3.14098
         Item               Value     Threshold  Converged?
 Maximum Force            0.005257     0.000450     NO 
 RMS     Force            0.002347     0.000300     NO 
 Maximum Displacement     0.402463     0.001800     NO 
 RMS     Displacement     0.268868     0.001200     NO 
 Predicted change in Energy=-1.997704D-03
 GradGradGradGradGradGradGradGradGradGradGradGradGradGradGradGradGradGrad

                          Input orientation:                          
 ---------------------------------------------------------------------
 Center     Atomic      Atomic             Coordinates (Angstroms)
 Number     Number       Type             X           Y           Z
 ---------------------------------------------------------------------
      1          6           0        2.323672    0.359487   -0.129608
      2          7           0        1.171945    0.531666   -0.395462
      3          1           0        3.218575   -0.061989    0.324137
      4          8           0       -1.640943   -0.336284    0.062447
      5          1           0       -0.811952    0.081840   -0.212127
      6          1           0       -2.324561    0.141765   -0.419029
 ---------------------------------------------------------------------
                    Distance matrix (angstroms):
                    1          2          3          4          5
     1  C    0.000000
     2  N    1.194486   0.000000
     3  H    1.088292   2.249209   0.000000
     4  O    4.029783   2.979154   4.874283   0.000000
     5  H    3.148974   2.042500   4.068589   0.968217   0.000000
     6  H    4.662321   3.518258   5.596443   0.963163   1.527870
                    6
     6  H    0.000000
 Stoichiometry    CH3NO
 Framework group  C1[X(CH3NO)]
 Deg. of freedom    12
 Full point group                 C1      NOp   1
 Largest Abelian subgroup         C1      NOp   1
 Largest concise Abelian subgroup C1      NOp   1
                         Standard orientation:                         
 ---------------------------------------------------------------------
 Center     Atomic      Atomic             Coordinates (Angstroms)
 Number     Number       Type             X           Y           Z
 ---------------------------------------------------------------------
      1          6           0       -1.953436   -0.116711    0.000022
      2          7           0       -0.852701    0.347164   -0.000054
      3          1           0       -2.755178   -0.852638    0.000162
      4          8           0        2.075450   -0.201738   -0.000040
      5          1           0        1.182274    0.172003    0.000028
      6          1           0        2.658828    0.564652    0.000383
 ---------------------------------------------------------------------
 Rotational constants (GHZ):         145.7153825           3.5805585           3.4946861
 Standard basis: Aug-CC-pVDZ (5D, 7F)
 There are   102 symmetry adapted cartesian basis functions of A   symmetry.
 There are    96 symmetry adapted basis functions of A   symmetry.
    96 basis functions,   162 primitive gaussians,   102 cartesian basis functions
    12 alpha electrons       12 beta electrons
       nuclear repulsion energy        54.1842984380 Hartrees.
 NAtoms=    6 NActive=    6 NUniq=    6 SFac= 1.00D+00 NAtFMM=   60 NAOKFM=F Big=F
 Integral buffers will be    131072 words long.
 Raffenetti 1 integral format.
 Two-electron integral symmetry is turned on.
 One-electron integrals computed using PRISM.
 NBasis=    96 RedAO= T EigKep=  5.01D-04  NBF=    96
 NBsUse=    96 1.00D-06 EigRej= -1.00D+00 NBFU=    96
 Initial guess from the checkpoint file:  "/gscratch/scrubbed/gds001/Gau-7396.chk"
 B after Tr=    -0.000000    0.000000    0.000000
         Rot=    1.000000   -0.000079   -0.000001   -0.000374 Ang=  -0.04 deg.
 ExpMin= 2.97D-02 ExpMax= 1.17D+04 ExpMxC= 4.01D+02 IAcc=3 IRadAn=         5 AccDes= 0.00D+00
 Harris functional with IExCor=  205 and IRadAn=       5 diagonalized for initial guess.
 HarFok:  IExCor=  205 AccDes= 0.00D+00 IRadAn=         5 IDoV= 1 UseB2=F ITyADJ=14
 ICtDFT=  3500011 ScaDFX=  1.000000  1.000000  1.000000  1.000000
 FoFCou: FMM=F IPFlag=           0 FMFlag=      100000 FMFlg1=           0
         NFxFlg=           0 DoJE=T BraDBF=F KetDBF=T FulRan=T
         wScrn=  0.000000 ICntrl=       500 IOpCl=  0 I1Cent=   200000004 NGrid=           0
         NMat0=    1 NMatS0=      1 NMatT0=    0 NMatD0=    1 NMtDS0=    0 NMtDT0=    0
 Petite list used in FoFCou.
 Keep R1 ints in memory in canonical form, NReq=16746151.
 Requested convergence on RMS density matrix=1.00D-08 within 128 cycles.
 Requested convergence on MAX density matrix=1.00D-06.
 Requested convergence on             energy=1.00D-06.
 No special actions if energy rises.
 SCF Done:  E(RHF) =  -168.918940967     A.U. after   14 cycles
            NFock= 14  Conv=0.38D-08     -V/T= 2.0035
 ExpMin= 2.97D-02 ExpMax= 1.17D+04 ExpMxC= 4.01D+02 IAcc=3 IRadAn=         5 AccDes= 0.00D+00
 HarFok:  IExCor=  205 AccDes= 0.00D+00 IRadAn=         5 IDoV=-2 UseB2=F ITyADJ=14
 ICtDFT= 12500011 ScaDFX=  1.000000  1.000000  1.000000  1.000000
 Range of M.O.s used for correlation:     4    96
 NBasis=    96 NAE=    12 NBE=    12 NFC=     3 NFV=     0
 NROrb=     93 NOA=     9 NOB=     9 NVA=    84 NVB=    84

 **** Warning!!: The largest alpha MO coefficient is  0.12542956D+02

 Fully direct method using O(ONN) memory.
 JobTyp=1 Pass  1:  I=   4 to  12 NPSUse= 28 ParTrn=T ParDer=T DoDerP=T.
 Spin components of T(2) and E(2):
     alpha-alpha T2 =       0.2421988568D-01 E2=     -0.6785348544D-01
     alpha-beta  T2 =       0.1364149224D+00 E2=     -0.3928021167D+00
     beta-beta   T2 =       0.2421988568D-01 E2=     -0.6785348544D-01
 ANorm=    0.1088510309D+01
 E2 =    -0.5285090876D+00 EUMP2 =    -0.16944745005440D+03
          IDoAtm=111111
          Differentiating once with respect to electric field.
                with respect to dipole field.
          Differentiating once with respect to nuclear coordinates.
 Keep R1 ints in memory in canonical form, NReq=16749353.
          There are     1 degrees of freedom in the 1st order CPHF.  IDoFFX=0 NUNeed=     1.
 LinEq1:  Iter=  0 NonCon=     1 RMS=6.16D-03 Max=4.92D-02 NDo=     1
 AX will form     1 AO Fock derivatives at one time.
 LinEq1:  Iter=  1 NonCon=     1 RMS=1.45D-03 Max=9.59D-03 NDo=     1
 LinEq1:  Iter=  2 NonCon=     1 RMS=5.77D-04 Max=5.53D-03 NDo=     1
 LinEq1:  Iter=  3 NonCon=     1 RMS=2.98D-04 Max=4.78D-03 NDo=     1
 LinEq1:  Iter=  4 NonCon=     1 RMS=1.51D-04 Max=1.97D-03 NDo=     1
 LinEq1:  Iter=  5 NonCon=     1 RMS=6.86D-05 Max=6.55D-04 NDo=     1
 LinEq1:  Iter=  6 NonCon=     1 RMS=1.90D-05 Max=1.53D-04 NDo=     1
 LinEq1:  Iter=  7 NonCon=     1 RMS=3.50D-06 Max=2.55D-05 NDo=     1
 LinEq1:  Iter=  8 NonCon=     1 RMS=4.58D-07 Max=3.01D-06 NDo=     1
 LinEq1:  Iter=  9 NonCon=     1 RMS=8.10D-08 Max=6.79D-07 NDo=     1
 LinEq1:  Iter= 10 NonCon=     1 RMS=1.65D-08 Max=1.28D-07 NDo=     1
 LinEq1:  Iter= 11 NonCon=     1 RMS=3.10D-09 Max=1.75D-08 NDo=     1
 LinEq1:  Iter= 12 NonCon=     1 RMS=4.54D-10 Max=3.89D-09 NDo=     1
 LinEq1:  Iter= 13 NonCon=     0 RMS=7.58D-11 Max=5.66D-10 NDo=     1
 Linear equations converged to 1.000D-10 1.000D-09 after    13 iterations.
 End of Minotr F.D. properties file   721 does not exist.
 End of Minotr F.D. properties file   722 does not exist.
 End of Minotr F.D. properties file   788 does not exist.
 Calling FoFJK, ICntrl=  10002127 FMM=F ISym2X=0 I1Cent= 0 IOpClX= 0 NMat=1 NMatS=1 NMatT=0.
 ***** Axes restored to original set *****
 -------------------------------------------------------------------
 Center     Atomic                   Forces (Hartrees/Bohr)
 Number     Number              X              Y              Z
 -------------------------------------------------------------------
      1        6          -0.023661849   -0.011718387    0.007645341
      2        7           0.024455137    0.003238042   -0.000279005
      3        1           0.000427508    0.008675434   -0.007409608
      4        8          -0.001064483   -0.002235818    0.001813347
      5        1           0.000650933    0.000894761   -0.000701441
      6        1          -0.000807246    0.001145968   -0.001068634
 -------------------------------------------------------------------
 Cartesian Forces:  Max     0.024455137 RMS     0.009155639

 GradGradGradGradGradGradGradGradGradGradGradGradGradGradGradGradGradGrad
 Berny optimization.
 Using GEDIIS/GDIIS optimizer.
 FormGI is forming the generalized inverse of G from B-inverse, IUseBI=4.
 Internal  Forces:  Max     0.021911508 RMS     0.008772873
 Search for a local minimum.
 Step number   3 out of a maximum of   22
 All quantities printed in internal units (Hartrees-Bohrs-Radians)
 Mixed Optimization -- RFO/linear search
 Update second derivatives using D2CorX and points    1    3    2
 DE=  3.39D-03 DEPred=-2.00D-03 R=-1.69D+00
 Trust test=-1.69D+00 RLast= 5.22D-01 DXMaxT set to 2.52D-01
 The second derivative matrix:
                          R1        R2        R3        R4        R5
           R1           1.22637
           R2           0.01192   0.38529
           R3          -0.03525  -0.00504   0.04134
           R4           0.01811   0.00119   0.00610   0.51103
           R5           0.00409  -0.00066   0.00269  -0.00142   0.53562
           A1          -0.02045  -0.00336  -0.00384   0.00329   0.00154
           A2          -0.03241  -0.00516  -0.00678   0.00522   0.00240
           A3           0.00790   0.00299   0.00322   0.00050  -0.00010
           A4          -0.00426   0.00112  -0.00329   0.00175   0.00040
           A5          -0.00000  -0.00000  -0.00000   0.00000   0.00000
           A6           0.00000   0.00000   0.00000  -0.00000  -0.00000
           D1           0.00000   0.00000   0.00000  -0.00000  -0.00000
                          A1        A2        A3        A4        A5
           A1           0.15815
           A2          -0.00336   0.15474
           A3           0.00176  -0.00345   0.05942
           A4          -0.00190  -0.00315   0.00163   0.01257
           A5          -0.00000  -0.00000   0.00000  -0.00000   0.00559
           A6           0.00000   0.00000  -0.00000   0.00000  -0.00000
           D1           0.00000   0.00000  -0.00000   0.00000  -0.00000
                          A6        D1
           A6           0.01300
           D1           0.00000   0.00230
 ITU= -1  1  0
 Use linear search instead of GDIIS.
     Eigenvalues ---    0.00230   0.00559   0.01186   0.01300   0.03940
     Eigenvalues ---    0.05976   0.15192   0.16032   0.38533   0.51074
     Eigenvalues ---    0.53573   1.22947
 RFO step:  Lambda=-2.84815685D-04 EMin= 2.29999999D-03
 Quartic linear search produced a step of -0.78118.
 Iteration  1 RMS(Cart)=  0.12850431 RMS(Int)=  0.04595935
 Iteration  2 RMS(Cart)=  0.06566231 RMS(Int)=  0.00551555
 Iteration  3 RMS(Cart)=  0.00535700 RMS(Int)=  0.00000534
 Iteration  4 RMS(Cart)=  0.00000752 RMS(Int)=  0.00000000
 Iteration  5 RMS(Cart)=  0.00000000 RMS(Int)=  0.00000000
 Variable       Old X    -DE/DX   Delta X   Delta X   Delta X     New X
                                 (Linear)    (Quad)   (Total)
    R1        2.25725  -0.02191  -0.02395   0.00222  -0.02173   2.23552
    R2        2.05657  -0.00610  -0.01489  -0.00319  -0.01808   2.03849
    R3        3.85977   0.00123  -0.09964   0.06627  -0.03337   3.82640
    R4        1.82967   0.00228   0.00876  -0.00283   0.00593   1.83559
    R5        1.82012   0.00168   0.00421  -0.00054   0.00367   1.82379
    A1        2.65689   0.00110  -0.01411   0.01116  -0.00295   2.65394
    A2        1.82513  -0.00099  -0.02571   0.01725  -0.00846   1.81667
    A3        2.79781   0.01985   0.33061   0.01610   0.34671   3.14451
    A4        3.45203  -0.00069  -0.21271   0.08072  -0.13198   3.32005
    A5        3.14159   0.00000  -0.00000   0.00001   0.00001   3.14160
    A6        3.14148  -0.00000   0.00001  -0.00002  -0.00001   3.14147
    D1       -3.14098  -0.00000   0.00002  -0.00010  -0.00009  -3.14107
         Item               Value     Threshold  Converged?
 Maximum Force            0.021912     0.000450     NO 
 RMS     Force            0.008773     0.000300     NO 
 Maximum Displacement     0.299810     0.001800     NO 
 RMS     Displacement     0.185573     0.001200     NO 
 Predicted change in Energy=-3.332122D-04
 GradGradGradGradGradGradGradGradGradGradGradGradGradGradGradGradGradGrad

                          Input orientation:                          
 ---------------------------------------------------------------------
 Center     Atomic      Atomic             Coordinates (Angstroms)
 Number     Number       Type             X           Y           Z
 ---------------------------------------------------------------------
      1          6           0        2.287065    0.259404   -0.047385
      2          7           0        1.150095    0.440448   -0.319385
      3          1           0        3.324657    0.096663    0.198714
      4          8           0       -1.713824   -0.322116    0.042813
      5          1           0       -0.820679    0.007857   -0.149380
      6          1           0       -2.290579    0.234229   -0.495019
 ---------------------------------------------------------------------
                    Distance matrix (angstroms):
                    1          2          3          4          5
     1  C    0.000000
     2  N    1.182988   0.000000
     3  H    1.078725   2.261710   0.000000
     4  O    4.043935   2.985753   5.058257   0.000000
     5  H    3.119575   2.024842   4.160873   0.971354   0.000000
     6  H    4.599547   3.451320   5.659599   0.965106   1.526865
                    6
     6  H    0.000000
 Stoichiometry    CH3NO
 Framework group  C1[X(CH3NO)]
 Deg. of freedom    12
 Full point group                 C1      NOp   1
 Largest Abelian subgroup         C1      NOp   1
 Largest concise Abelian subgroup C1      NOp   1
                         Standard orientation:                         
 ---------------------------------------------------------------------
 Center     Atomic      Atomic             Coordinates (Angstroms)
 Number     Number       Type             X           Y           Z
 ---------------------------------------------------------------------
      1          6           0       -1.944959   -0.136547    0.000034
      2          7           0       -0.846602    0.302856   -0.000061
      3          1           0       -2.947676   -0.534297    0.000117
      4          8           0        2.098659   -0.187203   -0.000021
      5          1           0        1.166639    0.086414   -0.000032
      6          1           0        2.587736    0.644802    0.000297
 ---------------------------------------------------------------------
 Rotational constants (GHZ):         186.9448400           3.5385819           3.4728462
 Standard basis: Aug-CC-pVDZ (5D, 7F)
 There are   102 symmetry adapted cartesian basis functions of A   symmetry.
 There are    96 symmetry adapted basis functions of A   symmetry.
    96 basis functions,   162 primitive gaussians,   102 cartesian basis functions
    12 alpha electrons       12 beta electrons
       nuclear repulsion energy        54.3346465530 Hartrees.
 NAtoms=    6 NActive=    6 NUniq=    6 SFac= 1.00D+00 NAtFMM=   60 NAOKFM=F Big=F
 Integral buffers will be    131072 words long.
 Raffenetti 1 integral format.
 Two-electron integral symmetry is turned on.
 One-electron integrals computed using PRISM.
 NBasis=    96 RedAO= T EigKep=  4.75D-04  NBF=    96
 NBsUse=    96 1.00D-06 EigRej= -1.00D+00 NBFU=    96
 Lowest energy guess from the checkpoint file:  "/gscratch/scrubbed/gds001/Gau-7396.chk"
 B after Tr=     0.000000   -0.000000    0.000000
         Rot=    1.000000   -0.000030   -0.000001    0.000369 Ang=  -0.04 deg.
 B after Tr=     0.000000   -0.000000    0.000000
         Rot=    1.000000    0.000042    0.000001    0.000738 Ang=   0.08 deg.
 Keep R1 ints in memory in canonical form, NReq=16746050.
 Requested convergence on RMS density matrix=1.00D-08 within 128 cycles.
 Requested convergence on MAX density matrix=1.00D-06.
 Requested convergence on             energy=1.00D-06.
 No special actions if energy rises.
 SCF Done:  E(RHF) =  -168.926374211     A.U. after   12 cycles
            NFock= 12  Conv=0.46D-08     -V/T= 2.0032
 ExpMin= 2.97D-02 ExpMax= 1.17D+04 ExpMxC= 4.01D+02 IAcc=3 IRadAn=         5 AccDes= 0.00D+00
 HarFok:  IExCor=  205 AccDes= 0.00D+00 IRadAn=         5 IDoV=-2 UseB2=F ITyADJ=14
 ICtDFT= 12500011 ScaDFX=  1.000000  1.000000  1.000000  1.000000
 Range of M.O.s used for correlation:     4    96
 NBasis=    96 NAE=    12 NBE=    12 NFC=     3 NFV=     0
 NROrb=     93 NOA=     9 NOB=     9 NVA=    84 NVB=    84

 **** Warning!!: The largest alpha MO coefficient is  0.12970876D+02

 Fully direct method using O(ONN) memory.
 JobTyp=1 Pass  1:  I=   4 to  12 NPSUse= 28 ParTrn=T ParDer=T DoDerP=T.
 Spin components of T(2) and E(2):
     alpha-alpha T2 =       0.2376731385D-01 E2=     -0.6738091739D-01
     alpha-beta  T2 =       0.1336020506D+00 E2=     -0.3901915597D+00
     beta-beta   T2 =       0.2376731385D-01 E2=     -0.6738091739D-01
 ANorm=    0.1086801122D+01
 E2 =    -0.5249533945D+00 EUMP2 =    -0.16945132760564D+03
          IDoAtm=111111
          Differentiating once with respect to electric field.
                with respect to dipole field.
          Differentiating once with respect to nuclear coordinates.
 Keep R1 ints in memory in canonical form, NReq=16749309.
          There are     1 degrees of freedom in the 1st order CPHF.  IDoFFX=0 NUNeed=     1.
 LinEq1:  Iter=  0 NonCon=     1 RMS=6.04D-03 Max=4.81D-02 NDo=     1
 AX will form     1 AO Fock derivatives at one time.
 LinEq1:  Iter=  1 NonCon=     1 RMS=1.39D-03 Max=1.01D-02 NDo=     1
 LinEq1:  Iter=  2 NonCon=     1 RMS=5.34D-04 Max=3.72D-03 NDo=     1
 LinEq1:  Iter=  3 NonCon=     1 RMS=2.37D-04 Max=2.90D-03 NDo=     1
 LinEq1:  Iter=  4 NonCon=     1 RMS=9.41D-05 Max=7.26D-04 NDo=     1
 LinEq1:  Iter=  5 NonCon=     1 RMS=3.38D-05 Max=4.11D-04 NDo=     1
 LinEq1:  Iter=  6 NonCon=     1 RMS=8.42D-06 Max=8.99D-05 NDo=     1
 LinEq1:  Iter=  7 NonCon=     1 RMS=2.36D-06 Max=1.94D-05 NDo=     1
 LinEq1:  Iter=  8 NonCon=     1 RMS=3.53D-07 Max=2.24D-06 NDo=     1
 LinEq1:  Iter=  9 NonCon=     1 RMS=5.03D-08 Max=4.36D-07 NDo=     1
 LinEq1:  Iter= 10 NonCon=     1 RMS=9.74D-09 Max=8.74D-08 NDo=     1
 LinEq1:  Iter= 11 NonCon=     1 RMS=1.75D-09 Max=1.05D-08 NDo=     1
 LinEq1:  Iter= 12 NonCon=     1 RMS=2.98D-10 Max=2.50D-09 NDo=     1
 LinEq1:  Iter= 13 NonCon=     0 RMS=5.38D-11 Max=3.06D-10 NDo=     1
 Linear equations converged to 1.000D-10 1.000D-09 after    13 iterations.
 End of Minotr F.D. properties file   721 does not exist.
 End of Minotr F.D. properties file   722 does not exist.
 End of Minotr F.D. properties file   788 does not exist.
 Calling FoFJK, ICntrl=  10002127 FMM=F ISym2X=0 I1Cent= 0 IOpClX= 0 NMat=1 NMatS=1 NMatT=0.
 ***** Axes restored to original set *****
 -------------------------------------------------------------------
 Center     Atomic                   Forces (Hartrees/Bohr)
 Number     Number              X              Y              Z
 -------------------------------------------------------------------
      1        6          -0.003761594    0.000807396   -0.001078726
      2        7           0.005715202   -0.000893808    0.001352910
      3        1          -0.000518711    0.000169489   -0.000198795
      4        8           0.000049269   -0.000055840    0.000052877
      5        1          -0.001734777   -0.000013373   -0.000166069
      6        1           0.000250611   -0.000013865    0.000037802
 -------------------------------------------------------------------
 Cartesian Forces:  Max     0.005715202 RMS     0.001743324

 GradGradGradGradGradGradGradGradGradGradGradGradGradGradGradGradGradGrad
 Berny optimization.
 Using GEDIIS/GDIIS optimizer.
 FormGI is forming the generalized inverse of G from B-inverse, IUseBI=4.
 Internal  Forces:  Max     0.004557038 RMS     0.001427865
 Search for a local minimum.
 Step number   4 out of a maximum of   22
 All quantities printed in internal units (Hartrees-Bohrs-Radians)
 Mixed Optimization -- RFO/linear search
 Update second derivatives using D2CorX and points    1    3    2    4
 DE= -4.92D-04 DEPred=-3.33D-04 R= 1.48D+00
 TightC=F SS=  1.41D+00  RLast= 1.88D-01 DXNew= 4.2426D-01 5.6403D-01
 Trust test= 1.48D+00 RLast= 1.88D-01 DXMaxT set to 4.24D-01
 The second derivative matrix:
                          R1        R2        R3        R4        R5
           R1           1.34587
           R2           0.01765   0.38390
           R3          -0.03412  -0.00363   0.03343
           R4           0.00943   0.00020   0.00934   0.51027
           R5           0.00383  -0.00054   0.00398  -0.00194   0.53532
           A1          -0.02619  -0.00295  -0.00881   0.00577   0.00240
           A2          -0.00453  -0.00172  -0.01002   0.00465   0.00253
           A3          -0.00652   0.00082   0.00500   0.00088  -0.00002
           A4           0.00751   0.00209  -0.00525   0.00177   0.00070
           A5          -0.00000  -0.00000  -0.00000   0.00000   0.00000
           A6           0.00000   0.00000   0.00000  -0.00000  -0.00000
           D1           0.00001   0.00000   0.00000  -0.00000  -0.00000
                          A1        A2        A3        A4        A5
           A1           0.15535
           A2          -0.00671   0.15815
           A3           0.00355  -0.00501   0.06390
           A4          -0.00375  -0.00137   0.00064   0.01319
           A5          -0.00000   0.00000   0.00000  -0.00000   0.00559
           A6           0.00000   0.00000  -0.00000   0.00000   0.00000
           D1           0.00000   0.00000  -0.00000   0.00000   0.00000
                          A6        D1
           A6           0.01300
           D1          -0.00000   0.00230
 ITU=  1 -1  1  0
 Use linear search instead of GDIIS.
     Eigenvalues ---    0.00230   0.00559   0.01142   0.01300   0.03160
     Eigenvalues ---    0.06411   0.15094   0.16389   0.38364   0.51039
     Eigenvalues ---    0.53551   1.34785
 RFO step:  Lambda=-8.19347677D-05 EMin= 2.29999983D-03
 Quartic linear search produced a step of  0.12414.
 Iteration  1 RMS(Cart)=  0.02393644 RMS(Int)=  0.00019107
 Iteration  2 RMS(Cart)=  0.00021983 RMS(Int)=  0.00000001
 Iteration  3 RMS(Cart)=  0.00000002 RMS(Int)=  0.00000000
 Variable       Old X    -DE/DX   Delta X   Delta X   Delta X     New X
                                 (Linear)    (Quad)   (Total)
    R1        2.23552  -0.00456   0.00111  -0.00320  -0.00209   2.23344
    R2        2.03849  -0.00057   0.00012  -0.00113  -0.00101   2.03749
    R3        3.82640   0.00141   0.01169   0.03767   0.04937   3.87576
    R4        1.83559  -0.00023  -0.00066  -0.00091  -0.00157   1.83402
    R5        1.82379  -0.00018  -0.00021  -0.00058  -0.00079   1.82300
    A1        2.65394   0.00107   0.00188   0.00839   0.01027   2.66421
    A2        1.81667  -0.00033   0.00304  -0.00130   0.00174   1.81840
    A3        3.14451   0.00023  -0.00950   0.00803  -0.00147   3.14304
    A4        3.32005   0.00007   0.01742   0.01467   0.03209   3.35213
    A5        3.14160  -0.00000   0.00000  -0.00000   0.00000   3.14160
    A6        3.14147  -0.00000  -0.00000  -0.00001  -0.00001   3.14146
    D1       -3.14107  -0.00000  -0.00001  -0.00011  -0.00013  -3.14120
         Item               Value     Threshold  Converged?
 Maximum Force            0.004557     0.000450     NO 
 RMS     Force            0.001428     0.000300     NO 
 Maximum Displacement     0.042838     0.001800     NO 
 RMS     Displacement     0.023867     0.001200     NO 
 Predicted change in Energy=-4.543449D-05
 GradGradGradGradGradGradGradGradGradGradGradGradGradGradGradGradGradGrad

                          Input orientation:                          
 ---------------------------------------------------------------------
 Center     Atomic      Atomic             Coordinates (Angstroms)
 Number     Number       Type             X           Y           Z
 ---------------------------------------------------------------------
      1          6           0        2.301431    0.259294   -0.045820
      2          7           0        1.165969    0.441390   -0.318614
      3          1           0        3.337690    0.094342    0.202085
      4          8           0       -1.719836   -0.322354    0.042377
      5          1           0       -0.835272    0.020728   -0.161969
      6          1           0       -2.313248    0.223084   -0.487700
 ---------------------------------------------------------------------
                    Distance matrix (angstroms):
                    1          2          3          4          5
     1  C    0.000000
     2  N    1.181884   0.000000
     3  H    1.078193   2.260076   0.000000
     4  O    4.064072   3.006907   5.077175   0.000000
     5  H    3.147906   2.050966   4.189459   0.970523   0.000000
     6  H    4.635928   3.490158   5.694338   0.964688   1.526913
                    6
     6  H    0.000000
 Stoichiometry    CH3NO
 Framework group  C1[X(CH3NO)]
 Deg. of freedom    12
 Full point group                 C1      NOp   1
 Largest Abelian subgroup         C1      NOp   1
 Largest concise Abelian subgroup C1      NOp   1
                         Standard orientation:                         
 ---------------------------------------------------------------------
 Center     Atomic      Atomic             Coordinates (Angstroms)
 Number     Number       Type             X           Y           Z
 ---------------------------------------------------------------------
      1          6           0       -1.954083   -0.137091    0.000026
      2          7           0       -0.857052    0.302649   -0.000045
      3          1           0       -2.955449   -0.536798    0.000087
      4          8           0        2.109679   -0.187245   -0.000016
      5          1           0        1.184441    0.105758   -0.000029
      6          1           0        2.617436    0.633003    0.000225
 ---------------------------------------------------------------------
 Rotational constants (GHZ):         187.5498818           3.4979013           3.4338581
 Standard basis: Aug-CC-pVDZ (5D, 7F)
 There are   102 symmetry adapted cartesian basis functions of A   symmetry.
 There are    96 symmetry adapted basis functions of A   symmetry.
    96 basis functions,   162 primitive gaussians,   102 cartesian basis functions
    12 alpha electrons       12 beta electrons
       nuclear repulsion energy        54.2051322492 Hartrees.
 NAtoms=    6 NActive=    6 NUniq=    6 SFac= 1.00D+00 NAtFMM=   60 NAOKFM=F Big=F
 Integral buffers will be    131072 words long.
 Raffenetti 1 integral format.
 Two-electron integral symmetry is turned on.
 One-electron integrals computed using PRISM.
 NBasis=    96 RedAO= T EigKep=  4.73D-04  NBF=    96
 NBsUse=    96 1.00D-06 EigRej= -1.00D+00 NBFU=    96
 Initial guess from the checkpoint file:  "/gscratch/scrubbed/gds001/Gau-7396.chk"
 B after Tr=    -0.000000    0.000000   -0.000000
         Rot=    1.000000   -0.000002   -0.000000   -0.000077 Ang=  -0.01 deg.
 ExpMin= 2.97D-02 ExpMax= 1.17D+04 ExpMxC= 4.01D+02 IAcc=3 IRadAn=         5 AccDes= 0.00D+00
 Harris functional with IExCor=  205 and IRadAn=       5 diagonalized for initial guess.
 HarFok:  IExCor=  205 AccDes= 0.00D+00 IRadAn=         5 IDoV= 1 UseB2=F ITyADJ=14
 ICtDFT=  3500011 ScaDFX=  1.000000  1.000000  1.000000  1.000000
 FoFCou: FMM=F IPFlag=           0 FMFlag=      100000 FMFlg1=           0
         NFxFlg=           0 DoJE=T BraDBF=F KetDBF=T FulRan=T
         wScrn=  0.000000 ICntrl=       500 IOpCl=  0 I1Cent=   200000004 NGrid=           0
         NMat0=    1 NMatS0=      1 NMatT0=    0 NMatD0=    1 NMtDS0=    0 NMtDT0=    0
 Petite list used in FoFCou.
 Keep R1 ints in memory in canonical form, NReq=16745905.
 Requested convergence on RMS density matrix=1.00D-08 within 128 cycles.
 Requested convergence on MAX density matrix=1.00D-06.
 Requested convergence on             energy=1.00D-06.
 No special actions if energy rises.
 SCF Done:  E(RHF) =  -168.926892439     A.U. after   11 cycles
            NFock= 11  Conv=0.87D-08     -V/T= 2.0032
 ExpMin= 2.97D-02 ExpMax= 1.17D+04 ExpMxC= 4.01D+02 IAcc=3 IRadAn=         5 AccDes= 0.00D+00
 HarFok:  IExCor=  205 AccDes= 0.00D+00 IRadAn=         5 IDoV=-2 UseB2=F ITyADJ=14
 ICtDFT= 12500011 ScaDFX=  1.000000  1.000000  1.000000  1.000000
 Range of M.O.s used for correlation:     4    96
 NBasis=    96 NAE=    12 NBE=    12 NFC=     3 NFV=     0
 NROrb=     93 NOA=     9 NOB=     9 NVA=    84 NVB=    84

 **** Warning!!: The largest alpha MO coefficient is  0.13013649D+02

 Fully direct method using O(ONN) memory.
 JobTyp=1 Pass  1:  I=   4 to  12 NPSUse= 28 ParTrn=T ParDer=T DoDerP=T.
 Spin components of T(2) and E(2):
     alpha-alpha T2 =       0.2371881988D-01 E2=     -0.6730107461D-01
     alpha-beta  T2 =       0.1333982134D+00 E2=     -0.3899039965D+00
     beta-beta   T2 =       0.2371881988D-01 E2=     -0.6730107461D-01
 ANorm=    0.1086662714D+01
 E2 =    -0.5245061457D+00 EUMP2 =    -0.16945139858481D+03
          IDoAtm=111111
          Differentiating once with respect to electric field.
                with respect to dipole field.
          Differentiating once with respect to nuclear coordinates.
 Keep R1 ints in memory in canonical form, NReq=16749265.
          There are     1 degrees of freedom in the 1st order CPHF.  IDoFFX=0 NUNeed=     1.
 LinEq1:  Iter=  0 NonCon=     1 RMS=6.02D-03 Max=4.78D-02 NDo=     1
 AX will form     1 AO Fock derivatives at one time.
 LinEq1:  Iter=  1 NonCon=     1 RMS=1.38D-03 Max=1.02D-02 NDo=     1
 LinEq1:  Iter=  2 NonCon=     1 RMS=5.30D-04 Max=3.60D-03 NDo=     1
 LinEq1:  Iter=  3 NonCon=     1 RMS=2.35D-04 Max=2.84D-03 NDo=     1
 LinEq1:  Iter=  4 NonCon=     1 RMS=9.29D-05 Max=7.22D-04 NDo=     1
 LinEq1:  Iter=  5 NonCon=     1 RMS=3.31D-05 Max=3.87D-04 NDo=     1
 LinEq1:  Iter=  6 NonCon=     1 RMS=7.86D-06 Max=8.27D-05 NDo=     1
 LinEq1:  Iter=  7 NonCon=     1 RMS=2.19D-06 Max=1.84D-05 NDo=     1
 LinEq1:  Iter=  8 NonCon=     1 RMS=3.47D-07 Max=2.30D-06 NDo=     1
 LinEq1:  Iter=  9 NonCon=     1 RMS=4.94D-08 Max=4.45D-07 NDo=     1
 LinEq1:  Iter= 10 NonCon=     1 RMS=9.50D-09 Max=8.58D-08 NDo=     1
 LinEq1:  Iter= 11 NonCon=     1 RMS=1.71D-09 Max=1.01D-08 NDo=     1
 LinEq1:  Iter= 12 NonCon=     1 RMS=2.88D-10 Max=2.40D-09 NDo=     1
 LinEq1:  Iter= 13 NonCon=     0 RMS=5.12D-11 Max=3.03D-10 NDo=     1
 Linear equations converged to 1.000D-10 1.000D-09 after    13 iterations.
 End of Minotr F.D. properties file   721 does not exist.
 End of Minotr F.D. properties file   722 does not exist.
 End of Minotr F.D. properties file   788 does not exist.
 Calling FoFJK, ICntrl=  10002127 FMM=F ISym2X=0 I1Cent= 0 IOpClX= 0 NMat=1 NMatS=1 NMatT=0.
 ***** Axes restored to original set *****
 -------------------------------------------------------------------
 Center     Atomic                   Forces (Hartrees/Bohr)
 Number     Number              X              Y              Z
 -------------------------------------------------------------------
      1        6          -0.002005150    0.000459272   -0.000599823
      2        7           0.003084460   -0.000538850    0.000778747
      3        1          -0.000166241    0.000128378   -0.000127422
      4        8          -0.000196482   -0.000413973    0.000335901
      5        1          -0.000778642    0.000109910   -0.000174316
      6        1           0.000062055    0.000255263   -0.000213086
 -------------------------------------------------------------------
 Cartesian Forces:  Max     0.003084460 RMS     0.000947170

 GradGradGradGradGradGradGradGradGradGradGradGradGradGradGradGradGradGrad
 Berny optimization.
 Using GEDIIS/GDIIS optimizer.
 FormGI is forming the generalized inverse of G from B-inverse, IUseBI=4.
 Internal  Forces:  Max     0.002344503 RMS     0.000799074
 Search for a local minimum.
 Step number   5 out of a maximum of   22
 All quantities printed in internal units (Hartrees-Bohrs-Radians)
 Mixed Optimization -- En-DIIS/RFO-DIIS
 Update second derivatives using D2CorX and points    1    3    2    4    5
 DE= -7.10D-05 DEPred=-4.54D-05 R= 1.56D+00
 TightC=F SS=  1.41D+00  RLast= 5.99D-02 DXNew= 7.1352D-01 1.7964D-01
 Trust test= 1.56D+00 RLast= 5.99D-02 DXMaxT set to 4.24D-01
 The second derivative matrix:
                          R1        R2        R3        R4        R5
           R1           1.20899
           R2          -0.00294   0.38191
           R3           0.00610   0.00081   0.01813
           R4           0.01585   0.00250   0.00780   0.51516
           R5           0.01150   0.00138   0.00184   0.00229   0.53901
           A1           0.01315   0.00287  -0.02323   0.00794   0.00350
           A2          -0.01966  -0.00602  -0.00427   0.00073  -0.00031
           A3           0.00757   0.00329   0.00140   0.00195   0.00083
           A4          -0.00154  -0.00102  -0.00340  -0.00180  -0.00226
           A5          -0.00000  -0.00000   0.00000  -0.00000  -0.00000
           A6           0.00000   0.00000   0.00000   0.00000   0.00000
           D1          -0.00000  -0.00000   0.00000  -0.00000  -0.00000
                          A1        A2        A3        A4        A5
           A1           0.14447
           A2          -0.00491   0.16152
           A3           0.00124  -0.00489   0.06289
           A4          -0.00488   0.00194   0.00020   0.01583
           A5          -0.00000   0.00000   0.00000   0.00000   0.00559
           A6           0.00000  -0.00000   0.00000  -0.00000  -0.00000
           D1           0.00000   0.00000  -0.00000   0.00000  -0.00000
                          A6        D1
           A6           0.01300
           D1          -0.00000   0.00230
 ITU=  1  1 -1  1  0
 Use linear search instead of GDIIS.
     Eigenvalues ---    0.00230   0.00559   0.01038   0.01300   0.01883
     Eigenvalues ---    0.06260   0.14736   0.16247   0.38208   0.51493
     Eigenvalues ---    0.53906   1.21018
 RFO step:  Lambda=-3.32446179D-05 EMin= 2.29999774D-03
 Quartic linear search produced a step of  1.31992.
 Iteration  1 RMS(Cart)=  0.03466525 RMS(Int)=  0.00012751
 Iteration  2 RMS(Cart)=  0.00015503 RMS(Int)=  0.00000002
 Iteration  3 RMS(Cart)=  0.00000003 RMS(Int)=  0.00000000
 Variable       Old X    -DE/DX   Delta X   Delta X   Delta X     New X
                                 (Linear)    (Quad)   (Total)
    R1        2.23344  -0.00234  -0.00275   0.00017  -0.00259   2.23085
    R2        2.03749  -0.00021  -0.00133   0.00044  -0.00089   2.03660
    R3        3.87576   0.00090   0.06516   0.01919   0.08435   3.96011
    R4        1.83402   0.00020  -0.00207   0.00099  -0.00109   1.83294
    R5        1.82300   0.00022  -0.00104   0.00114   0.00010   1.82310
    A1        2.66421   0.00094   0.01355   0.00738   0.02093   2.68514
    A2        1.81840  -0.00046   0.00229  -0.00271  -0.00042   1.81798
    A3        3.14304   0.00026  -0.00194   0.00412   0.00218   3.14523
    A4        3.35213  -0.00023   0.04235  -0.02913   0.01322   3.36535
    A5        3.14160  -0.00000   0.00000  -0.00001  -0.00001   3.14160
    A6        3.14146   0.00000  -0.00002   0.00001  -0.00000   3.14145
    D1       -3.14120  -0.00000  -0.00017  -0.00015  -0.00032  -3.14151
         Item               Value     Threshold  Converged?
 Maximum Force            0.002345     0.000450     NO 
 RMS     Force            0.000799     0.000300     NO 
 Maximum Displacement     0.051529     0.001800     NO 
 RMS     Displacement     0.034690     0.001200     NO 
 Predicted change in Energy=-4.563855D-05
 GradGradGradGradGradGradGradGradGradGradGradGradGradGradGradGradGradGrad

                          Input orientation:                          
 ---------------------------------------------------------------------
 Center     Atomic      Atomic             Coordinates (Angstroms)
 Number     Number       Type             X           Y           Z
 ---------------------------------------------------------------------
      1          6           0        2.325993    0.259078   -0.043123
      2          7           0        1.189031    0.432884   -0.309059
      3          1           0        3.364958    0.103330    0.197247
      4          8           0       -1.744176   -0.322560    0.040009
      5          1           0       -0.860690    0.021242   -0.165062
      6          1           0       -2.338382    0.222510   -0.489654
 ---------------------------------------------------------------------
                    Distance matrix (angstroms):
                    1          2          3          4          5
     1  C    0.000000
     2  N    1.180514   0.000000
     3  H    1.077721   2.258231   0.000000
     4  O    4.112358   3.048975   5.129264   0.000000
     5  H    3.197872   2.095601   4.241946   0.969949   0.000000
     6  H    4.685843   3.538293   5.745792   0.964742   1.526251
                    6
     6  H    0.000000
 Stoichiometry    CH3NO
 Framework group  C1[X(CH3NO)]
 Deg. of freedom    12
 Full point group                 C1      NOp   1
 Largest Abelian subgroup         C1      NOp   1
 Largest concise Abelian subgroup C1      NOp   1
                         Standard orientation:                         
 ---------------------------------------------------------------------
 Center     Atomic      Atomic             Coordinates (Angstroms)
 Number     Number       Type             X           Y           Z
 ---------------------------------------------------------------------
      1          6           0       -1.975246   -0.133658    0.000005
      2          7           0       -0.874550    0.293052   -0.000007
      3          1           0       -2.981510   -0.519555    0.000016
      4          8           0        2.136798   -0.184473   -0.000001
      5          1           0        1.213194    0.111766   -0.000036
      6          1           0        2.647263    0.634155    0.000048
 ---------------------------------------------------------------------
 Rotational constants (GHZ):         196.3854410           3.4118425           3.3535801
 Standard basis: Aug-CC-pVDZ (5D, 7F)
 There are   102 symmetry adapted cartesian basis functions of A   symmetry.
 There are    96 symmetry adapted basis functions of A   symmetry.
    96 basis functions,   162 primitive gaussians,   102 cartesian basis functions
    12 alpha electrons       12 beta electrons
       nuclear repulsion energy        53.9358776176 Hartrees.
 NAtoms=    6 NActive=    6 NUniq=    6 SFac= 1.00D+00 NAtFMM=   60 NAOKFM=F Big=F
 Integral buffers will be    131072 words long.
 Raffenetti 1 integral format.
 Two-electron integral symmetry is turned on.
 One-electron integrals computed using PRISM.
 NBasis=    96 RedAO= T EigKep=  4.73D-04  NBF=    96
 NBsUse=    96 1.00D-06 EigRej= -1.00D+00 NBFU=    96
 Initial guess from the checkpoint file:  "/gscratch/scrubbed/gds001/Gau-7396.chk"
 B after Tr=     0.000000    0.000000   -0.000000
         Rot=    1.000000    0.000002   -0.000000   -0.000286 Ang=   0.03 deg.
 ExpMin= 2.97D-02 ExpMax= 1.17D+04 ExpMxC= 4.01D+02 IAcc=3 IRadAn=         5 AccDes= 0.00D+00
 Harris functional with IExCor=  205 and IRadAn=       5 diagonalized for initial guess.
 HarFok:  IExCor=  205 AccDes= 0.00D+00 IRadAn=         5 IDoV= 1 UseB2=F ITyADJ=14
 ICtDFT=  3500011 ScaDFX=  1.000000  1.000000  1.000000  1.000000
 FoFCou: FMM=F IPFlag=           0 FMFlag=      100000 FMFlg1=           0
         NFxFlg=           0 DoJE=T BraDBF=F KetDBF=T FulRan=T
         wScrn=  0.000000 ICntrl=       500 IOpCl=  0 I1Cent=   200000004 NGrid=           0
         NMat0=    1 NMatS0=      1 NMatT0=    0 NMatD0=    1 NMtDS0=    0 NMtDT0=    0
 Petite list used in FoFCou.
 Keep R1 ints in memory in canonical form, NReq=16745144.
 Requested convergence on RMS density matrix=1.00D-08 within 128 cycles.
 Requested convergence on MAX density matrix=1.00D-06.
 Requested convergence on             energy=1.00D-06.
 No special actions if energy rises.
 SCF Done:  E(RHF) =  -168.927527557     A.U. after   11 cycles
            NFock= 11  Conv=0.10D-07     -V/T= 2.0032
 ExpMin= 2.97D-02 ExpMax= 1.17D+04 ExpMxC= 4.01D+02 IAcc=3 IRadAn=         5 AccDes= 0.00D+00
 HarFok:  IExCor=  205 AccDes= 0.00D+00 IRadAn=         5 IDoV=-2 UseB2=F ITyADJ=14
 ICtDFT= 12500011 ScaDFX=  1.000000  1.000000  1.000000  1.000000
 Range of M.O.s used for correlation:     4    96
 NBasis=    96 NAE=    12 NBE=    12 NFC=     3 NFV=     0
 NROrb=     93 NOA=     9 NOB=     9 NVA=    84 NVB=    84

 **** Warning!!: The largest alpha MO coefficient is  0.13190945D+02

 Fully direct method using O(ONN) memory.
 JobTyp=1 Pass  1:  I=   4 to  12 NPSUse= 28 ParTrn=T ParDer=T DoDerP=T.
 Spin components of T(2) and E(2):
     alpha-alpha T2 =       0.2365819261D-01 E2=     -0.6719178209D-01
     alpha-beta  T2 =       0.1331671382D+00 E2=     -0.3895476538D+00
     beta-beta   T2 =       0.2365819261D-01 E2=     -0.6719178209D-01
 ANorm=    0.1086500586D+01
 E2 =    -0.5239312180D+00 EUMP2 =    -0.16945145877468D+03
          IDoAtm=111111
          Differentiating once with respect to electric field.
                with respect to dipole field.
          Differentiating once with respect to nuclear coordinates.
 Keep R1 ints in memory in canonical form, NReq=16748825.
          There are     1 degrees of freedom in the 1st order CPHF.  IDoFFX=0 NUNeed=     1.
 LinEq1:  Iter=  0 NonCon=     1 RMS=6.01D-03 Max=4.75D-02 NDo=     1
 AX will form     1 AO Fock derivatives at one time.
 LinEq1:  Iter=  1 NonCon=     1 RMS=1.37D-03 Max=1.04D-02 NDo=     1
 LinEq1:  Iter=  2 NonCon=     1 RMS=5.25D-04 Max=3.64D-03 NDo=     1
 LinEq1:  Iter=  3 NonCon=     1 RMS=2.32D-04 Max=2.78D-03 NDo=     1
 LinEq1:  Iter=  4 NonCon=     1 RMS=9.15D-05 Max=7.15D-04 NDo=     1
 LinEq1:  Iter=  5 NonCon=     1 RMS=3.24D-05 Max=3.62D-04 NDo=     1
 LinEq1:  Iter=  6 NonCon=     1 RMS=7.31D-06 Max=7.41D-05 NDo=     1
 LinEq1:  Iter=  7 NonCon=     1 RMS=1.98D-06 Max=1.77D-05 NDo=     1
 LinEq1:  Iter=  8 NonCon=     1 RMS=3.37D-07 Max=2.36D-06 NDo=     1
 LinEq1:  Iter=  9 NonCon=     1 RMS=4.82D-08 Max=4.23D-07 NDo=     1
 LinEq1:  Iter= 10 NonCon=     1 RMS=9.17D-09 Max=8.35D-08 NDo=     1
 LinEq1:  Iter= 11 NonCon=     1 RMS=1.65D-09 Max=9.40D-09 NDo=     1
 LinEq1:  Iter= 12 NonCon=     1 RMS=2.74D-10 Max=2.24D-09 NDo=     1
 LinEq1:  Iter= 13 NonCon=     0 RMS=4.79D-11 Max=3.07D-10 NDo=     1
 Linear equations converged to 1.000D-10 1.000D-09 after    13 iterations.
 End of Minotr F.D. properties file   721 does not exist.
 End of Minotr F.D. properties file   722 does not exist.
 End of Minotr F.D. properties file   788 does not exist.
 Calling FoFJK, ICntrl=  10002127 FMM=F ISym2X=0 I1Cent= 0 IOpClX= 0 NMat=1 NMatS=1 NMatT=0.
 ***** Axes restored to original set *****
 -------------------------------------------------------------------
 Center     Atomic                   Forces (Hartrees/Bohr)
 Number     Number              X              Y              Z
 -------------------------------------------------------------------
      1        6           0.000443948    0.000157395   -0.000089798
      2        7          -0.000384383   -0.000217460    0.000147854
      3        1           0.000109161    0.000012902    0.000000016
      4        8          -0.000287231   -0.000354652    0.000275911
      5        1           0.000049140    0.000161812   -0.000134748
      6        1           0.000069365    0.000240003   -0.000199235
 -------------------------------------------------------------------
 Cartesian Forces:  Max     0.000443948 RMS     0.000222633

 GradGradGradGradGradGradGradGradGradGradGradGradGradGradGradGradGradGrad
 Berny optimization.
 Using GEDIIS/GDIIS optimizer.
 FormGI is forming the generalized inverse of G from B-inverse, IUseBI=4.
 Internal  Forces:  Max     0.000800447 RMS     0.000338522
 Search for a local minimum.
 Step number   6 out of a maximum of   22
 All quantities printed in internal units (Hartrees-Bohrs-Radians)
 Mixed Optimization -- En-DIIS/RFO-DIIS
 Swapping is turned off.
 Update second derivatives using D2CorX and points    1    3    2    4    5
                                                      6
 DE= -6.02D-05 DEPred=-4.56D-05 R= 1.32D+00
 TightC=F SS=  1.41D+00  RLast= 8.80D-02 DXNew= 7.1352D-01 2.6395D-01
 Trust test= 1.32D+00 RLast= 8.80D-02 DXMaxT set to 4.24D-01
[...]
 ,0.00000273,-0.00077208,-0.00002231,-0.00000931,0.00001009,-0.00023599
 ,0.00035274,-0.00005090,0.00001409,-0.00002422,0.00000252,0.00043405,-
 0.00060522,-0.00002189,0.00000783,-0.00000389,-0.00001699,-0.00005330,
 0.00036576,-0.00000657,0.00000141,-0.00002487,-0.00049063,0.00088628,-
 0.00043898,0.00033135,0.00008618,-0.00003979,-0.00128122,-0.00024178,0
 .00009332,-0.00004900,0.00001461,-0.00002292,0.00304137,0.00035223,0.0
 0004632,-0.00238622,-0.00005172,0.00001182,-0.00001848,-0.00016900,-0.
 00017843,-0.00000427,-0.00000942,0.00004832,0.00000238,0.00066591,-0.0
 0037705,0.00007665,-0.00043861,0.00049249,0.00007884,-0.00000435,0.000
 00829,0.00003071,-0.00001172,-0.00015000,-0.00000226,0.00000483,0.0000
 4782,-0.00022335,0.00004440,-0.00042841,0.00008014,-0.00002737,0.00054
 455,-0.00005240,-0.00000076,-0.00000441,-0.00019856,-0.00010231,0.0000
 6078,-0.00000318,0.00000504,-0.00000420,-0.00007987,-0.00054208,0.0004
 8976,0.00034373,0.00000284,0.00003593,-0.00000971,-0.00001362,-0.00000
 210,-0.00000212,-0.00004722,0.00000960,0.00004448,-0.00000419,-0.00000
 154,-0.00000298,-0.00079963,0.00066308,-0.00091888,0.00022737,0.000002
 85,-0.00000579,0.00063728,-0.00067189,0.00000664,-0.00000080,-0.000001
 57,0.00001341,0.00003884,0.00003491,0.00000374,-0.00000203,-0.00000237
 ,0.00071115,-0.00089238,0.00053040,-0.00015707,-0.00002890,-0.00002226
 ,-0.00057787,0.00088528,-0.00053912,-0.00974561,-0.00059036,0.00110368
 ,-0.00049755,-0.00094874,0.00083581,0.01012176,0.00038515,0.00068086,-
 0.01259749,0.00086907,-0.00042154,0.00065604,-0.00008777,-0.00118150,0
 .00026494,0.00060645,-0.00025689,-0.00111990,0.00021146,-0.00122179,0.
 00160912,0.00010013,0.00010446,0.00031725,-0.00007098,0.00008099,-0.00
 182618,0.00023236,-0.00044032,0.00018720,-0.00029919,0.00022014,-0.000
 11521,-0.00001087,0.00038309,-0.00000940,0.00017365,-0.00040045,0.0002
 7739,-0.00009183,0.00022942,-0.00019577,-0.00017938,0.00030963,-0.0012
 7061,-0.00011006,-0.00003377,-0.00167634,0.00004381,-0.00015519,-0.000
 28797,-0.00002869,-0.00001095,-0.49056869,-0.00014574,0.00018509,-0.00
 018870,-0.00012778,-0.00144695,0.00077467,-0.00011451,0.00013111,-0.00
 007307,0.14087166,-0.15624025,-0.00000312,-0.00018505,0.00014186,-0.00
 000739,0.00079232,-0.00121301,0.00006285,-0.00006428,0.00012149,-0.185
 42667,0.26645071,-0.11136476,-0.00064817,0.00019917,-0.00023387,0.0032
 7036,-0.00146562,0.00149759,0.00006279,0.00015878,-0.00011883,0.519873
 49,0.14019627,-0.06152753,-0.54260382,-0.00009232,-0.00052650,0.000411
 28,0.00066819,0.00277375,-0.00149475,0.00004155,-0.00029711,0.00016512
 ,0.15631068,-0.08548947,0.04100993,-0.13713261,0.09222327,0.00001672,0
 .00044117,-0.00041492,-0.00033760,-0.00171348,0.00239495,-0.00001802,0
 .00017714,-0.00026423,-0.07538629,0.03935930,-0.09800143,0.05608852,-0
 .04084728,0.10194215,-0.00006646,0.00001598,-0.00002013,0.00056446,0.0
 0071147,-0.00056844,0.00012500,-0.00005239,0.00005755,-0.02606989,-0.2
 8067990,0.24690187,0.02004536,-0.01979549,0.01963667,0.00540153,-0.000
 27300,0.00009959,-0.00011708,-0.00053859,0.00005610,0.00001738,0.00005
 467,0.00000310,0.00000550,-0.29708741,0.24286050,-0.30800362,-0.001956
 00,-0.00868393,0.00258316,0.29980032,-0.23433536,0.00022841,-0.0000874
 8,0.00009459,0.00050663,0.00014549,0.00006732,-0.00003452,-0.00000547,
 0.00000415,0.26101288,-0.30632292,0.21031588,0.00429413,0.00075571,-0.
 00565653,-0.26600752,0.30551467,-0.20482541,-0.00532104,-0.00054697,-0
 .00116002,0.00000195,0.00029878,-0.00100399,0.01015337,0.00042251,0.00
 059481,-0.01180400,0.00078978,0.00120735,-0.00026981,0.00054167,-0.004
 26799,0.00027913,-0.00030745,0.00109219,-0.00114280,-0.00073805,-0.004
 67288,-0.00056669,0.00022712,-0.00023867,0.00083457,-0.00016787,0.0001
 6036,0.00020383,0.00021453,-0.00002606,-0.00007863,-0.00035088,0.00055
 110,0.00007328,-0.00003731,-0.00023731,-0.00022786,-0.00007734,-0.0000
 9980,0.00031770,0.00009201,0.00063164,0.00006551,0.00009484,-0.0001976
 5,-0.00302636,-0.00009765,-0.00020796,-0.00577462,-0.00047742,-0.00001
 204,-0.00063560,-0.00004252,-0.00004091,-1.29125359,-0.00060407,-0.000
 03727,-0.00018172,-0.00044646,-0.00070733,-0.00086068,-0.00011924,0.00
 001474,0.00007900,-0.35997454,0.19388190,0.00022741,-0.00012984,-0.000
 04169,-0.00003762,-0.00086371,-0.00091575,0.00002507,0.00008686,0.0000
 4865,0.12835375,0.20714278,0.31262371,-0.00101690,0.00001719,-0.000186
 70,0.00696739,-0.00040110,0.00055750,0.00017784,0.00016582,-0.00007673
 ,1.26638731,0.32498966,-0.10337394,-1.28018229,0.00046388,0.00009498,0
 .00053397,-0.00005355,0.00317164,0.00147487,0.00000895,-0.00027404,-0.
 00016315,0.35640427,-0.18611522,-0.19269686,-0.33079653,0.18722423,-0.
 00057079,0.00048821,0.00018241,0.00025760,0.00143916,0.00368147,0.0000
 5814,-0.00014709,-0.00033235,-0.13039063,-0.19591553,-0.29749927,0.107
 23779,0.19198934,0.29573913,-0.00022237,-0.00002221,0.00003657,-0.0003
 7671,-0.00028506,0.00015785,-0.00001394,0.00005035,-0.00003771,0.03430
 284,0.03615465,-0.02519466,0.00766665,-0.02602701,0.02340789,-0.041356
 46,-0.00031716,-0.00007898,-0.00030258,-0.00011329,0.00004522,0.000358
 03,0.00008836,-0.00002842,-0.00002536,0.00418785,-0.00703681,-0.013539
 21,0.00602496,-0.00410160,0.00214591,-0.00987071,0.01120060,0.00029016
 ,-0.00027236,-0.00012912,0.00001032,0.00034041,0.00018333,-0.00007041,
 -0.00002925,-0.00005049,0.00229779,-0.01026384,-0.01421564,-0.00415792
 ,-0.00113817,-0.00177139,0.00163007,0.01136321,0.01598331,-0.86011881,
 -0.01555609,0.13090552,-0.09725442,0.07474387,0.14543555,0.08753093,0.
 00074578,0.00708055,-0.05154209,0.00086049,0.01263966,-0.00032060,-0.0
 0118213,-0.00537088,0.00698130,-0.00033238,0.01316500,-0.00442775,0.00
 587385,-0.00390424,0.77235832,0.01510435,0.09001199,-0.03624502,0.0001
 6996,-0.00249537,-0.73526688,0.01477485,-0.14418887,-0.07482194,0.0002
 8198,-0.00703771,-0.00537006,-0.01516798,0.15161593,0.09029587,-0.0747
 8817,-0.15939103,-0.00259227,-0.00538156,-0.00895344,-0.08759055,0.080
 42661,0.16881056,0.00061324,0.00011043,0.00003261,-0.00071336,-0.00006
 756,-0.00005131,-0.00010074,-0.00005866,0.00000675,-0.00061946,0.00027
 830,-0.00037664,-0.00019109,-0.00026032,0.00021806,0.00009075,-0.00006
 294,0.00018163,0.00011745,-0.00026292,0.00017912,-0.00011176,-0.000208
 28,-0.00046431,0.00011444,0.00011049,0.00027131,0.00001044,0.00011788,
 0.00022538,0.00013147,0.00008102,0.00024846,-0.00039160,-0.00047815,0.
 00019484,0.00096444,0.00025333,-0.00003453,-0.00070955,0.00020430,-0.0
 0014981,0.00079383,0.00024319,-0.00009924,-0.00066881,-0.00027422,0.00
 094154,0.00064074,0.00042105,-0.00043287,-0.00029379,-0.00016808,-0.00
 053267,-0.00038609,0.00021342,-0.00010960,-0.00012373,-0.00015006,0.00
 015902,0.00001955,0.00061985,0.00118824,-0.00017879,-0.00031097,-0.000
 57554,0.00017038,-0.00034794,-0.00064494,-0.00007355,-0.00012080,-0.00
 018272,0.00002970,0.00010612,0.00021206,0.00000792,0.00007367,-0.00006
 557,0.00000510,-0.00003409,0.00002765,-0.00003613,-0.00003448,0.000030
 01,0.00002648,0.00006469,-0.00004535,0.00001169,-0.00004211,0.00003272
 ,-0.00001505,-0.00008334,0.00007879,-0.00005098,-0.00000635,-0.0000162
 7,0.00003162,0.00012469,-0.00003831,0.00001175,0.00006529,-0.00009256,
 0.00002261,-0.00007261,-0.00002542,0.00005373,-0.00002768,0.00009378,0
 .00006946,-0.00003489,0.00006655,0.00000382,0.00002878,-0.00000311,-0.
 00010689,-0.00000456,-0.00004653,-0.00004596,0.00002265,-0.00009811,0.
 00005903,0.00005674,0.00000290,0.00002054,-0.00006873,0.00007830,-0.86
 157254,-0.00118123,0.15448929,-0.09401104,-0.07628615,0.12189073,0.088
 96756,0.00035594,0.00748620,-0.05311719,0.00061046,0.01258539,0.000340
 82,0.00038578,-0.00361640,0.00726717,0.00031475,0.01338243,-0.00472170
 ,-0.00567855,-0.00586602,0.77241965,0.00134999,0.08610505,-0.03618498,
 -0.00116108,-0.00246166,-0.73535783,0.00054659,-0.16774272,0.07609454,
 -0.00077739,-0.00877477,0.00539170,-0.00009126,0.17694454,0.08679608,0
 .07617687,-0.13593614,-0.00279179,0.00535237,-0.00730093,-0.08366003,-
 0.08169758,0.14363676,0.00068457,0.00011582,-0.00000350,-0.00072774,-0
 .00001226,-0.00008282,-0.00015915,-0.00013629,0.00009160,0.00025049,0.
 00011233,-0.00028053,0.00003494,-0.00014630,0.00013093,0.00003016,-0.0
 0004371,0.00019008,-0.00009003,-0.00000273,0.00001186,-0.00000053,0.00
 003519,-0.00028356,0.00003247,0.00004399,0.00014892,0.00001200,-0.0000
 9953,0.00017739,0.00003319,-0.00005395,-0.00000073,-0.00054359,-0.0007
 9734,0.00055004,0.00107203,0.00024207,-0.00005275,-0.00067145,0.000557
 06,-0.00051722,-0.00003494,0.00003772,-0.00004153,0.00014562,-0.000011
 10,0.00085887,-0.00006921,0.00020140,-0.00030034,-0.00010350,-0.000191
 38,-0.00053948,0.00018754,-0.00001464,0.00001782,0.00002959,0.00004122
 ,-0.00007288,-0.00012606,-0.00014973,0.00089552,-0.00001777,-0.0000993
 6,-0.00036103,0.00012638,0.00026423,-0.00051286,0.00000360,0.00003483,
 0.00002422,-0.00000177,-0.00009118,-0.00010560,0.00004436,0.00015683,-
 0.00012677,-0.00000968,-0.00006496,0.00005177,-0.00004623,-0.00009871,
 0.00008135,-0.00001323,0.00004268,-0.00003561,0.00003234,-0.00002549,0
 .00001562,-0.00000756,-0.00007704,0.00008970,-0.00011494,-0.00001942,-
 0.00002481,0.00004544,0.00013745,-0.00007765,0.00007083,0.00005009,-0.
 00007015,0.00004471,-0.00008072,0.00003601,0.00004122,-0.00001035,0.00
 004690,0.00007437,-0.00009092,0.00005101,0.00001260,0.00004072,-0.0000
 0338,-0.00012175,0.00004665,-0.00006422,-0.00004207,0.00004405,-0.0000
 6623,0.00006322,0.00004675,0.00005975,0.00001364,-0.00008725,0.0000230
 7,-0.00022859,-0.00001040,-0.00081377,0.00006219,0.00005901,-0.0007879
 5,0.00189809,-0.00008961,0.00016961,-0.00355993,0.00015199,0.00112517,
 -0.00010107,-0.00011688,-0.00323934,-0.00003795,-0.00012583,0.00109341
 ,-0.00007211,0.00116553,-0.00287976,-0.00011693,-0.00000248,0.00000526
 ,0.00038915,-0.00001007,0.00002237,-0.00003352,-0.00000839,-0.00014994
 ,0.00000187,-0.00002200,0.00038112,-0.00011097,0.00003078,-0.00003433,
 0.00001020,0.00000247,-0.00014775,0.00003276,-0.00010975,0.00035266,-0
 .00002622,0.00000172,-0.00004048,-0.00278304,-0.00001703,-0.00026652,-
 0.00384579,-0.00122301,0.00068494,-0.00012529,0.00010437,-0.00010518,-
 0.58256234,0.00012343,-0.00001836,-0.00000469,0.00100173,0.00054531,-0
 .00059611,-0.00009092,-0.00006022,0.00006428,-0.12000207,-0.37306272,-
 0.00038737,-0.00001908,-0.00006178,-0.00122810,-0.00082412,0.00031557,
 0.00006276,0.00008429,-0.00004071,0.04135251,0.32672636,-0.25562553,0.
 00038915,0.00007771,-0.00001220,0.00534341,0.00123398,-0.00059685,-0.0
 0002500,-0.00008604,0.00008052,0.60885756,0.19772381,-0.10609868,-0.57
 795874,-0.00000411,-0.00019435,0.00004283,0.00028608,0.00167773,-0.000
 71526,0.00007823,-0.00017369,0.00008114,0.31074200,0.04447388,-0.01957
 698,-0.24687616,-0.01990015,0.00005811,0.00005121,-0.00018216,0.000218
 20,-0.00061812,0.00136603,-0.00006076,0.00006431,-0.00015019,-0.203297
 71,-0.03115669,-0.00934178,0.15184743,0.00238014,0.02578871,0.00084132
 ,0.00004181,0.00004165,-0.00022493,-0.00003601,-0.00000040,-0.00008841
 ,-0.00001872,0.00000792,-0.01954111,-0.07875598,0.06629888,-0.03660637
 ,-0.06422604,0.05123473,0.05561950,-0.00025251,0.00005125,0.00000206,-
 0.00105931,-0.00048999,0.00038264,-0.00000555,0.00003707,-0.00003986,-
 0.18960425,0.32812212,-0.30639047,0.04792669,-0.02588343,0.02927915,0.
 14299494,-0.30183702,0.00029481,0.00003221,0.00008622,0.00087964,0.000
 48753,-0.00024792,-0.00000341,-0.00004121,0.00002647,0.16163196,-0.295
 03314,0.26475425,-0.04522022,0.01778812,-0.01748061,-0.11758279,0.2767
 6649,-0.24713841,1.61498094,0.01564939,-0.29218132,0.18192560,0.001686
 13,-0.27489598,-1.55143865,-0.01488918,-0.17575829,1.54519985,-0.01495
 651,0.28902259,-0.00150817,0.01523857,-0.29551016,-0.17570030,-0.00150
 127,0.27234041,0.17549647,0.00142718,-0.27891319,-0.06337070,-0.000674
 98,-0.00620819,0.00671984,-0.00007997,0.00009487,0.05664287,-0.0005376
 1,0.00299598,-0.00014648,-0.00019815,0.00642048,0.00001719,0.00069760,
 -0.00940288,-0.00632643,-0.00016055,0.00237967,0.00019662,0.00002929,0
 .00645923,0.00616135,0.00011752,-0.00881942,-0.00053042,0.00001969,-0.
 00006183,0.00044324,-0.00004058,0.00008473,-0.00012204,-0.00000305,-0.
 00001206,0.00008965,-0.00002808,-0.00007575,-0.00001698,-0.00005512,-0
 .00004911,-0.00000045,0.00000367,0.00000783,0.00001192,-0.00006397,-0.
 00002855,-0.00002079,-0.00001208,-0.00008387,0.00009727,0.00000103,-0.
 00003399,-0.00001785,0.00001123,0.00000976,0.00008063,-0.00011962,-0.0
 0004886,0.00028876,-0.00010864,0.00010313,-0.00081732,-0.00017009,0.00
 003858,0.00011550,0.00002890,-0.00001079,0.00004484,0.00009065,-0.0001
 0027,0.00041779,-0.00008095,0.00023016,-0.00003952,-0.00020869,0.00010
 181,0.00009175,0.00006426,-0.00002176,0.00000673,0.00003913,0.00024355
 ,0.00002021,0.00025919,-0.00055794,0.00007937,-0.00004236,0.00023839,0
 .00007170,0.00009570,0.00015845,-0.00004119,0.00000311,-0.00002848,-0.
 00005585,0.00002539,0.00023468,-0.00011050,-0.00007776,-0.00062375,0.0
 0007007,0.00000372,-0.00000042,-0.00010697,0.00000857,-0.00001434,0.00
 001452,0.00001232,-0.00000869,0.00007472,0.00005284,-0.00003899,-0.000
 04957,-0.00007294,0.00005646,-0.00000277,-0.00004625,0.00000833,0.0000
 2502,0.00011257,0.00001437,-0.00003439,-0.00001059,0.00000035,-0.00000
 491,0.00004878,-0.00009796,0.00009923,-0.00010002,0.00000418,-0.000004
 08,-0.00000450,0.00007074,0.00004256,0.00003014,0.00002138,-0.00010377
 ,-0.00004504,-0.00001094,0.00001101,-0.00000257,-0.00000076,-0.0000356
 2,0.00009975,-0.00007771,0.00007986,-0.00000142,0.00002070,0.00000596,
 -0.00008086,0.00004733,3.56168057,0.03611857,-0.83583180,0.41953214,0.
 00336287,-0.79613246,-0.19066241,-0.00169076,-0.02112289,0.18190466,-0
 .00232991,0.02957147,-0.00012989,0.00173780,-0.03669859,-0.02057311,-0
 .00006441,0.02764521,0.02092498,-0.00001272,-0.03476552,-3.37087293,-0
 .03472124,-0.39818021,0.00874791,0.00047621,-0.00023415,3.36112311,-0.
 03397753,0.80648821,-0.00312811,-0.00001703,0.00704827,-0.00001180,0.0
 3419026,-0.81368992,-0.39881995,-0.00320431,0.76879287,0.00019018,0.00
 003873,0.00702298,0.39837713,0.00313845,-0.77599686,-0.00027751,0.0000
 0203,-0.00006359,0.00010498,-0.00003508,0.00005712,0.00037253,0.000064
 80,0.00000100,0.00049555,-0.00006767,0.00023105,0.00007484,0.00002503,
 -0.00006166,-0.00008031,0.00001969,-0.00018531,0.00000565,0.00010952,0
 .00005396,-0.00000372,0.00008197,0.00025526,0.00000545,-0.00008647,-0.
 00008310,0.00003980,0.00001028,-0.00018585,-0.00004393,-0.00003055,0.0
 0002719,0.00006425,0.00029616,-0.00016648,-0.00005287,0.00015541,-0.00
 017383,0.00068028,-0.00028941,0.00027893,-0.00073259,-0.00014343,0.000
 05323,0.00016084,0.00021527,-0.00042598,-0.00029652,-0.00011707,0.0001
 2506,0.00017215,0.00017401,0.00031069,0.00008335,-0.00019379,0.0000087
 8,-0.00006888,0.00000230,-0.00001407,-0.00009680,-0.00028822,-0.000558
 50,0.00006043,0.00020005,0.00017337,-0.00011962,0.00003587,0.00034378,
 0.00009662,-0.00006383,0.00001642,-0.00002131,0.00031230,0.00007799,0.
 00006804,-0.00000475,0.00000102,-0.00004227,-0.00000442,-0.00000102,-0
 .00005089,0.00002892,-0.00002729,0.00003704,0.00005686,-0.00005084,-0.
 00011991,-0.00008073,0.00008069,0.00010799,0.00004127,-0.00003295,0.00
 011681,0.00006204,0.00001543,-0.00000290,-0.00013893,0.00002806,-0.000
 06188,0.00005252,-0.00004680,0.00009366,-0.00002102,-0.00000449,-0.000
 19617,0.00000412,0.00004075,-0.00003857,0.00011209,-0.00000238,-0.0000
 5815,-0.00000970,0.00000705,0.00011706,-0.00004468,0.00002308,-0.00004
 722,0.00009420,-0.00002990,0.00002946,-0.00020240,-0.00005306,-0.00000
 257,0.00005048,0.00005522,-0.00234907,0.00087526,0.00122253,-0.0011174
 4,0.00008716,0.00103056,-0.00446106,-0.00151507,0.00094119,-0.00177417
 ,-0.00227019,-0.00108530,-0.00010796,0.00079549,0.00528786,0.00159042,
 -0.00003060,-0.00075157,-0.00141899,0.00018324,0.00510354,0.00025241,-
 0.00012256,0.00011473,0.00030270,-0.00007429,0.00017110,0.00005184,-0.
 00019389,0.00017180,-0.00002872,0.00010789,-0.00071574,-0.00001358,0.0
 0019577,0.00006387,0.00017590,-0.00002141,0.00019803,0.00001467,-0.000
 03225,-0.00071497,-0.00017055,0.00002843,0.00003138,-0.00165070,-0.000
 23716,0.00003299,-0.00866817,-0.00177703,0.00041552,0.00039537,0.00003
 048,0.00003322,5.05401772,-0.00000080,-0.00005792,0.00006470,-0.000060
 82,0.00210746,0.00006717,0.00008655,-0.00016134,-0.00001144,0.94986366
 ,-0.35719355,-0.00017035,0.00004050,-0.00003483,-0.00106070,-0.0001088
 3,0.00217750,-0.00001500,-0.00001717,-0.00017172,-0.16185790,-0.747429
 65,-0.71319395,0.00803673,0.00099007,0.00001950,0.01534636,0.00324107,
 -0.00060090,-0.00104646,-0.00012026,-0.00007429,-4.93998251,-1.3676200
 5,0.55789192,4.94591148,0.00182039,-0.00028083,0.00003045,0.00169531,-
 0.00532275,-0.00039967,-0.00012645,0.00064210,0.00002640,-1.42420175,0
 .74160908,0.15781626,1.35999877,-0.75335624,-0.00069416,-0.00005462,-0
 .00048649,0.00072831,-0.00024121,-0.00570736,-0.00006891,0.00002702,0.
 00065758,0.60655389,0.16361336,1.01621053,-0.54805544,-0.17674723,-1.0
 2503186,0.00017169,0.00000945,0.00000903,-0.00074566,0.00008495,-0.000
 15714,0.00004414,-0.00001999,0.00002105,-0.10411171,0.41773147,-0.3947
 8797,-0.02826559,0.06081373,-0.05846368,0.13290714,-0.00023076,0.00002
 971,-0.00004564,-0.00102280,-0.00027154,0.00019345,0.00004098,-0.00000
 069,0.00001027,0.47632180,-0.38630372,0.58969887,0.00351040,0.01670863
 ,0.01340269,-0.47861962,0.36983760,0.00021563,-0.00002104,0.00004430,0
 .00079552,0.00030701,-0.00010716,-0.00003138,0.00000402,-0.00000031,-0
 .44517771,0.58369585,-0.30498752,-0.00918079,0.01927378,0.01435761,0.4
 5337872,-0.60325962,0.29069308,-0.00041876,0.00016482,0.00071587,-0.00
 026662,0.00009488,0.00069801,-0.00168820,-0.00027720,0.00012850,-0.000
 52492,-0.00043593,-0.00056762,-0.00009217,-0.00038153,0.00223628,0.000
 26507,-0.00007591,-0.00053087,-0.00000418,0.00038003,0.00239665,0.0002
 2471,-0.00006173,0.00008277,-0.00010635,-0.00008287,0.00009142,-0.0000
 7145,-0.00006660,-0.00004759,-0.00002143,0.00005496,-0.00026220,-0.000
 03004,0.00008970,0.00014218,0.00008679,-0.00002093,-0.00003758,-0.0000
 2692,-0.00004416,-0.00026827,-0.00010033,0.00002026,0.00012704,-0.0002
 2014,-0.00003606,0.00000579,-0.00223964,0.00029807,-0.00056808,0.00016
 649,-0.00004781,0.00006669,1.33853046,0.00046164,-0.00001916,0.0000860
 3,0.00058572,0.00137409,-0.00043051,0.00001563,-0.00011216,0.00002654,
 -1.56640566,1.59109538,-0.00042230,0.00003504,-0.00004749,-0.00081559,
 -0.00046007,0.00111568,0.00001212,0.00002004,-0.00009916,1.63776923,-2
 .81709404,1.09273094,0.00283673,0.00010647,0.00021877,0.00500076,0.001
 36589,-0.00038509,-0.00021309,-0.00006260,0.00000287,-1.21069320,-0.38
 013062,0.17324491,1.21404681,0.00052706,-0.00014509,0.00001370,0.00119
 320,-0.00184891,-0.00061267,0.00002546,0.00017280,0.00009842,-0.383690
 26,0.17844803,0.05597580,0.38740532,-0.18958981,-0.00014277,-0.0000293
 8,-0.00018134,-0.00023666,-0.00059497,-0.00221606,-0.00007282,0.000089
 39,0.00019988,0.17630623,0.05634039,0.25885278,-0.17937106,-0.04422592
 ,-0.26750789,-0.00073434,0.00010369,-0.00016921,-0.00044165,-0.0007636
 2,0.00060088,-0.00000030,0.00003235,-0.00002909,-0.12554399,1.94547328
 ,-1.80978837,-0.01097800,-0.00546078,0.00351707,0.13769827,-0.00065099
 ,0.00006358,-0.00008101,-0.00117515,-0.00093164,0.00076910,0.00001381,
 0.00010698,-0.00008013,1.94988172,-1.77078618,2.76152323,-0.00868446,0
 .01296297,-0.01157952,-1.93938493,1.75858428,0.00047983,-0.00000371,0.
 00009927,0.00095486,0.00081133,-0.00049713,-0.00001316,-0.00007823,0.0
 0007808,-1.81357986,2.76107160,-1.35255273,0.00628960,-0.01124932,0.01
 085263,1.80586872,-2.75055167,1.34201988\\@


 BULLDOZER: SOMEONE WHO SLEEPS THROUGH SPEECHES.
 Job cpu time:       0 days  4 hours 57 minutes 27.7 seconds.
 Elapsed time:       0 days  0 hours 11 minutes  1.9 seconds.
 File lengths (MBytes):  RWF=    584 Int=      0 D2E=      0 Chk=     44 Scr=      8
 Normal termination of Gaussian 16 at Fri Dec 17 11:06:20 2021.
