 Entering Gaussian System, Link 0=g16
 Input=h2o_nch_mp2_avtz_opt_anharm.gjf
 Output=h2o_nch_mp2_avtz_opt_anharm.log
 Initial command:
 /sw/contrib/gaussian/g16/A03/g16/l1.exe "/gscratch/scrubbed/gds001/Gau-28470.inp" -scrdir="/gscratch/scrubbed/gds001/"
 Entering Link 1 = /sw/contrib/gaussian/g16/A03/g16/l1.exe PID=     28471.
  
 Copyright (c) 1988,1990,1992,1993,1995,1998,2003,2009,2016,
            Gaussian, Inc.  All Rights Reserved.
  
 This is part of the Gaussian(R) 16 program.  It is based on
 the Gaussian(R) 09 system (copyright 2009, Gaussian, Inc.),
 the Gaussian(R) 03 system (copyright 2003, Gaussian, Inc.),
 the Gaussian(R) 98 system (copyright 1998, Gaussian, Inc.),
 the Gaussian(R) 94 system (copyright 1995, Gaussian, Inc.),
 the Gaussian 92(TM) system (copyright 1992, Gaussian, Inc.),
 the Gaussian 90(TM) system (copyright 1990, Gaussian, Inc.),
 the Gaussian 88(TM) system (copyright 1988, Gaussian, Inc.),
 the Gaussian 86(TM) system (copyright 1986, Carnegie Mellon
 University), and the Gaussian 82(TM) system (copyright 1983,
 Carnegie Mellon University). Gaussian is a federally registered
 trademark of Gaussian, Inc.
  
 This software contains proprietary and confidential information,
 including trade secrets, belonging to Gaussian, Inc.
  
 This software is provided under written license and may be
 used, copied, transmitted, or stored only in accord with that
 written license.
  
 The following legend is applicable only to US Government
 contracts under FAR:
  
                    RESTRICTED RIGHTS LEGEND
  
 Use, reproduction and disclosure by the US Government is
 subject to restrictions as set forth in subparagraphs (a)
 and (c) of the Commercial Computer Software - Restricted
 Rights clause in FAR 52.227-19.
  
 Gaussian, Inc.
 340 Quinnipiac St., Bldg. 40, Wallingford CT 06492
  
  
 ---------------------------------------------------------------
 Warning -- This program may not be used in any manner that
 competes with the business of Gaussian, Inc. or will provide
 assistance to any competitor of Gaussian, Inc.  The licensee
 of this program is prohibited from giving any competitor of
 Gaussian, Inc. access to this program.  By using this program,
 the user acknowledges that Gaussian, Inc. is engaged in the
 business of creating and licensing software in the field of
 computational chemistry and represents and warrants to the
 licensee that it is not a competitor of Gaussian, Inc. and that
 it will not use this program in any manner prohibited above.
 ---------------------------------------------------------------
  

 Cite this work as:
 Gaussian 16, Revision A.03,
 M. J. Frisch, G. W. Trucks, H. B. Schlegel, G. E. Scuseria, 
 M. A. Robb, J. R. Cheeseman, G. Scalmani, V. Barone, 
 G. A. Petersson, H. Nakatsuji, X. Li, M. Caricato, A. V. Marenich, 
 J. Bloino, B. G. Janesko, R. Gomperts, B. Mennucci, H. P. Hratchian, 
 J. V. Ortiz, A. F. Izmaylov, J. L. Sonnenberg, D. Williams-Young, 
 F. Ding, F. Lipparini, F. Egidi, J. Goings, B. Peng, A. Petrone, 
 T. Henderson, D. Ranasinghe, V. G. Zakrzewski, J. Gao, N. Rega, 
 G. Zheng, W. Liang, M. Hada, M. Ehara, K. Toyota, R. Fukuda, 
 J. Hasegawa, M. Ishida, T. Nakajima, Y. Honda, O. Kitao, H. Nakai, 
 T. Vreven, K. Throssell, J. A. Montgomery, Jr., J. E. Peralta, 
 F. Ogliaro, M. J. Bearpark, J. J. Heyd, E. N. Brothers, K. N. Kudin, 
 V. N. Staroverov, T. A. Keith, R. Kobayashi, J. Normand, 
 K. Raghavachari, A. P. Rendell, J. C. Burant, S. S. Iyengar, 
 J. Tomasi, M. Cossi, J. M. Millam, M. Klene, C. Adamo, R. Cammi, 
 J. W. Ochterski, R. L. Martin, K. Morokuma, O. Farkas, 
 J. B. Foresman, and D. J. Fox, Gaussian, Inc., Wallingford CT, 2016.
 
 ******************************************
 Gaussian 16:  ES64L-G16RevA.03 25-Dec-2016
                20-Dec-2021 
 ******************************************
 %nprocshared=28
 Will use up to   28 processors via shared memory.
 %mem=41GB
 ----------------------------------------------
 # MP2/aug-cc-pVTZ opt freq=(vibrot,anharmonic)
 ----------------------------------------------
 1/18=20,19=15,38=1,80=1/1,3;
 2/9=110,12=2,17=6,18=5,40=1/2;
 3/5=16,6=1,7=10,11=9,25=1,30=1,71=1/1,2,3;
 4//1;
 5/5=2,38=5/2;
 8/6=4,10=1/1;
 9/15=2,16=-3/6;
 10/5=1/2;
 6/7=2,8=2,9=2,10=2/1;
 7/12=2/1,2,3,16;
 1/18=20,19=15,80=1/3(2);
 2/9=110/2;
 99//99;
 2/9=110/2;
 3/5=16,6=1,7=10,11=9,25=1,30=1,71=1/1,2,3;
 4/5=5,16=3,69=1/1;
 5/5=2,38=5/2;
 8/6=4,10=1/1;
 9/15=2,16=-3/6;
 10/5=1/2;
 7/12=2/1,2,3,16;
 1/18=20,19=15,80=1/3(-8);
 2/9=110/2;
 6/7=2,8=2,9=2,10=2/1;
 99//99;
 ----
 bleh
 ----
 Symbolic Z-matrix:
 Charge =  0 Multiplicity = 1
 C                    -2.03544  -0.0463    0. 
 N                    -0.86601   0.11567  -0.00001 
 H                    -3.10302  -0.19471   0.00001 
 O                     2.19716  -0.13717   0. 
 H                     1.23727   0.00446   0.00001 
 H                     2.56315   0.75572   0.00001 
 
 Add virtual bond connecting atoms H5         and N2         Dist= 3.98D+00.

 GradGradGradGradGradGradGradGradGradGradGradGradGradGradGradGradGradGrad
 Berny optimization.
 Initialization pass.
                           ----------------------------
                           !    Initial Parameters    !
                           ! (Angstroms and Degrees)  !
 --------------------------                            --------------------------
 ! Name  Definition              Value          Derivative Info.                !
 --------------------------------------------------------------------------------
 ! R1    R(1,2)                  1.1806         estimate D2E/DX2                !
 ! R2    R(1,3)                  1.0778         estimate D2E/DX2                !
 ! R3    R(2,5)                  2.1062         estimate D2E/DX2                !
 ! R4    R(4,5)                  0.9703         estimate D2E/DX2                !
 ! R5    R(4,6)                  0.965          estimate D2E/DX2                !
 ! A1    A(5,4,6)              103.8952         estimate D2E/DX2                !
 ! A2    L(1,2,5,-3,-1)        190.9123         estimate D2E/DX2                !
 ! A3    L(1,2,5,-2,-2)        180.0011         estimate D2E/DX2                !
 ! A4    L(2,1,3,4,-1)         179.9718         estimate D2E/DX2                !
 ! A5    L(2,5,4,6,-1)         185.3664         estimate D2E/DX2                !
 ! A6    L(2,1,3,4,-2)         180.001          estimate D2E/DX2                !
 ! A7    L(2,5,4,6,-2)         180.0022         estimate D2E/DX2                !
 --------------------------------------------------------------------------------
 Trust Radius=3.00D-01 FncErr=1.00D-07 GrdErr=1.00D-07 EigMax=2.50D+02 EigMin=1.00D-04
 Number of steps in this run=     22 maximum allowed number of steps=    100.
 GradGradGradGradGradGradGradGradGradGradGradGradGradGradGradGradGradGrad

                          Input orientation:                          
 ---------------------------------------------------------------------
 Center     Atomic      Atomic             Coordinates (Angstroms)
 Number     Number       Type             X           Y           Z
 ---------------------------------------------------------------------
      1          6           0       -2.035442   -0.046304    0.000004
      2          7           0       -0.866005    0.115669   -0.000008
      3          1           0       -3.103024   -0.194706    0.000012
      4          8           0        2.197161   -0.137167    0.000000
      5          1           0        1.237274    0.004458    0.000012
      6          1           0        2.563148    0.755721    0.000013
 ---------------------------------------------------------------------
                    Distance matrix (angstroms):
                    1          2          3          4          5
     1  C    0.000000
     2  N    1.180601   0.000000
     3  H    1.077847   2.258448   0.000000
     4  O    4.233578   3.073583   5.300497   0.000000
     5  H    3.273110   2.106217   4.344865   0.970279   0.000000
     6  H    4.668005   3.488375   5.745330   0.964985   1.523922
                    6
     6  H    0.000000
 Stoichiometry    CH3NO
 Framework group  C1[X(CH3NO)]
 Deg. of freedom    12
 Full point group                 C1      NOp   1
 Largest Abelian subgroup         C1      NOp   1
 Largest concise Abelian subgroup C1      NOp   1
                         Standard orientation:                         
 ---------------------------------------------------------------------
 Center     Atomic      Atomic             Coordinates (Angstroms)
 Number     Number       Type             X           Y           Z
 ---------------------------------------------------------------------
      1          6           0       -2.035442   -0.046304    0.000004
      2          7           0       -0.866005    0.115669   -0.000008
      3          1           0       -3.103024   -0.194706    0.000012
      4          8           0        2.197161   -0.137167   -0.000000
      5          1           0        1.237274    0.004458    0.000012
      6          1           0        2.563148    0.755721    0.000013
 ---------------------------------------------------------------------
 Rotational constants (GHZ):         468.2835034           3.2535311           3.2310823
 Standard basis: Aug-CC-pVTZ (5D, 7F)
 There are   240 symmetry adapted cartesian basis functions of A   symmetry.
 There are   207 symmetry adapted basis functions of A   symmetry.
   207 basis functions,   297 primitive gaussians,   240 cartesian basis functions
    12 alpha electrons       12 beta electrons
       nuclear repulsion energy        53.6334913295 Hartrees.
 NAtoms=    6 NActive=    6 NUniq=    6 SFac= 1.00D+00 NAtFMM=   60 NAOKFM=F Big=F
 Integral buffers will be    131072 words long.
 Raffenetti 1 integral format.
 Two-electron integral symmetry is turned on.
 One-electron integrals computed using PRISM.
 NBasis=   207 RedAO= T EigKep=  6.51D-05  NBF=   207
 NBsUse=   207 1.00D-06 EigRej= -1.00D+00 NBFU=   207
 ExpMin= 2.53D-02 ExpMax= 1.53D+04 ExpMxC= 5.22D+02 IAcc=3 IRadAn=         5 AccDes= 0.00D+00
 Harris functional with IExCor=  205 and IRadAn=       5 diagonalized for initial guess.
 HarFok:  IExCor=  205 AccDes= 0.00D+00 IRadAn=         5 IDoV= 1 UseB2=F ITyADJ=14
 ICtDFT=  3500011 ScaDFX=  1.000000  1.000000  1.000000  1.000000
 FoFCou: FMM=F IPFlag=           0 FMFlag=      100000 FMFlg1=           0
         NFxFlg=           0 DoJE=T BraDBF=F KetDBF=T FulRan=T
         wScrn=  0.000000 ICntrl=       500 IOpCl=  0 I1Cent=   200000004 NGrid=           0
         NMat0=    1 NMatS0=      1 NMatT0=    0 NMatD0=    1 NMtDS0=    0 NMtDT0=    0
 Petite list used in FoFCou.
 Keep R1 ints in memory in canonical form, NReq=245599479.
 Requested convergence on RMS density matrix=1.00D-08 within 128 cycles.
 Requested convergence on MAX density matrix=1.00D-06.
 Requested convergence on             energy=1.00D-06.
 No special actions if energy rises.
 SCF Done:  E(RHF) =  -168.967042144     A.U. after   11 cycles
            NFock= 11  Conv=0.95D-08     -V/T= 2.0030
 ExpMin= 2.53D-02 ExpMax= 1.53D+04 ExpMxC= 5.22D+02 IAcc=3 IRadAn=         5 AccDes= 0.00D+00
 HarFok:  IExCor=  205 AccDes= 0.00D+00 IRadAn=         5 IDoV=-2 UseB2=F ITyADJ=14
 ICtDFT= 12500011 ScaDFX=  1.000000  1.000000  1.000000  1.000000
 Range of M.O.s used for correlation:     4   207
 NBasis=   207 NAE=    12 NBE=    12 NFC=     3 NFV=     0
 NROrb=    204 NOA=     9 NOB=     9 NVA=   195 NVB=   195

 **** Warning!!: The largest alpha MO coefficient is  0.40525381D+02

 Fully direct method using O(ONN) memory.
 JobTyp=1 Pass  1:  I=   4 to  12 NPSUse= 28 ParTrn=T ParDer=T DoDerP=T.
 Spin components of T(2) and E(2):
     alpha-alpha T2 =       0.2478492345D-01 E2=     -0.7696656794D-01
     alpha-beta  T2 =       0.1426160738D+00 E2=     -0.4741921606D+00
     beta-beta   T2 =       0.2478492345D-01 E2=     -0.7696656794D-01
 ANorm=    0.1091872667D+01
 E2 =    -0.6281252965D+00 EUMP2 =    -0.16959516744059D+03
          IDoAtm=111111
          Differentiating once with respect to electric field.
                with respect to dipole field.
          Differentiating once with respect to nuclear coordinates.
 Keep R1 ints in memory in canonical form, NReq=245604770.
          There are     1 degrees of freedom in the 1st order CPHF.  IDoFFX=0 NUNeed=     1.
 LinEq1:  Iter=  0 NonCon=     1 RMS=3.92D-03 Max=4.84D-02 NDo=     1
 AX will form     1 AO Fock derivatives at one time.
 LinEq1:  Iter=  1 NonCon=     1 RMS=8.75D-04 Max=1.19D-02 NDo=     1
 LinEq1:  Iter=  2 NonCon=     1 RMS=2.23D-04 Max=2.92D-03 NDo=     1
 LinEq1:  Iter=  3 NonCon=     1 RMS=1.06D-04 Max=1.84D-03 NDo=     1
 LinEq1:  Iter=  4 NonCon=     1 RMS=3.87D-05 Max=3.72D-04 NDo=     1
 LinEq1:  Iter=  5 NonCon=     1 RMS=7.85D-06 Max=7.34D-05 NDo=     1
 LinEq1:  Iter=  6 NonCon=     1 RMS=3.66D-06 Max=4.69D-05 NDo=     1
 LinEq1:  Iter=  7 NonCon=     1 RMS=8.30D-07 Max=1.15D-05 NDo=     1
 LinEq1:  Iter=  8 NonCon=     1 RMS=2.15D-07 Max=3.46D-06 NDo=     1
 LinEq1:  Iter=  9 NonCon=     1 RMS=4.46D-08 Max=4.94D-07 NDo=     1
 LinEq1:  Iter= 10 NonCon=     1 RMS=9.62D-09 Max=1.09D-07 NDo=     1
 LinEq1:  Iter= 11 NonCon=     1 RMS=1.64D-09 Max=1.85D-08 NDo=     1
 LinEq1:  Iter= 12 NonCon=     1 RMS=2.56D-10 Max=2.24D-09 NDo=     1
 LinEq1:  Iter= 13 NonCon=     0 RMS=4.78D-11 Max=6.79D-10 NDo=     1
 Linear equations converged to 1.000D-10 1.000D-09 after    13 iterations.
 End of Minotr F.D. properties file   721 does not exist.
 End of Minotr F.D. properties file   722 does not exist.
 End of Minotr F.D. properties file   788 does not exist.

 **********************************************************************

            Population analysis using the SCF density.

 **********************************************************************

 Orbital symmetries:
       Occupied  (A) (A) (A) (A) (A) (A) (A) (A) (A) (A) (A) (A)
       Virtual   (A) (A) (A) (A) (A) (A) (A) (A) (A) (A) (A) (A)
                 (A) (A) (A) (A) (A) (A) (A) (A) (A) (A) (A) (A)
                 (A) (A) (A) (A) (A) (A) (A) (A) (A) (A) (A) (A)
                 (A) (A) (A) (A) (A) (A) (A) (A) (A) (A) (A) (A)
                 (A) (A) (A) (A) (A) (A) (A) (A) (A) (A) (A) (A)
                 (A) (A) (A) (A) (A) (A) (A) (A) (A) (A) (A) (A)
                 (A) (A) (A) (A) (A) (A) (A) (A) (A) (A) (A) (A)
                 (A) (A) (A) (A) (A) (A) (A) (A) (A) (A) (A) (A)
                 (A) (A) (A) (A) (A) (A) (A) (A) (A) (A) (A) (A)
                 (A) (A) (A) (A) (A) (A) (A) (A) (A) (A) (A) (A)
                 (A) (A) (A) (A) (A) (A) (A) (A) (A) (A) (A) (A)
                 (A) (A) (A) (A) (A) (A) (A) (A) (A) (A) (A) (A)
                 (A) (A) (A) (A) (A) (A) (A) (A) (A) (A) (A) (A)
                 (A) (A) (A) (A) (A) (A) (A) (A) (A) (A) (A) (A)
                 (A) (A) (A) (A) (A) (A) (A) (A) (A) (A) (A) (A)
                 (A) (A) (A) (A) (A) (A) (A) (A) (A) (A) (A) (A)
                 (A) (A) (A)
 The electronic state is 1-A.
 Alpha  occ. eigenvalues --  -20.53477 -15.62622 -11.32355  -1.31679  -1.24229
 Alpha  occ. eigenvalues --   -0.82921  -0.68640  -0.60751  -0.54890  -0.50714
 Alpha  occ. eigenvalues --   -0.50698  -0.47743
 Alpha virt. eigenvalues --    0.01830   0.04526   0.06142   0.06438   0.07035
 Alpha virt. eigenvalues --    0.09771   0.12001   0.12381   0.13253   0.16094
 Alpha virt. eigenvalues --    0.16987   0.17681   0.19793   0.20833   0.21477
 Alpha virt. eigenvalues --    0.22375   0.25329   0.27903   0.28211   0.28443
 Alpha virt. eigenvalues --    0.28802   0.29525   0.30483   0.32840   0.34688
 Alpha virt. eigenvalues --    0.37803   0.39039   0.40161   0.42601   0.45053
 Alpha virt. eigenvalues --    0.45513   0.48029   0.49417   0.54243   0.54274
 Alpha virt. eigenvalues --    0.55721   0.56264   0.58870   0.61167   0.68581
 Alpha virt. eigenvalues --    0.71736   0.73575   0.74042   0.75741   0.75775
 Alpha virt. eigenvalues --    0.78275   0.82211   0.85553   0.86755   0.86854
 Alpha virt. eigenvalues --    0.87876   0.88511   0.91007   0.91237   0.94600
 Alpha virt. eigenvalues --    0.95881   0.97641   0.97746   0.99549   1.01354
 Alpha virt. eigenvalues --    1.03105   1.05699   1.06550   1.06550   1.09933
 Alpha virt. eigenvalues --    1.10611   1.11385   1.11656   1.13345   1.21455
 Alpha virt. eigenvalues --    1.22413   1.23644   1.26307   1.27946   1.29655
 Alpha virt. eigenvalues --    1.33213   1.34364   1.37237   1.39308   1.41846
 Alpha virt. eigenvalues --    1.44106   1.50144   1.54335   1.58523   1.62730
 Alpha virt. eigenvalues --    1.63961   1.64216   1.66760   1.71327   1.75691
 Alpha virt. eigenvalues --    1.76737   1.80636   1.81645   1.85268   1.91895
 Alpha virt. eigenvalues --    1.96416   2.00886   2.07496   2.15489   2.18737
 Alpha virt. eigenvalues --    2.25565   2.29735   2.32426   2.35281   2.36987
 Alpha virt. eigenvalues --    2.40643   2.45687   2.49265   2.49721   2.50147
 Alpha virt. eigenvalues --    2.56877   2.58623   2.69319   2.76705   2.77168
 Alpha virt. eigenvalues --    2.79543   2.88860   2.93192   2.94294   2.97956
 Alpha virt. eigenvalues --    3.00836   3.04819   3.13625   3.37493   3.37665
 Alpha virt. eigenvalues --    3.39042   3.40322   3.42225   3.42227   3.49226
 Alpha virt. eigenvalues --    3.50557   3.73518   3.77616   3.78348   3.81737
 Alpha virt. eigenvalues --    4.06474   4.07394   4.08242   4.19342   4.19526
 Alpha virt. eigenvalues --    4.23775   4.23999   4.29315   4.32430   4.39404
 Alpha virt. eigenvalues --    4.42685   4.44462   4.47475   4.51280   4.54353
 Alpha virt. eigenvalues --    4.65652   4.66106   4.77918   4.79962   4.84254
 Alpha virt. eigenvalues --    4.94827   4.94931   5.06067   5.17490   5.18789
 Alpha virt. eigenvalues --    5.20698   5.23624   5.34704   5.36481   5.36704
 Alpha virt. eigenvalues --    5.40254   5.44146   5.48314   5.50856   5.57930
 Alpha virt. eigenvalues --    5.71543   5.71680   5.75065   5.91091   6.25439
 Alpha virt. eigenvalues --    6.57092   6.64629   6.75756   6.76411   6.77318
 Alpha virt. eigenvalues --    6.95870   6.96479   7.17637   7.30317   7.34808
 Alpha virt. eigenvalues --    7.35617   7.41374   7.51226   7.71849   8.00159
 Alpha virt. eigenvalues --    8.03683   8.86656  15.16855  16.46070  18.40478
          Condensed to atoms (all electrons):
               1          2          3          4          5          6
     1  C    5.955450   0.588587  -0.053216   0.002400  -0.006933   0.000525
     2  N    0.588587   6.745578   0.007145  -0.028766  -0.024017  -0.001280
     3  H   -0.053216   0.007145   0.282605   0.000286   0.001021  -0.000299
     4  O    0.002400  -0.028766   0.000286   8.022266   0.223982   0.278350
     5  H   -0.006933  -0.024017   0.001021   0.223982   0.453641   0.037484
     6  H    0.000525  -0.001280  -0.000299   0.278350   0.037484   0.489923
 Mulliken charges:
               1
     1  C   -0.486813
     2  N   -0.287247
     3  H    0.762459
     4  O   -0.498518
     5  H    0.314822
     6  H    0.195297
 Sum of Mulliken charges =  -0.00000
 Mulliken charges with hydrogens summed into heavy atoms:
               1
     1  C    0.275646
     2  N   -0.287247
     4  O    0.011601
 Electronic spatial extent (au):  <R**2>=            346.1694
 Charge=             -0.0000 electrons
 Dipole moment (field-independent basis, Debye):
    X=             -4.9330    Y=              1.2401    Z=              0.0001  Tot=              5.0865
 Quadrupole moment (field-independent basis, Debye-Ang):
   XX=             -8.6267   YY=            -17.9159   ZZ=            -19.6347
   XY=              5.6527   XZ=              0.0000   YZ=              0.0000
 Traceless Quadrupole moment (field-independent basis, Debye-Ang):
   XX=              6.7657   YY=             -2.5235   ZZ=             -4.2423
   XY=              5.6527   XZ=              0.0000   YZ=              0.0000
 Octapole moment (field-independent basis, Debye-Ang**2):
  XXX=            -39.3708  YYY=              1.1153  ZZZ=              0.0000  XYY=              5.2687
  XXY=              9.1542  XXZ=              0.0003  XZZ=              1.2822  YZZ=              0.1103
  YYZ=              0.0000  XYZ=              0.0001
 Hexadecapole moment (field-independent basis, Debye-Ang**3):
 XXXX=           -264.4233 YYYY=            -20.2298 ZZZZ=            -19.4584 XXXY=             42.3143
 XXXZ=             -0.0002 YYYX=              4.8775 YYYZ=              0.0000 ZZZX=             -0.0000
 ZZZY=              0.0000 XXYY=            -63.4579 XXZZ=            -74.0061 YYZZ=             -6.7816
 XXYZ=              0.0001 YYXZ=              0.0000 ZZXY=              0.8625
 N-N= 5.363349132947D+01 E-N=-5.052413450328D+02  KE= 1.684546910192D+02
 Calling FoFJK, ICntrl=  10002127 FMM=F ISym2X=0 I1Cent= 0 IOpClX= 0 NMat=1 NMatS=1 NMatT=0.
 ***** Axes restored to original set *****
 -------------------------------------------------------------------
 Center     Atomic                   Forces (Hartrees/Bohr)
 Number     Number              X              Y              Z
 -------------------------------------------------------------------
      1        6           0.020707519    0.002936898   -0.000000404
      2        7          -0.029158943   -0.004160847    0.000000527
      3        1           0.008690753    0.001187634   -0.000000014
      4        8          -0.002231943    0.004684841    0.000000259
      5        1           0.003504868   -0.000630889   -0.000000306
      6        1          -0.001512255   -0.004017638   -0.000000061
 -------------------------------------------------------------------
 Cartesian Forces:  Max     0.029158943 RMS     0.008944156

 GradGradGradGradGradGradGradGradGradGradGradGradGradGradGradGradGradGrad
 Berny optimization.
 FormGI is forming the generalized inverse of G from B-inverse, IUseBI=4.
 Internal  Forces:  Max     0.029686149 RMS     0.009088400
 Search for a local minimum.
 Step number   1 out of a maximum of   22
 All quantities printed in internal units (Hartrees-Bohrs-Radians)
 Mixed Optimization -- RFO/linear search
 Second derivative matrix not updated -- first step.
 The second derivative matrix:
                          R1        R2        R3        R4        R5
           R1           1.15208
           R2           0.00000   0.36256
           R3           0.00000   0.00000   0.03631
           R4           0.00000   0.00000   0.00000   0.53320
           R5           0.00000   0.00000   0.00000   0.00000   0.54415
           A1           0.00000   0.00000   0.00000   0.00000   0.00000
           A2           0.00000   0.00000   0.00000   0.00000   0.00000
           A3           0.00000   0.00000   0.00000   0.00000   0.00000
           A4           0.00000   0.00000   0.00000   0.00000   0.00000
           A5           0.00000   0.00000   0.00000   0.00000   0.00000
           A6           0.00000   0.00000   0.00000   0.00000   0.00000
           A7           0.00000   0.00000   0.00000   0.00000   0.00000
                          A1        A2        A3        A4        A5
           A1           0.16000
           A2           0.00000   0.00230
           A3           0.00000   0.00000   0.00230
           A4           0.00000   0.00000   0.00000   0.00396
           A5           0.00000   0.00000   0.00000   0.00000   0.01422
           A6           0.00000   0.00000   0.00000   0.00000   0.00000
           A7           0.00000   0.00000   0.00000   0.00000   0.00000
                          A6        A7
           A6           0.00396
           A7           0.00000   0.01422
 ITU=  0
     Eigenvalues ---    0.00230   0.00230   0.00396   0.00396   0.01422
     Eigenvalues ---    0.01422   0.03631   0.16000   0.36256   0.53320
     Eigenvalues ---    0.54415   1.15208
 RFO step:  Lambda=-1.04060479D-03 EMin= 2.30000000D-03
 Linear search not attempted -- first point.
 Iteration  1 RMS(Cart)=  0.01913156 RMS(Int)=  0.00010386
 Iteration  2 RMS(Cart)=  0.00016834 RMS(Int)=  0.00000001
 Iteration  3 RMS(Cart)=  0.00000001 RMS(Int)=  0.00000000
 Variable       Old X    -DE/DX   Delta X   Delta X   Delta X     New X
                                 (Linear)    (Quad)   (Total)
    R1        2.23101  -0.02969   0.00000  -0.02574  -0.02574   2.20527
    R2        2.03684  -0.00877   0.00000  -0.02412  -0.02412   2.01271
    R3        3.98017  -0.00024   0.00000  -0.00645  -0.00645   3.97372
    R4        1.83356  -0.00380   0.00000  -0.00712  -0.00712   1.82645
    R5        1.82356  -0.00429   0.00000  -0.00787  -0.00787   1.81569
    A1        1.81331   0.00023   0.00000   0.00141   0.00141   1.81472
    A2        3.33205  -0.00008   0.00000  -0.02252  -0.02252   3.30952
    A3        3.14161  -0.00000   0.00000  -0.00004  -0.00004   3.14157
    A4        3.14110  -0.00004   0.00000  -0.00826  -0.00826   3.13284
    A5        3.23525   0.00002   0.00000   0.00123   0.00123   3.23649
    A6        3.14161  -0.00000   0.00000  -0.00000  -0.00000   3.14161
    A7        3.14163  -0.00000   0.00000  -0.00001  -0.00001   3.14162
         Item               Value     Threshold  Converged?
 Maximum Force            0.029686     0.000450     NO 
 RMS     Force            0.009088     0.000300     NO 
 Maximum Displacement     0.038510     0.001800     NO 
 RMS     Displacement     0.019186     0.001200     NO 
 Predicted change in Energy=-5.213338D-04
 GradGradGradGradGradGradGradGradGradGradGradGradGradGradGradGradGradGrad

                          Input orientation:                          
 ---------------------------------------------------------------------
 Center     Atomic      Atomic             Coordinates (Angstroms)
 Number     Number       Type             X           Y           Z
 ---------------------------------------------------------------------
      1          6           0       -2.026695   -0.044100    0.000008
      2          7           0       -0.868431    0.098248    0.000027
      3          1           0       -3.082645   -0.183262   -0.000013
      4          8           0        2.189165   -0.133094   -0.000005
      5          1           0        1.232182    0.002294    0.000015
      6          1           0        2.549536    0.757584    0.000001
 ---------------------------------------------------------------------
                    Distance matrix (angstroms):
                    1          2          3          4          5
     1  C    0.000000
     2  N    1.166977   0.000000
     3  H    1.065081   2.232037   0.000000
     4  O    4.216799   3.066336   5.272050   0.000000
     5  H    3.259207   2.102804   4.318815   0.966513   0.000000
     6  H    4.645922   3.480981   5.710224   0.960820   1.518515
                    6
     6  H    0.000000
 Stoichiometry    CH3NO
 Framework group  C1[X(CH3NO)]
 Deg. of freedom    12
 Full point group                 C1      NOp   1
 Largest Abelian subgroup         C1      NOp   1
 Largest concise Abelian subgroup C1      NOp   1
                         Standard orientation:                         
 ---------------------------------------------------------------------
 Center     Atomic      Atomic             Coordinates (Angstroms)
 Number     Number       Type             X           Y           Z
 ---------------------------------------------------------------------
      1          6           0       -2.025629   -0.038834   -0.000000
      2          7           0       -0.867187    0.102051    0.000019
      3          1           0       -3.081755   -0.176663   -0.000021
      4          8           0        2.190115   -0.133151   -0.000014
      5          1           0        1.233303    0.003445    0.000007
      6          1           0        2.551611    0.757071   -0.000007
 ---------------------------------------------------------------------
 Rotational constants (GHZ):         500.6826256           3.2777536           3.2564351
 Standard basis: Aug-CC-pVTZ (5D, 7F)
 There are   240 symmetry adapted cartesian basis functions of A   symmetry.
 There are   207 symmetry adapted basis functions of A   symmetry.
   207 basis functions,   297 primitive gaussians,   240 cartesian basis functions
    12 alpha electrons       12 beta electrons
       nuclear repulsion energy        54.0099779293 Hartrees.
 NAtoms=    6 NActive=    6 NUniq=    6 SFac= 1.00D+00 NAtFMM=   60 NAOKFM=F Big=F
 Integral buffers will be    131072 words long.
 Raffenetti 1 integral format.
 Two-electron integral symmetry is turned on.
 One-electron integrals computed using PRISM.
 NBasis=   207 RedAO= T EigKep=  6.18D-05  NBF=   207
 NBsUse=   207 1.00D-06 EigRej= -1.00D+00 NBFU=   207
 Initial guess from the checkpoint file:  "/gscratch/scrubbed/gds001/Gau-28471.chk"
 B after Tr=    -0.000000   -0.000000   -0.000000
         Rot=    1.000000   -0.000016   -0.000002   -0.000098 Ang=  -0.01 deg.
 ExpMin= 2.53D-02 ExpMax= 1.53D+04 ExpMxC= 5.22D+02 IAcc=3 IRadAn=         5 AccDes= 0.00D+00
 Harris functional with IExCor=  205 and IRadAn=       5 diagonalized for initial guess.
 HarFok:  IExCor=  205 AccDes= 0.00D+00 IRadAn=         5 IDoV= 1 UseB2=F ITyADJ=14
 ICtDFT=  3500011 ScaDFX=  1.000000  1.000000  1.000000  1.000000
 FoFCou: FMM=F IPFlag=           0 FMFlag=      100000 FMFlg1=           0
         NFxFlg=           0 DoJE=T BraDBF=F KetDBF=T FulRan=T
         wScrn=  0.000000 ICntrl=       500 IOpCl=  0 I1Cent=   200000004 NGrid=           0
         NMat0=    1 NMatS0=      1 NMatT0=    0 NMatD0=    1 NMtDS0=    0 NMtDT0=    0
 Petite list used in FoFCou.
 Keep R1 ints in memory in canonical form, NReq=245599901.
 Requested convergence on RMS density matrix=1.00D-08 within 128 cycles.
 Requested convergence on MAX density matrix=1.00D-06.
 Requested convergence on             energy=1.00D-06.
 No special actions if energy rises.
 SCF Done:  E(RHF) =  -168.970911586     A.U. after   10 cycles
            NFock= 10  Conv=0.39D-08     -V/T= 2.0024
 ExpMin= 2.53D-02 ExpMax= 1.53D+04 ExpMxC= 5.22D+02 IAcc=3 IRadAn=         5 AccDes= 0.00D+00
 HarFok:  IExCor=  205 AccDes= 0.00D+00 IRadAn=         5 IDoV=-2 UseB2=F ITyADJ=14
 ICtDFT= 12500011 ScaDFX=  1.000000  1.000000  1.000000  1.000000
 Range of M.O.s used for correlation:     4   207
 NBasis=   207 NAE=    12 NBE=    12 NFC=     3 NFV=     0
 NROrb=    204 NOA=     9 NOB=     9 NVA=   195 NVB=   195

 **** Warning!!: The largest alpha MO coefficient is  0.41146565D+02

 Fully direct method using O(ONN) memory.
 JobTyp=1 Pass  1:  I=   4 to  12 NPSUse= 28 ParTrn=T ParDer=T DoDerP=T.
 Spin components of T(2) and E(2):
     alpha-alpha T2 =       0.2432543836D-01 E2=     -0.7649670231D-01
     alpha-beta  T2 =       0.1401617688D+00 E2=     -0.4718319241D+00
     beta-beta   T2 =       0.2432543836D-01 E2=     -0.7649670231D-01
 ANorm=    0.1090326853D+01
 E2 =    -0.6248253288D+00 EUMP2 =    -0.16959573691443D+03
          IDoAtm=111111
          Differentiating once with respect to electric field.
                with respect to dipole field.
          Differentiating once with respect to nuclear coordinates.
 Keep R1 ints in memory in canonical form, NReq=245605060.
          There are     1 degrees of freedom in the 1st order CPHF.  IDoFFX=0 NUNeed=     1.
 LinEq1:  Iter=  0 NonCon=     1 RMS=3.83D-03 Max=4.66D-02 NDo=     1
 AX will form     1 AO Fock derivatives at one time.
 LinEq1:  Iter=  1 NonCon=     1 RMS=8.42D-04 Max=1.15D-02 NDo=     1
 LinEq1:  Iter=  2 NonCon=     1 RMS=2.11D-04 Max=2.80D-03 NDo=     1
 LinEq1:  Iter=  3 NonCon=     1 RMS=8.60D-05 Max=1.47D-03 NDo=     1
 LinEq1:  Iter=  4 NonCon=     1 RMS=3.51D-05 Max=3.17D-04 NDo=     1
 LinEq1:  Iter=  5 NonCon=     1 RMS=7.31D-06 Max=6.66D-05 NDo=     1
 LinEq1:  Iter=  6 NonCon=     1 RMS=3.38D-06 Max=4.35D-05 NDo=     1
 LinEq1:  Iter=  7 NonCon=     1 RMS=7.22D-07 Max=8.22D-06 NDo=     1
 LinEq1:  Iter=  8 NonCon=     1 RMS=1.65D-07 Max=2.55D-06 NDo=     1
 LinEq1:  Iter=  9 NonCon=     1 RMS=3.87D-08 Max=4.71D-07 NDo=     1
 LinEq1:  Iter= 10 NonCon=     1 RMS=8.92D-09 Max=9.60D-08 NDo=     1
 LinEq1:  Iter= 11 NonCon=     1 RMS=1.51D-09 Max=1.68D-08 NDo=     1
 LinEq1:  Iter= 12 NonCon=     1 RMS=2.33D-10 Max=1.83D-09 NDo=     1
 LinEq1:  Iter= 13 NonCon=     0 RMS=4.35D-11 Max=6.26D-10 NDo=     1
 Linear equations converged to 1.000D-10 1.000D-09 after    13 iterations.
 End of Minotr F.D. properties file   721 does not exist.
 End of Minotr F.D. properties file   722 does not exist.
 End of Minotr F.D. properties file   788 does not exist.
 Calling FoFJK, ICntrl=  10002127 FMM=F ISym2X=0 I1Cent= 0 IOpClX= 0 NMat=1 NMatS=1 NMatT=0.
 ***** Axes restored to original set *****
 -------------------------------------------------------------------
 Center     Atomic                   Forces (Hartrees/Bohr)
 Number     Number              X              Y              Z
 -------------------------------------------------------------------
      1        6           0.003910291    0.000080346   -0.000000106
      2        7          -0.003355342   -0.000245075    0.000000022
      3        1          -0.000360712    0.000162602    0.000000093
      4        8          -0.000275616    0.000588248    0.000000049
      5        1          -0.000117542   -0.000310405   -0.000000059
      6        1           0.000198921   -0.000275716    0.000000001
 -------------------------------------------------------------------
 Cartesian Forces:  Max     0.003910291 RMS     0.001234223

 GradGradGradGradGradGradGradGradGradGradGradGradGradGradGradGradGradGrad
 Berny optimization.
 Using GEDIIS/GDIIS optimizer.
 FormGI is forming the generalized inverse of G from B-inverse, IUseBI=4.
 Internal  Forces:  Max     0.003552707 RMS     0.001051551
 Search for a local minimum.
 Step number   2 out of a maximum of   22
 All quantities printed in internal units (Hartrees-Bohrs-Radians)
 Mixed Optimization -- RFO/linear search
 Update second derivatives using D2CorX and points    1    2
 DE= -5.69D-04 DEPred=-5.21D-04 R= 1.09D+00
 TightC=F SS=  1.41D+00  RLast= 4.45D-02 DXNew= 5.0454D-01 1.3342D-01
 Trust test= 1.09D+00 RLast= 4.45D-02 DXMaxT set to 3.00D-01
 The second derivative matrix:
                          R1        R2        R3        R4        R5
           R1           1.01902
           R2          -0.00096   0.37562
           R3          -0.00541  -0.00153   0.03626
           R4          -0.00777   0.00310  -0.00068   0.53351
           R5          -0.01002   0.00306  -0.00076   0.00017   0.54415
           A1           0.01452   0.00471   0.00007   0.00196   0.00220
           A2           0.00068   0.00032  -0.00001   0.00011   0.00013
           A3           0.00000   0.00000  -0.00000   0.00000   0.00000
           A4           0.01165   0.00411   0.00002   0.00165   0.00184
           A5          -0.00064  -0.00025   0.00000  -0.00010  -0.00011
           A6          -0.00000  -0.00000  -0.00000  -0.00000  -0.00000
           A7          -0.00000  -0.00000  -0.00000  -0.00000  -0.00000
                          A1        A2        A3        A4        A5
           A1           0.16004
           A2           0.00004   0.00230
           A3           0.00000   0.00000   0.00230
           A4           0.00015   0.00004   0.00000   0.00418
           A5          -0.00002  -0.00000  -0.00000  -0.00002   0.01422
           A6           0.00000  -0.00000  -0.00000  -0.00000   0.00000
           A7           0.00000   0.00000   0.00000   0.00000  -0.00000
                          A6        A7
           A6           0.00396
           A7          -0.00000   0.01422
 ITU=  1  0
 Use linear search instead of GDIIS.
     Eigenvalues ---    0.00230   0.00230   0.00396   0.00398   0.01422
     Eigenvalues ---    0.01422   0.03622   0.15967   0.37565   0.53347
     Eigenvalues ---    0.54402   1.01976
 RFO step:  Lambda=-6.52734206D-05 EMin= 2.30000000D-03
 Quartic linear search produced a step of  0.08375.
 Iteration  1 RMS(Cart)=  0.03841554 RMS(Int)=  0.00234835
 Iteration  2 RMS(Cart)=  0.00234376 RMS(Int)=  0.00000240
 Iteration  3 RMS(Cart)=  0.00000075 RMS(Int)=  0.00000000
 Variable       Old X    -DE/DX   Delta X   Delta X   Delta X     New X
                                 (Linear)    (Quad)   (Total)
    R1        2.20527  -0.00355  -0.00216  -0.00273  -0.00488   2.20039
    R2        2.01271   0.00034  -0.00202   0.00168  -0.00034   2.01237
    R3        3.97372  -0.00019  -0.00054  -0.00527  -0.00581   3.96791
    R4        1.82645  -0.00012  -0.00060  -0.00006  -0.00065   1.82579
    R5        1.81569  -0.00018  -0.00066  -0.00016  -0.00082   1.81487
    A1        1.81472   0.00052   0.00012   0.00349   0.00361   1.81833
    A2        3.30952   0.00000  -0.00189   0.02195   0.02006   3.32958
    A3        3.14157   0.00000  -0.00000   0.00006   0.00005   3.14162
    A4        3.13284   0.00042  -0.00069   0.11746   0.11677   3.24961
    A5        3.23649  -0.00002   0.00010  -0.00195  -0.00185   3.23464
    A6        3.14161  -0.00000  -0.00000  -0.00000  -0.00000   3.14160
    A7        3.14162  -0.00000  -0.00000  -0.00000  -0.00000   3.14162
         Item               Value     Threshold  Converged?
 Maximum Force            0.003553     0.000450     NO 
 RMS     Force            0.001052     0.000300     NO 
 Maximum Displacement     0.091398     0.001800     NO 
 RMS     Displacement     0.038624     0.001200     NO 
 Predicted change in Energy=-3.401497D-05
 GradGradGradGradGradGradGradGradGradGradGradGradGradGradGradGradGradGrad

                          Input orientation:                          
 ---------------------------------------------------------------------
 Center     Atomic      Atomic             Coordinates (Angstroms)
 Number     Number       Type             X           Y           Z
 ---------------------------------------------------------------------
      1          6           0       -2.019050   -0.090955    0.000008
      2          7           0       -0.867608    0.082233   -0.000016
      3          1           0       -3.083043   -0.134896    0.000015
      4          8           0        2.188342   -0.125922    0.000004
      5          1           0        1.230547    0.000997    0.000007
      6          1           0        2.543925    0.766214    0.000015
 ---------------------------------------------------------------------
                    Distance matrix (angstroms):
                    1          2          3          4          5
     1  C    0.000000
     2  N    1.164395   0.000000
     3  H    1.064900   2.226050   0.000000
     4  O    4.207537   3.063030   5.271393   0.000000
     5  H    3.250898   2.099727   4.315730   0.966167   0.000000
     6  H    4.642788   3.479423   5.698664   0.960388   1.520039
                    6
     6  H    0.000000
 Stoichiometry    CH3NO
 Framework group  C1[X(CH3NO)]
 Deg. of freedom    12
 Full point group                 C1      NOp   1
 Largest Abelian subgroup         C1      NOp   1
 Largest concise Abelian subgroup C1      NOp   1
                         Standard orientation:                         
 ---------------------------------------------------------------------
 Center     Atomic      Atomic             Coordinates (Angstroms)
 Number     Number       Type             X           Y           Z
 ---------------------------------------------------------------------
      1          6           0       -2.020101   -0.058348    0.000007
      2          7           0       -0.867142    0.104444   -0.000016
      3          1           0       -3.084447   -0.092687    0.000014
      4          8           0        2.186804   -0.131278    0.000004
      5          1           0        1.230194    0.004278    0.000007
      6          1           0        2.550423    0.757613    0.000015
 ---------------------------------------------------------------------
 Rotational constants (GHZ):         498.1590088           3.2885420           3.2669754
 Standard basis: Aug-CC-pVTZ (5D, 7F)
 There are   240 symmetry adapted cartesian basis functions of A   symmetry.
 There are   207 symmetry adapted basis functions of A   symmetry.
   207 basis functions,   297 primitive gaussians,   240 cartesian basis functions
    12 alpha electrons       12 beta electrons
       nuclear repulsion energy        54.0904704705 Hartrees.
 NAtoms=    6 NActive=    6 NUniq=    6 SFac= 1.00D+00 NAtFMM=   60 NAOKFM=F Big=F
 Integral buffers will be    131072 words long.
 Raffenetti 1 integral format.
 Two-electron integral symmetry is turned on.
 One-electron integrals computed using PRISM.
 NBasis=   207 RedAO= T EigKep=  6.17D-05  NBF=   207
 NBsUse=   207 1.00D-06 EigRej= -1.00D+00 NBFU=   207
 Initial guess from the checkpoint file:  "/gscratch/scrubbed/gds001/Gau-28471.chk"
 B after Tr=     0.000000   -0.000000    0.000000
         Rot=    1.000000    0.000020    0.000002    0.000016 Ang=   0.00 deg.
 ExpMin= 2.53D-02 ExpMax= 1.53D+04 ExpMxC= 5.22D+02 IAcc=3 IRadAn=         5 AccDes= 0.00D+00
 Harris functional with IExCor=  205 and IRadAn=       5 diagonalized for initial guess.
 HarFok:  IExCor=  205 AccDes= 0.00D+00 IRadAn=         5 IDoV= 1 UseB2=F ITyADJ=14
 ICtDFT=  3500011 ScaDFX=  1.000000  1.000000  1.000000  1.000000
 FoFCou: FMM=F IPFlag=           0 FMFlag=      100000 FMFlg1=           0
         NFxFlg=           0 DoJE=T BraDBF=F KetDBF=T FulRan=T
         wScrn=  0.000000 ICntrl=       500 IOpCl=  0 I1Cent=   200000004 NGrid=           0
         NMat0=    1 NMatS0=      1 NMatT0=    0 NMatD0=    1 NMtDS0=    0 NMtDT0=    0
 Petite list used in FoFCou.
 Keep R1 ints in memory in canonical form, NReq=245599945.
 Requested convergence on RMS density matrix=1.00D-08 within 128 cycles.
 Requested convergence on MAX density matrix=1.00D-06.
 Requested convergence on             energy=1.00D-06.
 No special actions if energy rises.
 SCF Done:  E(RHF) =  -168.971006721     A.U. after   11 cycles
            NFock= 11  Conv=0.44D-08     -V/T= 2.0023
 ExpMin= 2.53D-02 ExpMax= 1.53D+04 ExpMxC= 5.22D+02 IAcc=3 IRadAn=         5 AccDes= 0.00D+00
 HarFok:  IExCor=  205 AccDes= 0.00D+00 IRadAn=         5 IDoV=-2 UseB2=F ITyADJ=14
 ICtDFT= 12500011 ScaDFX=  1.000000  1.000000  1.000000  1.000000
 Range of M.O.s used for correlation:     4   207
 NBasis=   207 NAE=    12 NBE=    12 NFC=     3 NFV=     0
 NROrb=    204 NOA=     9 NOB=     9 NVA=   195 NVB=   195

 **** Warning!!: The largest alpha MO coefficient is  0.39320167D+02

 Fully direct method using O(ONN) memory.
 JobTyp=1 Pass  1:  I=   4 to  12 NPSUse= 28 ParTrn=T ParDer=T DoDerP=T.
 Spin components of T(2) and E(2):
     alpha-alpha T2 =       0.2425626034D-01 E2=     -0.7642907534D-01
     alpha-beta  T2 =       0.1398477761D+00 E2=     -0.4715202718D+00
     beta-beta   T2 =       0.2425626034D-01 E2=     -0.7642907534D-01
 ANorm=    0.1090119396D+01
 E2 =    -0.6243784225D+00 EUMP2 =    -0.16959538514334D+03
          IDoAtm=111111
          Differentiating once with respect to electric field.
                with respect to dipole field.
          Differentiating once with respect to nuclear coordinates.
 Keep R1 ints in memory in canonical form, NReq=245605236.
          There are     1 degrees of freedom in the 1st order CPHF.  IDoFFX=0 NUNeed=     1.
 LinEq1:  Iter=  0 NonCon=     1 RMS=3.81D-03 Max=4.58D-02 NDo=     1
 AX will form     1 AO Fock derivatives at one time.
 LinEq1:  Iter=  1 NonCon=     1 RMS=8.37D-04 Max=1.13D-02 NDo=     1
 LinEq1:  Iter=  2 NonCon=     1 RMS=2.09D-04 Max=2.85D-03 NDo=     1
 LinEq1:  Iter=  3 NonCon=     1 RMS=8.21D-05 Max=1.30D-03 NDo=     1
 LinEq1:  Iter=  4 NonCon=     1 RMS=3.46D-05 Max=3.24D-04 NDo=     1
 LinEq1:  Iter=  5 NonCon=     1 RMS=7.50D-06 Max=7.94D-05 NDo=     1
 LinEq1:  Iter=  6 NonCon=     1 RMS=3.64D-06 Max=3.92D-05 NDo=     1
 LinEq1:  Iter=  7 NonCon=     1 RMS=1.22D-06 Max=1.90D-05 NDo=     1
 LinEq1:  Iter=  8 NonCon=     1 RMS=2.78D-07 Max=4.05D-06 NDo=     1
 LinEq1:  Iter=  9 NonCon=     1 RMS=4.43D-08 Max=5.33D-07 NDo=     1
 LinEq1:  Iter= 10 NonCon=     1 RMS=9.02D-09 Max=9.65D-08 NDo=     1
 LinEq1:  Iter= 11 NonCon=     1 RMS=1.45D-09 Max=1.53D-08 NDo=     1
 LinEq1:  Iter= 12 NonCon=     1 RMS=2.16D-10 Max=1.75D-09 NDo=     1
 LinEq1:  Iter= 13 NonCon=     0 RMS=3.53D-11 Max=4.01D-10 NDo=     1
 Linear equations converged to 1.000D-10 1.000D-09 after    13 iterations.
 End of Minotr F.D. properties file   721 does not exist.
 End of Minotr F.D. properties file   722 does not exist.
 End of Minotr F.D. properties file   788 does not exist.
 Calling FoFJK, ICntrl=  10002127 FMM=F ISym2X=0 I1Cent= 0 IOpClX= 0 NMat=1 NMatS=1 NMatT=0.
 ***** Axes restored to original set *****
 -------------------------------------------------------------------
 Center     Atomic                   Forces (Hartrees/Bohr)
 Number     Number              X              Y              Z
 -------------------------------------------------------------------
      1        6          -0.002288655    0.005889416   -0.000000772
      2        7           0.002804410   -0.002592331    0.000000487
      3        1          -0.000364715   -0.003284344    0.000000389
      4        8           0.000112438   -0.000093254    0.000000130
      5        1          -0.000342882   -0.000037709   -0.000000232
      6        1           0.000079404    0.000118223   -0.000000002
 -------------------------------------------------------------------
 Cartesian Forces:  Max     0.005889416 RMS     0.001908877

 GradGradGradGradGradGradGradGradGradGradGradGradGradGradGradGradGradGrad
 Berny optimization.
 Using GEDIIS/GDIIS optimizer.
 FormGI is forming the generalized inverse of G from B-inverse, IUseBI=4.
 Internal  Forces:  Max     0.006573438 RMS     0.002011303
 Search for a local minimum.
 Step number   3 out of a maximum of   22
 All quantities printed in internal units (Hartrees-Bohrs-Radians)
 Mixed Optimization -- RFO/linear search
 Update second derivatives using D2CorX and points    1    3    2
 DE=  3.52D-04 DEPred=-3.40D-05 R=-1.03D+01
 Trust test=-1.03D+01 RLast= 1.19D-01 DXMaxT set to 1.50D-01
 The second derivative matrix:
                          R1        R2        R3        R4        R5
           R1           0.88608
           R2           0.01909   0.37357
           R3          -0.01403  -0.00054   0.03580
           R4          -0.01087   0.00373  -0.00093   0.53346
           R5          -0.01598   0.00402  -0.00117   0.00004   0.54388
           A1           0.03691   0.00181   0.00136   0.00256   0.00323
           A2           0.00322   0.00007   0.00011   0.00020   0.00025
           A3           0.00001   0.00000   0.00000   0.00000   0.00000
           A4          -0.01508   0.00045   0.00074  -0.00024   0.00020
           A5          -0.00198  -0.00012  -0.00006  -0.00014  -0.00017
           A6          -0.00000  -0.00000  -0.00000  -0.00000  -0.00000
           A7          -0.00000  -0.00000  -0.00000  -0.00000  -0.00000
                          A1        A2        A3        A4        A5
           A1           0.15650
           A2          -0.00033   0.00227
           A3          -0.00000  -0.00000   0.00230
           A4           0.00089  -0.00052   0.00000   0.05936
           A5           0.00018   0.00001   0.00000   0.00025   0.01421
           A6           0.00000   0.00000   0.00000  -0.00000  -0.00000
           A7           0.00000   0.00000   0.00000   0.00000  -0.00000
                          A6        A7
           A6           0.00396
           A7          -0.00000   0.01422
 ITU= -1  1  0
 Use linear search instead of GDIIS.
     Eigenvalues ---    0.00226   0.00230   0.00396   0.01420   0.01422
     Eigenvalues ---    0.03552   0.05907   0.15464   0.37263   0.53328
     Eigenvalues ---    0.54336   0.89019
 RFO step:  Lambda=-1.63967626D-05 EMin= 2.25594179D-03
 Quartic linear search produced a step of -0.91679.
 Iteration  1 RMS(Cart)=  0.04026488 RMS(Int)=  0.00239685
 Iteration  2 RMS(Cart)=  0.00233376 RMS(Int)=  0.00000077
 Iteration  3 RMS(Cart)=  0.00000106 RMS(Int)=  0.00000000
 Iteration  4 RMS(Cart)=  0.00000000 RMS(Int)=  0.00000000
 Variable       Old X    -DE/DX   Delta X   Delta X   Delta X     New X
                                 (Linear)    (Quad)   (Total)
    R1        2.20039   0.00224   0.00447  -0.00388   0.00059   2.20098
    R2        2.01237   0.00050   0.00031   0.00111   0.00143   2.01380
    R3        3.96791  -0.00015   0.00533  -0.00697  -0.00164   3.96627
    R4        1.82579   0.00019   0.00060  -0.00030   0.00030   1.82609
    R5        1.81487   0.00014   0.00075  -0.00045   0.00030   1.81517
    A1        1.81833   0.00005  -0.00331   0.00411   0.00080   1.81913
    A2        3.32958   0.00004  -0.01839   0.00904  -0.00935   3.32024
    A3        3.14162  -0.00000  -0.00005   0.00003  -0.00002   3.14160
    A4        3.24961  -0.00657  -0.10705  -0.00349  -0.11054   3.13907
    A5        3.23464  -0.00004   0.00170  -0.00228  -0.00058   3.23406
    A6        3.14160  -0.00000   0.00000  -0.00001  -0.00000   3.14160
    A7        3.14162  -0.00000   0.00000  -0.00000  -0.00000   3.14162
         Item               Value     Threshold  Converged?
 Maximum Force            0.006573     0.000450     NO 
 RMS     Force            0.002011     0.000300     NO 
 Maximum Displacement     0.097061     0.001800     NO 
 RMS     Displacement     0.040375     0.001200     NO 
 Predicted change in Energy=-1.302204D-05
 GradGradGradGradGradGradGradGradGradGradGradGradGradGradGradGradGradGrad

                          Input orientation:                          
 ---------------------------------------------------------------------
 Center     Atomic      Atomic             Coordinates (Angstroms)
 Number     Number       Type             X           Y           Z
 ---------------------------------------------------------------------
      1          6           0       -2.022918   -0.045641    0.000004
      2          7           0       -0.868009    0.105130   -0.000003
      3          1           0       -3.079255   -0.186258    0.000009
      4          8           0        2.185043   -0.133398    0.000003
      5          1           0        1.228348    0.002683    0.000010
      6          1           0        2.549903    0.755155    0.000010
 ---------------------------------------------------------------------
                    Distance matrix (angstroms):
                    1          2          3          4          5
     1  C    0.000000
     2  N    1.164709   0.000000
     3  H    1.065656   2.230363   0.000000
     4  O    4.208876   3.062355   5.264564   0.000000
     5  H    3.251624   2.098858   4.311745   0.966325   0.000000
     6  H    4.642409   3.479174   5.707336   0.960546   1.520764
                    6
     6  H    0.000000
 Stoichiometry    CH3NO
 Framework group  C1[X(CH3NO)]
 Deg. of freedom    12
 Full point group                 C1      NOp   1
 Largest Abelian subgroup         C1      NOp   1
 Largest concise Abelian subgroup C1      NOp   1
                         Standard orientation:                         
 ---------------------------------------------------------------------
 Center     Atomic      Atomic             Coordinates (Angstroms)
 Number     Number       Type             X           Y           Z
 ---------------------------------------------------------------------
      1          6           0       -2.021535   -0.042198    0.000002
      2          7           0       -0.866474    0.107405   -0.000005
      3          1           0       -3.078015   -0.181746    0.000007
      4          8           0        2.186335   -0.134213    0.000000
      5          1           0        1.229777    0.002836    0.000007
      6          1           0        2.552094    0.753970    0.000008
 ---------------------------------------------------------------------
 Rotational constants (GHZ):         490.7159335           3.2886302           3.2667375
 Standard basis: Aug-CC-pVTZ (5D, 7F)
 There are   240 symmetry adapted cartesian basis functions of A   symmetry.
 There are   207 symmetry adapted basis functions of A   symmetry.
   207 basis functions,   297 primitive gaussians,   240 cartesian basis functions
    12 alpha electrons       12 beta electrons
       nuclear repulsion energy        54.0802488820 Hartrees.
 NAtoms=    6 NActive=    6 NUniq=    6 SFac= 1.00D+00 NAtFMM=   60 NAOKFM=F Big=F
 Integral buffers will be    131072 words long.
 Raffenetti 1 integral format.
 Two-electron integral symmetry is turned on.
 One-electron integrals computed using PRISM.
 NBasis=   207 RedAO= T EigKep=  6.18D-05  NBF=   207
 NBsUse=   207 1.00D-06 EigRej= -1.00D+00 NBFU=   207
 Lowest energy guess from the checkpoint file:  "/gscratch/scrubbed/gds001/Gau-28471.chk"
 B after Tr=     0.000000   -0.000000    0.000000
         Rot=    1.000000    0.000016    0.000002    0.000038 Ang=   0.00 deg.
 B after Tr=     0.000000    0.000000    0.000000
         Rot=    1.000000   -0.000006   -0.000000    0.000021 Ang=  -0.00 deg.
 Keep R1 ints in memory in canonical form, NReq=245599945.
 Requested convergence on RMS density matrix=1.00D-08 within 128 cycles.
 Requested convergence on MAX density matrix=1.00D-06.
 Requested convergence on             energy=1.00D-06.
 No special actions if energy rises.
 SCF Done:  E(RHF) =  -168.971403290     A.U. after    9 cycles
            NFock=  9  Conv=0.86D-08     -V/T= 2.0024
 ExpMin= 2.53D-02 ExpMax= 1.53D+04 ExpMxC= 5.22D+02 IAcc=3 IRadAn=         5 AccDes= 0.00D+00
 HarFok:  IExCor=  205 AccDes= 0.00D+00 IRadAn=         5 IDoV=-2 UseB2=F ITyADJ=14
 ICtDFT= 12500011 ScaDFX=  1.000000  1.000000  1.000000  1.000000
 Range of M.O.s used for correlation:     4   207
 NBasis=   207 NAE=    12 NBE=    12 NFC=     3 NFV=     0
 NROrb=    204 NOA=     9 NOB=     9 NVA=   195 NVB=   195

 **** Warning!!: The largest alpha MO coefficient is  0.41086337D+02

 Fully direct method using O(ONN) memory.
 JobTyp=1 Pass  1:  I=   4 to  12 NPSUse= 28 ParTrn=T ParDer=T DoDerP=T.
 Spin components of T(2) and E(2):
     alpha-alpha T2 =       0.2425731720D-01 E2=     -0.7642800190D-01
     alpha-beta  T2 =       0.1398114616D+00 E2=     -0.4714864342D+00
     beta-beta   T2 =       0.2425731720D-01 E2=     -0.7642800190D-01
 ANorm=    0.1090103709D+01
 E2 =    -0.6243424379D+00 EUMP2 =    -0.16959574572823D+03
          IDoAtm=111111
          Differentiating once with respect to electric field.
                with respect to dipole field.
          Differentiating once with respect to nuclear coordinates.
 Keep R1 ints in memory in canonical form, NReq=245605249.
          There are     1 degrees of freedom in the 1st order CPHF.  IDoFFX=0 NUNeed=     1.
 LinEq1:  Iter=  0 NonCon=     1 RMS=3.81D-03 Max=4.64D-02 NDo=     1
 AX will form     1 AO Fock derivatives at one time.
 LinEq1:  Iter=  1 NonCon=     1 RMS=8.37D-04 Max=1.15D-02 NDo=     1
 LinEq1:  Iter=  2 NonCon=     1 RMS=2.10D-04 Max=2.80D-03 NDo=     1
 LinEq1:  Iter=  3 NonCon=     1 RMS=8.38D-05 Max=1.43D-03 NDo=     1
 LinEq1:  Iter=  4 NonCon=     1 RMS=3.47D-05 Max=3.12D-04 NDo=     1
 LinEq1:  Iter=  5 NonCon=     1 RMS=7.22D-06 Max=6.68D-05 NDo=     1
 LinEq1:  Iter=  6 NonCon=     1 RMS=3.33D-06 Max=4.30D-05 NDo=     1
 LinEq1:  Iter=  7 NonCon=     1 RMS=7.27D-07 Max=8.41D-06 NDo=     1
 LinEq1:  Iter=  8 NonCon=     1 RMS=1.69D-07 Max=2.62D-06 NDo=     1
 LinEq1:  Iter=  9 NonCon=     1 RMS=3.90D-08 Max=4.64D-07 NDo=     1
 LinEq1:  Iter= 10 NonCon=     1 RMS=8.88D-09 Max=9.61D-08 NDo=     1
 LinEq1:  Iter= 11 NonCon=     1 RMS=1.49D-09 Max=1.65D-08 NDo=     1
 LinEq1:  Iter= 12 NonCon=     1 RMS=2.29D-10 Max=1.80D-09 NDo=     1
 LinEq1:  Iter= 13 NonCon=     0 RMS=4.25D-11 Max=6.15D-10 NDo=     1
 Linear equations converged to 1.000D-10 1.000D-09 after    13 iterations.
 End of Minotr F.D. properties file   721 does not exist.
 End of Minotr F.D. properties file   722 does not exist.
 End of Minotr F.D. properties file   788 does not exist.
 Calling FoFJK, ICntrl=  10002127 FMM=F ISym2X=0 I1Cent= 0 IOpClX= 0 NMat=1 NMatS=1 NMatT=0.
 ***** Axes restored to original set *****
 -------------------------------------------------------------------
 Center     Atomic                   Forces (Hartrees/Bohr)
 Number     Number              X              Y              Z
 -------------------------------------------------------------------
      1        6          -0.001274890   -0.000205886   -0.000000069
      2        7           0.001260520    0.000122268    0.000000121
      3        1           0.000162863    0.000053991    0.000000016
      4        8           0.000060467   -0.000066676    0.000000092
      5        1          -0.000125366    0.000117384   -0.000000160
      6        1          -0.000083594   -0.000021081   -0.000000000
 -------------------------------------------------------------------
 Cartesian Forces:  Max     0.001274890 RMS     0.000431152

 GradGradGradGradGradGradGradGradGradGradGradGradGradGradGradGradGradGrad
 Berny optimization.
 Using GEDIIS/GDIIS optimizer.
 FormGI is forming the generalized inverse of G from B-inverse, IUseBI=4.
 Internal  Forces:  Max     0.001122333 RMS     0.000333815
 Search for a local minimum.
 Step number   4 out of a maximum of   22
 All quantities printed in internal units (Hartrees-Bohrs-Radians)
 Mixed Optimization -- En-DIIS/RFO-DIIS
 Update second derivatives using D2CorX and points    1    3    2    4
 DE= -8.81D-06 DEPred=-1.30D-05 R= 6.77D-01
 TightC=F SS=  1.41D+00  RLast= 1.60D-02 DXNew= 2.5227D-01 4.7852D-02
 Trust test= 6.77D-01 RLast= 1.60D-02 DXMaxT set to 1.50D-01
 The second derivative matrix:
                          R1        R2        R3        R4        R5
           R1           1.13892
           R2          -0.02419   0.36268
           R3          -0.03965   0.00139   0.03412
           R4          -0.01333  -0.00092  -0.00198   0.53198
           R5          -0.02546  -0.00061  -0.00276  -0.00187   0.54136
           A1           0.00460   0.00220   0.00507   0.00162   0.00317
           A2          -0.00664   0.00006   0.00013  -0.00030  -0.00029
           A3          -0.00001   0.00000   0.00000  -0.00000  -0.00000
           A4          -0.00235   0.00089   0.00196   0.00071   0.00157
           A5           0.00584  -0.00045  -0.00019   0.00014   0.00011
           A6          -0.00000  -0.00000  -0.00000  -0.00000  -0.00000
           A7          -0.00002   0.00000  -0.00000  -0.00000  -0.00000
                          A1        A2        A3        A4        A5
           A1           0.15886
           A2           0.00067   0.00237
           A3           0.00000   0.00000   0.00230
           A4          -0.00060  -0.00046   0.00000   0.05905
           A5          -0.00069  -0.00010  -0.00000   0.00021   0.01432
           A6           0.00000  -0.00000  -0.00000   0.00000   0.00000
           A7           0.00000   0.00000   0.00000   0.00000  -0.00000
                          A6        A7
           A6           0.00396
           A7          -0.00000   0.01422
 ITU=  1 -1  1  0
 Use linear search instead of GDIIS.
     Eigenvalues ---    0.00230   0.00232   0.00396   0.01422   0.01429
     Eigenvalues ---    0.03230   0.05917   0.15901   0.36194   0.53112
     Eigenvalues ---    0.54097   1.14253
 RFO step:  Lambda=-1.73126247D-06 EMin= 2.29999995D-03
 Quartic linear search produced a step of -0.17155.
 Iteration  1 RMS(Cart)=  0.01093030 RMS(Int)=  0.00006571
 Iteration  2 RMS(Cart)=  0.00010569 RMS(Int)=  0.00000000
 Iteration  3 RMS(Cart)=  0.00000000 RMS(Int)=  0.00000000
 Variable       Old X    -DE/DX   Delta X   Delta X   Delta X     New X
                                 (Linear)    (Quad)   (Total)
    R1        2.20098   0.00112   0.00074   0.00001   0.00074   2.20173
    R2        2.01380  -0.00017  -0.00019  -0.00021  -0.00040   2.01340
    R3        3.96627  -0.00015   0.00128  -0.00472  -0.00344   3.96283
    R4        1.82609  -0.00001   0.00006  -0.00009  -0.00003   1.82606
    R5        1.81517  -0.00005   0.00009  -0.00018  -0.00009   1.81508
    A1        1.81913  -0.00013  -0.00076   0.00015  -0.00060   1.81853
    A2        3.32024  -0.00005  -0.00184  -0.01594  -0.01778   3.30246
    A3        3.14160  -0.00000  -0.00001  -0.00003  -0.00003   3.14157
    A4        3.13907   0.00006  -0.00107   0.00217   0.00111   3.14017
    A5        3.23406   0.00004   0.00042   0.00174   0.00216   3.23621
    A6        3.14160  -0.00000   0.00000  -0.00000  -0.00000   3.14160
    A7        3.14162  -0.00000   0.00000  -0.00001  -0.00001   3.14161
         Item               Value     Threshold  Converged?
 Maximum Force            0.001122     0.000450     NO 
 RMS     Force            0.000334     0.000300     NO 
 Maximum Displacement     0.028355     0.001800     NO 
 RMS     Displacement     0.010929     0.001200     NO 
 Predicted change in Energy=-1.279264D-06
 GradGradGradGradGradGradGradGradGradGradGradGradGradGradGradGradGradGrad

                          Input orientation:                          
 ---------------------------------------------------------------------
 Center     Atomic      Atomic             Coordinates (Angstroms)
 Number     Number       Type             X           Y           Z
 ---------------------------------------------------------------------
      1          6           0       -2.022883   -0.047605    0.000007
      2          7           0       -0.865949    0.090125    0.000024
      3          1           0       -3.080679   -0.175057   -0.000010
      4          8           0        2.186465   -0.130683   -0.000002
      5          1           0        1.229208    0.001287    0.000013
      6          1           0        2.546950    0.759603    0.000001
 ---------------------------------------------------------------------
                    Distance matrix (angstroms):
                    1          2          3          4          5
     1  C    0.000000
     2  N    1.165103   0.000000
     3  H    1.065447   2.230549   0.000000
     4  O    4.210168   3.060391   5.267332   0.000000
     5  H    3.252458   2.097039   4.313493   0.966312   0.000000
     6  H    4.640578   3.477943   5.704718   0.960500   1.520359
                    6
     6  H    0.000000
 Stoichiometry    CH3NO
 Framework group  C1[X(CH3NO)]
 Deg. of freedom    12
 Full point group                 C1      NOp   1
 Largest Abelian subgroup         C1      NOp   1
 Largest concise Abelian subgroup C1      NOp   1
                         Standard orientation:                         
 ---------------------------------------------------------------------
 Center     Atomic      Atomic             Coordinates (Angstroms)
 Number     Number       Type             X           Y           Z
 ---------------------------------------------------------------------
      1          6           0       -2.022499   -0.037561   -0.000001
      2          7           0       -0.865210    0.097150    0.000016
      3          1           0       -3.080624   -0.162252   -0.000018
      4          8           0        2.186619   -0.131624   -0.000010
      5          1           0        1.229708    0.002843    0.000005
      6          1           0        2.549426    0.757719   -0.000007
 ---------------------------------------------------------------------
 Rotational constants (GHZ):         513.0312634           3.2878440           3.2669075
 Standard basis: Aug-CC-pVTZ (5D, 7F)
 There are   240 symmetry adapted cartesian basis functions of A   symmetry.
 There are   207 symmetry adapted basis functions of A   symmetry.
   207 basis functions,   297 primitive gaussians,   240 cartesian basis functions
    12 alpha electrons       12 beta electrons
       nuclear repulsion energy        54.0804631462 Hartrees.
 NAtoms=    6 NActive=    6 NUniq=    6 SFac= 1.00D+00 NAtFMM=   60 NAOKFM=F Big=F
 Integral buffers will be    131072 words long.
 Raffenetti 1 integral format.
 Two-electron integral symmetry is turned on.
 One-electron integrals computed using PRISM.
 NBasis=   207 RedAO= T EigKep=  6.17D-05  NBF=   207
 NBsUse=   207 1.00D-06 EigRej= -1.00D+00 NBFU=   207
 Initial guess from the checkpoint file:  "/gscratch/scrubbed/gds001/Gau-28471.chk"
 B after Tr=     0.000000    0.000000   -0.000000
         Rot=    1.000000   -0.000012   -0.000001   -0.000008 Ang=  -0.00 deg.
 ExpMin= 2.53D-02 ExpMax= 1.53D+04 ExpMxC= 5.22D+02 IAcc=3 IRadAn=         5 AccDes= 0.00D+00
 Harris functional with IExCor=  205 and IRadAn=       5 diagonalized for initial guess.
 HarFok:  IExCor=  205 AccDes= 0.00D+00 IRadAn=         5 IDoV= 1 UseB2=F ITyADJ=14
 ICtDFT=  3500011 ScaDFX=  1.000000  1.000000  1.000000  1.000000
 FoFCou: FMM=F IPFlag=           0 FMFlag=      100000 FMFlg1=           0
         NFxFlg=           0 DoJE=T BraDBF=F KetDBF=T FulRan=T
         wScrn=  0.000000 ICntrl=       500 IOpCl=  0 I1Cent=   200000004 NGrid=           0
         NMat0=    1 NMatS0=      1 NMatT0=    0 NMatD0=    1 NMtDS0=    0 NMtDT0=    0
 Petite list used in FoFCou.
 Keep R1 ints in memory in canonical form, NReq=245599945.
 Requested convergence on RMS density matrix=1.00D-08 within 128 cycles.
 Requested convergence on MAX density matrix=1.00D-06.
 Requested convergence on             energy=1.00D-06.
 No special actions if energy rises.
 SCF Done:  E(RHF) =  -168.971313828     A.U. after    8 cycles
            NFock=  8  Conv=0.96D-08     -V/T= 2.0024
 ExpMin= 2.53D-02 ExpMax= 1.53D+04 ExpMxC= 5.22D+02 IAcc=3 IRadAn=         5 AccDes= 0.00D+00
 HarFok:  IExCor=  205 AccDes= 0.00D+00 IRadAn=         5 IDoV=-2 UseB2=F ITyADJ=14
 ICtDFT= 12500011 ScaDFX=  1.000000  1.000000  1.000000  1.000000
 Range of M.O.s used for correlation:     4   207
 NBasis=   207 NAE=    12 NBE=    12 NFC=     3 NFV=     0
 NROrb=    204 NOA=     9 NOB=     9 NVA=   195 NVB=   195

 **** Warning!!: The largest alpha MO coefficient is  0.41359512D+02

 Fully direct method using O(ONN) memory.
 JobTyp=1 Pass  1:  I=   4 to  12 NPSUse= 28 ParTrn=T ParDer=T DoDerP=T.
 Spin components of T(2) and E(2):
     alpha-alpha T2 =       0.2426920811D-01 E2=     -0.7644229155D-01
     alpha-beta  T2 =       0.1398676781D+00 E2=     -0.4715485697D+00
     beta-beta   T2 =       0.2426920811D-01 E2=     -0.7644229155D-01
 ANorm=    0.1090140401D+01
 E2 =    -0.6244331528D+00 EUMP2 =    -0.16959574698076D+03
          IDoAtm=111111
          Differentiating once with respect to electric field.
                with respect to dipole field.
          Differentiating once with respect to nuclear coordinates.
 Keep R1 ints in memory in canonical form, NReq=245605104.
          There are     1 degrees of freedom in the 1st order CPHF.  IDoFFX=0 NUNeed=     1.
 LinEq1:  Iter=  0 NonCon=     1 RMS=3.81D-03 Max=4.63D-02 NDo=     1
 AX will form     1 AO Fock derivatives at one time.
 LinEq1:  Iter=  1 NonCon=     1 RMS=8.38D-04 Max=1.15D-02 NDo=     1
 LinEq1:  Iter=  2 NonCon=     1 RMS=2.10D-04 Max=2.78D-03 NDo=     1
 LinEq1:  Iter=  3 NonCon=     1 RMS=8.42D-05 Max=1.43D-03 NDo=     1
 LinEq1:  Iter=  4 NonCon=     1 RMS=3.47D-05 Max=3.13D-04 NDo=     1
 LinEq1:  Iter=  5 NonCon=     1 RMS=7.22D-06 Max=6.60D-05 NDo=     1
 LinEq1:  Iter=  6 NonCon=     1 RMS=3.33D-06 Max=4.29D-05 NDo=     1
 LinEq1:  Iter=  7 NonCon=     1 RMS=7.18D-07 Max=8.10D-06 NDo=     1
 LinEq1:  Iter=  8 NonCon=     1 RMS=1.64D-07 Max=2.53D-06 NDo=     1
 LinEq1:  Iter=  9 NonCon=     1 RMS=3.84D-08 Max=4.72D-07 NDo=     1
 LinEq1:  Iter= 10 NonCon=     1 RMS=8.88D-09 Max=9.48D-08 NDo=     1
 LinEq1:  Iter= 11 NonCon=     1 RMS=1.49D-09 Max=1.65D-08 NDo=     1
 LinEq1:  Iter= 12 NonCon=     1 RMS=2.29D-10 Max=1.67D-09 NDo=     1
 LinEq1:  Iter= 13 NonCon=     0 RMS=4.25D-11 Max=6.07D-10 NDo=     1
 Linear equations converged to 1.000D-10 1.000D-09 after    13 iterations.
 End of Minotr F.D. properties file   721 does not exist.
 End of Minotr F.D. properties file   722 does not exist.
 End of Minotr F.D. properties file   788 does not exist.
 Calling FoFJK, ICntrl=  10002127 FMM=F ISym2X=0 I1Cent= 0 IOpClX= 0 NMat=1 NMatS=1 NMatT=0.
 ***** Axes restored to original set *****
 -------------------------------------------------------------------
 Center     Atomic                   Forces (Hartrees/Bohr)
 Number     Number              X              Y              Z
 -------------------------------------------------------------------
      1        6          -0.000277985   -0.000025534   -0.000000046
      2        7           0.000406786    0.000046289    0.000000006
      3        1          -0.000003782   -0.000012817    0.000000035
      4        8           0.000046154   -0.000007852    0.000000009
      5        1          -0.000183257   -0.000015137   -0.000000011
      6        1           0.000012084    0.000015051    0.000000007
 -------------------------------------------------------------------
 Cartesian Forces:  Max     0.000406786 RMS     0.000125189

 GradGradGradGradGradGradGradGradGradGradGradGradGradGradGradGradGradGrad
 Berny optimization.
 Using GEDIIS/GDIIS optimizer.
 FormGI is forming the generalized inverse of G from B-inverse, IUseBI=4.
 Internal  Forces:  Max     0.000284323 RMS     0.000092282
 Search for a local minimum.
 Step number   5 out of a maximum of   22
 All quantities printed in internal units (Hartrees-Bohrs-Radians)
 Mixed Optimization -- En-DIIS/RFO-DIIS
 Swapping is turned off.
 Update second derivatives using D2CorX and points    1    3    2    4    5
 DE= -1.25D-06 DEPred=-1.28D-06 R= 9.79D-01
 TightC=F SS=  1.41D+00  RLast= 1.83D-02 DXNew= 2.5227D-01 5.4895D-02
 Trust test= 9.79D-01 RLast= 1.83D-02 DXMaxT set to 1.50D-01
 The second derivative matrix:
                          R1        R2        R3        R4        R5
           R1           1.02095
           R2           0.01155   0.36766
           R3           0.00368  -0.00519   0.02112
           R4          -0.01325   0.00539  -0.00227   0.53594
           R5          -0.01208   0.00391  -0.00673   0.00200   0.54412
           A1           0.01552   0.00220   0.00230   0.00382   0.00450
           A2          -0.00595   0.00283  -0.00187   0.00235   0.00170
           A3          -0.00001   0.00000  -0.00000   0.00000   0.00000
           A4          -0.00973   0.00125   0.00628  -0.00191   0.00038
           A5           0.00362  -0.00195   0.00148  -0.00149  -0.00100
           A6           0.00000  -0.00000  -0.00000  -0.00000  -0.00000
           A7          -0.00000   0.00000  -0.00001   0.00000  -0.00000
                          A1        A2        A3        A4        A5
           A1           0.15861
           A2           0.00214   0.00442
           A3           0.00000   0.00000   0.00230
           A4          -0.00105  -0.00268  -0.00000   0.06073
           A5          -0.00147  -0.00129  -0.00000   0.00139   0.01500
           A6          -0.00000  -0.00000  -0.00000   0.00000   0.00000
           A7           0.00000   0.00000   0.00000   0.00000  -0.00000
                          A6        A7
           A6           0.00396
           A7          -0.00000   0.01422
 ITU=  1  1 -1  1  0
     Eigenvalues ---    0.00230   0.00395   0.00396   0.01422   0.01467
     Eigenvalues ---    0.02034   0.06181   0.15831   0.36730   0.53543
     Eigenvalues ---    0.54448   1.02225
 En-DIIS/RFO-DIIS/Sim-DIIS IScMMF=       -3 using points:     5    4
 RFO step:  Lambda=-1.00852008D-06.
 DidBck=T Rises=F RFO-DIIS coefs:    0.72104    0.27896
 Iteration  1 RMS(Cart)=  0.00429561 RMS(Int)=  0.00000755
 Iteration  2 RMS(Cart)=  0.00001220 RMS(Int)=  0.00000000
 Iteration  3 RMS(Cart)=  0.00000000 RMS(Int)=  0.00000000
 Variable       Old X    -DE/DX   Delta X   Delta X   Delta X     New X
                                 (Linear)    (Quad)   (Total)
    R1        2.20173   0.00028  -0.00021   0.00055   0.00034   2.20207
    R2        2.01340   0.00001   0.00011  -0.00024  -0.00013   2.01328
    R3        3.96283  -0.00012   0.00096  -0.00653  -0.00558   3.95725
    R4        1.82606   0.00006   0.00001   0.00006   0.00007   1.82613
    R5        1.81508   0.00002   0.00002  -0.00007  -0.00005   1.81503
    A1        1.81853   0.00001   0.00017  -0.00014   0.00003   1.81856
    A2        3.30246   0.00004   0.00496   0.00140   0.00636   3.30881
    A3        3.14157   0.00000   0.00001  -0.00000   0.00001   3.14158
    A4        3.14017  -0.00002  -0.00031   0.00082   0.00052   3.14069
    A5        3.23621  -0.00002  -0.00060   0.00039  -0.00021   3.23601
    A6        3.14160  -0.00000   0.00000  -0.00000  -0.00000   3.14160
    A7        3.14161  -0.00000   0.00000  -0.00001  -0.00000   3.14161
         Item               Value     Threshold  Converged?
 Maximum Force            0.000284     0.000450     YES
 RMS     Force            0.000092     0.000300     YES
 Maximum Displacement     0.009874     0.001800     NO 
 RMS     Displacement     0.004300     0.001200     NO 
 Predicted change in Energy=-5.042721D-07
 GradGradGradGradGradGradGradGradGradGradGradGradGradGradGradGradGradGrad

                          Input orientation:                          
 ---------------------------------------------------------------------
 Center     Atomic      Atomic             Coordinates (Angstroms)
 Number     Number       Type             X           Y           Z
 ---------------------------------------------------------------------
      1          6           0       -2.021348   -0.047243    0.000006
      2          7           0       -0.864821    0.095350    0.000017
      3          1           0       -3.078602   -0.178567   -0.000004
      4          8           0        2.184222   -0.131755    0.000000
      5          1           0        1.227191    0.002097    0.000010
      6          1           0        2.546469    0.757789    0.000004
 ---------------------------------------------------------------------
                    Distance matrix (angstroms):
                    1          2          3          4          5
     1  C    0.000000
     2  N    1.165284   0.000000
     3  H    1.065379   2.230663   0.000000
     4  O    4.206419   3.057489   5.263033   0.000000
     5  H    3.248913   2.094089   4.309582   0.966346   0.000000
     6  H    4.638214   3.475014   5.702472   0.960475   1.520383
                    6
     6  H    0.000000
 Stoichiometry    CH3NO
 Framework group  C1[X(CH3NO)]
 Deg. of freedom    12
 Full point group                 C1      NOp   1
 Largest Abelian subgroup         C1      NOp   1
 Largest concise Abelian subgroup C1      NOp   1
                         Standard orientation:                         
 ---------------------------------------------------------------------
 Center     Atomic      Atomic             Coordinates (Angstroms)
 Number     Number       Type             X           Y           Z
 ---------------------------------------------------------------------
      1          6           0       -2.020892   -0.039354   -0.000001
      2          7           0       -0.864072    0.100840    0.000010
      3          1           0       -3.078417   -0.168484   -0.000011
      4          8           0        2.184493   -0.132590   -0.000007
      5          1           0        1.227742    0.003247    0.000004
      6          1           0        2.548585    0.756200   -0.000003
 ---------------------------------------------------------------------
 Rotational constants (GHZ):         505.1417137           3.2937670           3.2724292
 Standard basis: Aug-CC-pVTZ (5D, 7F)
 There are   240 symmetry adapted cartesian basis functions of A   symmetry.
 There are   207 symmetry adapted basis functions of A   symmetry.
   207 basis functions,   297 primitive gaussians,   240 cartesian basis functions
    12 alpha electrons       12 beta electrons
       nuclear repulsion energy        54.0977230609 Hartrees.
 NAtoms=    6 NActive=    6 NUniq=    6 SFac= 1.00D+00 NAtFMM=   60 NAOKFM=F Big=F
 Integral buffers will be    131072 words long.
 Raffenetti 1 integral format.
 Two-electron integral symmetry is turned on.
 One-electron integrals computed using PRISM.
 NBasis=   207 RedAO= T EigKep=  6.16D-05  NBF=   207
 NBsUse=   207 1.00D-06 EigRej= -1.00D+00 NBFU=   207
 Initial guess from the checkpoint file:  "/gscratch/scrubbed/gds001/Gau-28471.chk"
 B after Tr=     0.000000   -0.000000    0.000000
         Rot=    1.000000    0.000004    0.000000    0.000019 Ang=   0.00 deg.
 Keep R1 ints in memory in canonical form, NReq=245600002.
 Requested convergence on RMS density matrix=1.00D-08 within 128 cycles.
 Requested convergence on MAX density matrix=1.00D-06.
 Requested convergence on             energy=1.00D-06.
 No special actions if energy rises.
 SCF Done:  E(RHF) =  -168.971262843     A.U. after    8 cycles
            NFock=  8  Conv=0.38D-08     -V/T= 2.0024
 ExpMin= 2.53D-02 ExpMax= 1.53D+04 ExpMxC= 5.22D+02 IAcc=3 IRadAn=         5 AccDes= 0.00D+00
 HarFok:  IExCor=  205 AccDes= 0.00D+00 IRadAn=         5 IDoV=-2 UseB2=F ITyADJ=14
 ICtDFT= 12500011 ScaDFX=  1.000000  1.000000  1.000000  1.000000
 Range of M.O.s used for correlation:     4   207
 NBasis=   207 NAE=    12 NBE=    12 NFC=     3 NFV=     0
 NROrb=    204 NOA=     9 NOB=     9 NVA=   195 NVB=   195

 **** Warning!!: The largest alpha MO coefficient is  0.41210457D+02

 Fully direct method using O(ONN) memory.
 JobTyp=1 Pass  1:  I=   4 to  12 NPSUse= 28 ParTrn=T ParDer=T DoDerP=T.
 Spin components of T(2) and E(2):
     alpha-alpha T2 =       0.2427542243D-01 E2=     -0.7645157360D-01
     alpha-beta  T2 =       0.1398937287D+00 E2=     -0.4715817084D+00
     beta-beta   T2 =       0.2427542243D-01 E2=     -0.7645157360D-01
 ANorm=    0.1090158050D+01
 E2 =    -0.6244848556D+00 EUMP2 =    -0.16959574769901D+03
          IDoAtm=111111
          Differentiating once with respect to electric field.
                with respect to dipole field.
          Differentiating once with respect to nuclear coordinates.
 Keep R1 ints in memory in canonical form, NReq=245605293.
          There are     1 degrees of freedom in the 1st order CPHF.  IDoFFX=0 NUNeed=     1.
 LinEq1:  Iter=  0 NonCon=     1 RMS=3.82D-03 Max=4.64D-02 NDo=     1
 AX will form     1 AO Fock derivatives at one time.
 LinEq1:  Iter=  1 NonCon=     1 RMS=8.38D-04 Max=1.15D-02 NDo=     1
 LinEq1:  Iter=  2 NonCon=     1 RMS=2.10D-04 Max=2.79D-03 NDo=     1
 LinEq1:  Iter=  3 NonCon=     1 RMS=8.45D-05 Max=1.44D-03 NDo=     1
 LinEq1:  Iter=  4 NonCon=     1 RMS=3.48D-05 Max=3.14D-04 NDo=     1
 LinEq1:  Iter=  5 NonCon=     1 RMS=7.21D-06 Max=6.63D-05 NDo=     1
 LinEq1:  Iter=  6 NonCon=     1 RMS=3.33D-06 Max=4.29D-05 NDo=     1
 LinEq1:  Iter=  7 NonCon=     1 RMS=7.23D-07 Max=8.28D-06 NDo=     1
 LinEq1:  Iter=  8 NonCon=     1 RMS=1.67D-07 Max=2.58D-06 NDo=     1
 LinEq1:  Iter=  9 NonCon=     1 RMS=3.88D-08 Max=4.68D-07 NDo=     1
 LinEq1:  Iter= 10 NonCon=     1 RMS=8.90D-09 Max=9.55D-08 NDo=     1
 LinEq1:  Iter= 11 NonCon=     1 RMS=1.49D-09 Max=1.65D-08 NDo=     1
 LinEq1:  Iter= 12 NonCon=     1 RMS=2.29D-10 Max=1.72D-09 NDo=     1
 LinEq1:  Iter= 13 NonCon=     0 RMS=4.26D-11 Max=6.12D-10 NDo=     1
 Linear equations converged to 1.000D-10 1.000D-09 after    13 iterations.
 End of Minotr F.D. properties file   721 does not exist.
 End of Minotr F.D. properties file   722 does not exist.
 End of Minotr F.D. properties file   788 does not exist.
 Calling FoFJK, ICntrl=  10002127 FMM=F ISym2X=0 I1Cent= 0 IOpClX= 0 NMat=1 NMatS=1 NMatT=0.
 ***** Axes restored to original set *****
 -------------------------------------------------------------------
 Center     Atomic                   Forces (Hartrees/Bohr)
 Number     Number              X              Y              Z
 -------------------------------------------------------------------
[...]
 016070,0.,0.00008935,0.00001490,-0.00000002,0.01829041,0.00691131,0.00
 000015,-0.02540648,-0.00001925,-0.00016028,0.,0.00000936,0.00033757,-0
 .00000004,-0.00004118,-0.00000466,0.,-0.00424236,0.00542022,-0.0000003
 9,-0.00580034,-0.00593233,-0.00000006,0.,-0.00034602,0.,-0.00000007,0.
 00049946,0.00000002,0.,-0.00002708,-0.00000013,0.00000012,-0.01011922,
 -0.00000020,0.00000003,0.01497010,-0.00005704,0.00003634,0.,0.00007498
 ,-0.00020794,-0.00000002,-0.00001779,0.00001423,0.,0.02107339,0.133532
 07,0.00000013,0.00714821,0.01009378,0.00000038,-0.02822174,-0.00010841
 ,-0.00001604,0.,-0.00000463,0.00005169,0.00000002,0.00001906,0.0000028
 0,0.,0.14474435,0.30102942,0.00000234,-0.00118189,0.00033948,-0.000000
 08,-0.14346848,-0.30140735,0.,0.,-0.00009497,0.00000002,0.,0.00020031,
 0.,0.,-0.00001432,0.00000041,0.00000188,-0.12262898,0.00000007,0.00000
 039,-0.00497725,-0.00000050,-0.00000227,0.12751521,-0.00958581,-0.0014
 7694,0.00225384,-0.00000128,-0.00000012,0.00041872,0.00797807,0.001215
 84,0.00000190,-0.00344682,0.00114603,-0.00154301,0.00000020,-0.0013062
 2,0.00128772,0.00000092,0.00000006,-0.00026716,-0.00000156,-0.00000014
 ,0.00010198,0.00169381,0.00032223,-0.00000067,-0.00037806,-0.00005155,
 0.00000072,-0.00134903,0.00021158,-0.00071325,-0.00000008,0.00003888,-
 0.00005492,0.00000010,-0.00024597,0.00075704,0.00000044,0.00000006,-0.
 00014576,-0.00000036,-0.00000005,-0.00010377,-0.00000007,-0.00000001,0
 .00023280,-0.00042828,-0.00001441,0.00000002,-0.00196536,0.00001733,-0
 .00000005,0.00003064,0.00000778,0.00000001,-0.00064873,-0.00003015,-0.
 00001555,0.,-0.00001259,0.00046955,0.,-0.00000809,-0.00002952,0.,-0.00
 039702,-0.00115799,-0.00000002,0.,0.00000236,0.,0.00000006,0.00034633,
 0.,0.,-0.00002228,0.00000012,-0.00000015,0.00038282,0.00038078,-0.0000
 3630,0.00000002,-0.00197488,0.00007727,-0.00000001,0.00001621,-0.00000
 297,-0.00000002,0.00312040,0.00008478,0.00000018,-0.00190458,0.0001484
 4,0.00002256,0.,0.00004447,-0.00016506,-0.00000005,-0.00003116,0.00003
 857,0.,-0.00033884,-0.00043840,-0.00000047,0.00011233,0.00054571,-0.00
 000006,0.,-0.00000409,0.,-0.00000007,-0.00014021,0.00000002,0.,0.00004
 253,-0.00000005,0.00000007,-0.00038304,-0.00000027,0.00000010,0.000490
 34,-0.00003865,-0.00001042,0.,-0.00021296,0.00011715,-0.00000002,-0.00
 001349,-0.00000931,0.,-0.00010867,0.00036307,-0.00000028,0.00036208,0.
 00006474,0.00000036,0.00001168,0.00000104,-0.00000458,0.,0.00001961,0.
 00000570,0.00000002,0.00001454,0.00000207,0.,0.00072514,0.00117192,0.0
 0000057,-0.00023512,-0.00000339,-0.00000011,-0.00052523,-0.00117172,0.
 ,0.,-0.00000408,0.00000002,0.,0.00006282,0.,0.,-0.00000350,-0.00000005
 ,0.00000007,-0.00032619,0.00000010,0.00000040,-0.00000553,-0.00000007,
 -0.00000047,0.00027647,-0.01199065,-0.00057794,0.00228831,-0.00000126,
 -0.00000014,-0.00012441,0.01153974,0.00064860,0.00000189,-0.01261397,-
 0.00004952,-0.00121261,0.00000021,-0.00115711,-0.00125665,0.00000091,0
 .00000008,0.00042319,-0.00000155,-0.00000016,-0.00112350,0.00152038,0.
 00036361,-0.00000067,-0.00003324,-0.00002149,0.00000072,-0.00133618,-0
 .00006192,-0.00082582,-0.00000008,0.00031874,0.00034622,0.00000010,-0.
 00021654,0.00073733,0.00000043,0.00000007,-0.00019446,-0.00000036,-0.0
 0000004,0.00004337,-0.00000007,-0.00000002,0.00021302,-0.00049917,-0.0
 0009441,0.00000002,-0.00116520,0.00018902,-0.00000005,-0.00002662,0.00
 001667,0.00000001,-0.44929507,-0.00007123,0.00015230,0.,-0.00013153,-0
 .00198976,0.,0.00004104,0.00023026,0.,-0.23914264,-0.43633798,-0.00000
 002,0.,0.00002565,0.00000001,0.00000005,-0.00047251,0.,0.,0.00007865,0
 .00000055,-0.00000260,0.14115983,-0.00139069,-0.00044594,0.00000002,0.
 00186584,0.00156328,0.,0.00014964,-0.00011850,-0.00000002,0.54160570,-
 0.08628214,-0.00000161,-0.55985232,0.00059656,-0.00042322,0.,-0.000337
 63,0.00362377,-0.00000004,-0.00039310,-0.00047584,0.,-0.10844682,-0.15
 538680,-0.00000072,0.07917336,0.16003932,-0.00000006,0.,-0.00012994,-0
 .00000001,-0.00000006,0.00113795,0.00000002,0.,-0.00012776,-0.00000195
 ,-0.00000027,-0.05841373,0.00000154,0.00000043,0.06267901,0.00082041,0
 .00010610,0.,0.00040684,-0.00052418,-0.00000002,-0.00027398,0.00006153
 ,0.,-0.09061964,0.32558651,0.00000107,0.01762182,0.02940764,0.00000046
 ,0.07204455,0.00016407,0.00002106,0.,0.00065893,0.00048902,0.00000002,
 0.00022648,-0.00001216,0.,0.34747819,0.59333197,0.00000328,0.00610994,
 -0.00737724,-0.00000010,-0.35463760,-0.58645265,0.,0.,-0.00000003,0.00
 000002,0.,-0.00000851,0.,0.,-0.00001283,0.00000142,0.00000287,-0.08237
 791,0.00000008,0.00000032,-0.00514553,-0.00000152,-0.00000319,0.087544
 82,-0.00728403,0.00037834,-0.00159314,-0.00000128,-0.00000015,-0.00075
 891,0.01108098,0.00030680,0.00000193,-0.01091569,-0.00059020,0.0019885
 0,0.00000022,-0.00049874,-0.00442887,0.00000094,0.00000008,0.00162254,
 -0.00000157,-0.00000015,-0.00736913,-0.00021055,0.00005414,-0.00000068
 ,-0.00007333,-0.00011990,0.00000072,0.00024165,-0.00024788,-0.00023980
 ,-0.00000008,0.00019221,0.00047128,0.00000009,0.00009730,-0.00000511,0
 .00000043,0.00000007,-0.00030794,-0.00000037,-0.00000005,0.00081695,-0
 .00000006,-0.00000002,0.00009969,-0.00134160,-0.00035323,0.,-0.0034420
 2,-0.00008872,-0.00000005,-0.00019357,0.00012866,0.00000002,-1.3528687
 5,0.00006313,-0.00012859,0.,0.00010895,0.00034374,0.00000002,0.0000216
 2,0.00001690,0.,0.23317066,0.09658055,-0.00000003,0.,0.00001658,0.0000
 0003,0.00000006,-0.00158902,0.00000001,0.,0.00051455,0.00000528,-0.000
 00256,0.48558518,-0.00213548,-0.00031113,0.00000002,0.00353905,0.00096
 104,-0.00000004,0.00024358,-0.00013559,-0.00000002,1.31994847,-0.19301
 038,-0.00000466,-1.32639637,0.00045210,-0.00005323,0.00000001,-0.00019
 929,0.00182542,-0.00000006,-0.00020931,-0.00027240,0.,-0.23536867,-0.0
 9329355,0.00000185,0.19958396,0.09203267,-0.00000006,0.,-0.00060534,-0
 .00000004,-0.00000008,0.00622249,0.,0.,-0.00107813,-0.00000508,0.00000
 229,-0.46096405,0.00000465,-0.00000214,0.46010908,-0.00010936,-0.00007
 491,0.,-0.00018900,0.00033652,-0.00000001,-0.00000774,-0.00003471,0.,0
 .03789745,-0.04035398,-0.00000063,0.00480077,0.03574121,0.00000053,-0.
 04239211,-0.00005549,0.00002627,0.,0.00009006,-0.00020009,0.00000001,0
 .00015616,0.00002913,0.,0.00251131,-0.00351906,0.00000065,-0.00708790,
 -0.00023891,-0.00000008,0.00438587,0.00390267,0.,0.,0.00003308,0.00000
 002,0.,0.00029615,0.,0.,-0.00004513,-0.00000019,0.00000025,-0.02356325
 ,0.00000005,0.00000033,-0.00368405,0.00000011,-0.00000058,0.02696320,-
 0.86297081,-0.11662192,0.05575802,-0.00000236,-0.00000071,0.23828892,0
 .09077224,0.00968962,0.00000193,-0.05820736,0.00921221,0.01377876,0.00
 000026,-0.00567926,-0.01114425,0.00000098,0.00000013,0.00668561,-0.000
 00160,-0.00000024,0.00446088,0.77241888,0.10704728,0.00000038,-0.03272
 671,-0.00357305,0.00000070,-0.73957905,0.10717112,-0.06969744,0.000000
 43,-0.00390282,-0.00258855,0.00000014,-0.10332631,0.07236760,0.0000014
 5,0.00000060,-0.24578573,-0.00000035,-0.00000004,-0.01049246,-0.000001
 10,-0.00000056,0.25652704,0.00064325,-0.00004677,0.00000002,-0.0008096
 3,-0.00009098,-0.00000005,0.00002656,0.00016008,0.00000002,-0.00100131
 ,-0.00017192,-0.00030559,0.,0.00017988,0.00018445,0.,0.00003447,0.0001
 0112,0.,0.00014751,0.00013949,-0.00000002,-0.00000001,-0.00059891,0.,0
 .00000006,0.00017764,0.,0.,0.00034495,0.00000012,-0.00000014,0.0001741
 9,-0.00089822,-0.00009175,0.00000002,0.00097243,0.00020085,-0.00000001
 ,-0.00010674,-0.00012673,-0.00000002,0.00099905,-0.00017745,0.00000018
 ,-0.00090291,0.00052783,0.00033779,0.00000002,-0.00032375,-0.00007594,
 -0.00000006,-0.00022015,-0.00020357,0.00000001,-0.00019684,-0.00004111
 ,-0.00000047,0.00013017,-0.00009051,-0.00000006,-0.00000002,0.00153990
 ,0.,-0.00000003,-0.00093612,0.00000002,0.,-0.00066269,-0.00000005,0.00
 000007,-0.00005828,-0.00000027,0.00000010,0.00017880,0.00003461,0.0000
 2354,0.,-0.00000097,-0.00006977,-0.00000002,-0.00003290,0.00002467,0.,
 0.00014208,-0.00001249,-0.00000029,-0.00006361,0.00008274,0.00000036,-
 0.00007921,-0.00011732,0.00012846,0.,0.00003633,-0.00015449,0.00000002
 ,0.00003776,0.00002083,0.,0.00002700,-0.00007837,0.00000056,0.00006492
 ,0.00007333,-0.00000011,-0.00004869,0.00001023,0.,0.00000001,-0.000129
 79,0.00000002,-0.00000002,0.00010443,0.,0.,0.00006890,-0.00000005,0.00
 000006,-0.00003959,0.00000010,0.00000040,-0.00006161,-0.00000007,-0.00
 000046,0.00005766,-0.86088256,-0.13818948,0.22113035,-0.00000238,0.000
 00011,0.07236548,0.09152890,0.01106058,0.00000198,-0.05889244,0.010292
 69,0.00818000,0.00000021,-0.00791504,0.00300297,0.00000101,0.00000008,
 0.01084057,-0.00000161,-0.00000013,-0.00930822,0.76954586,0.12730568,0
 .00000036,-0.03285639,-0.00240347,0.00000068,-0.73648929,0.12766397,-0
 .22953417,-0.00000033,-0.00309523,-0.01117599,0.00000008,-0.12468378,0
 .24091592,0.00000145,-0.00000018,-0.08332337,-0.00000039,-0.00000007,-
 0.00151433,-0.00000106,0.00000025,0.08491201,0.00071119,-0.00036785,0.
 00000002,-0.00088758,0.00019677,-0.00000005,0.00004587,0.00016972,0.00
 000002,-0.00039882,-0.00006372,-0.00100105,0.,-0.00008978,0.00059369,0
 .,0.00018170,0.00039954,0.,0.00009805,0.00000505,-0.00000002,0.0000000
 1,-0.00025984,0.00000001,0.00000004,0.00003198,0.,0.,0.00017682,0.0000
 0012,-0.00000014,0.00011005,-0.00098176,0.00044841,0.00000002,0.001162
 86,-0.00026858,0.,-0.00021477,-0.00018872,-0.00000002,0.00043441,-0.00
 006721,0.00000019,-0.00036453,0.00040455,0.00102615,0.00000002,-0.0000
 7325,-0.00037506,-0.00000005,-0.00038536,-0.00061726,0.,-0.00013211,0.
 00002762,-0.00000047,0.00003747,-0.00013348,-0.00000006,0.,0.00034006,
 0.,-0.00000005,-0.00004896,0.00000002,0.,-0.00023313,-0.00000004,0.000
 00007,-0.00002510,-0.00000027,0.00000011,-0.00000098,0.00007834,-0.000
 25733,0.,-0.00005537,0.00009763,-0.00000002,-0.00003125,0.00013404,0.,
 0.00009492,-0.00005904,-0.00000029,-0.00003619,0.00014869,0.00000036,-
 0.00005045,-0.00010801,0.00019873,0.,0.00011272,-0.00022563,0.00000002
 ,-0.00001477,0.00001194,0.,0.00003543,-0.00002487,0.00000056,0.0000386
 3,0.00007202,-0.00000011,-0.00006399,-0.00003218,0.,0.,0.00003710,0.00
 000001,0.,-0.00000105,0.,0.,-0.00001800,-0.00000005,0.00000007,-0.0000
 3389,0.00000010,0.00000040,-0.00003188,-0.00000007,-0.00000046,0.00004
 771,-0.00092515,0.00010670,-0.00123805,-0.00000125,-0.00000014,-0.0014
 1962,0.00274596,0.00016615,0.00000188,-0.00393850,0.00014123,0.0016717
 7,0.00000021,0.00015040,-0.00491441,0.00000090,0.00000007,0.00154568,-
 0.00000153,-0.00000016,-0.00242217,-0.00049899,-0.00002834,-0.00000067
 ,0.00001850,-0.00007917,0.00000072,0.00060660,-0.00012621,-0.00013685,
 -0.00000008,-0.00000830,0.00045043,0.00000010,0.00009668,-0.00000236,0
 .00000043,0.00000007,0.00002043,-0.00000036,-0.00000004,0.00012462,-0.
 00000007,-0.00000002,-0.00005677,-0.00206779,-0.00041343,0.00000001,-0
 .00296290,0.00151051,-0.00000004,0.00004441,-0.00010330,0.00000001,-0.
 60848374,-0.00068255,-0.00030118,0.,-0.00162117,0.00124122,0.00000002,
 0.00015190,-0.00010845,0.,0.12771089,-0.61665844,-0.00000002,0.,-0.000
 01000,0.,0.00000006,-0.00032511,0.,0.,0.00005034,0.00000215,-0.0000036
 7,0.02295074,-0.00015078,0.00005726,0.00000002,0.00408356,-0.00181611,
 -0.00000002,-0.00010126,0.00015071,-0.00000002,0.65912089,-0.16748033,
 -0.00000218,-0.63649136,0.00012355,-0.00009176,0.,0.00040899,0.0021987
 0,-0.00000004,-0.00009471,-0.00028528,0.,-0.32164873,-0.00151000,0.000
 00033,0.22725040,0.04098145,-0.00000006,0.,-0.00012529,-0.00000001,-0.
 00000006,0.00097246,0.00000002,0.,-0.00014002,-0.00000316,0.00000053,-
 0.01684012,0.00000234,-0.00000027,0.01524056,0.00089672,0.00011165,0.,
 0.00005336,0.00009315,-0.00000002,-0.00006923,-0.00000959,0.,-0.045650
 88,0.04192126,0.00000004,-0.02646104,0.09396049,0.00000089,0.07123107,
 0.00043728,0.00009607,0.,0.00090392,-0.00064773,0.00000002,-0.00004636
 ,0.00008249,0.,0.19294406,0.61733684,0.00000328,-0.05816194,-0.0412931
 2,-0.00000020,-0.13607696,-0.57557456,0.,0.,-0.00001119,0.00000002,0.,
 0.00010453,0.,0.,0.00000140,0.00000103,0.00000313,-0.00582585,-0.00000
 014,-0.00000003,0.00089241,-0.00000092,-0.00000309,0.00483871,1.632769
 91,0.24126817,-0.27631935,0.00000183,0.00000025,-0.30626427,-1.5632178
 1,-0.23207155,-0.00000111,1.56342080,-0.23204463,0.27303105,-0.0000001
 6,0.23252403,-0.27970779,-0.00000208,-0.00000030,0.30191022,0.00000145
 ,0.00000022,-0.30873040,-0.06947778,-0.00917362,-0.00000076,0.00103196
 ,-0.00066741,0.00000071,0.06829154,-0.00924443,0.00323761,-0.00000009,
 -0.00064459,0.00641536,0.00000010,0.00987018,-0.00964202,0.00000033,0.
 00000005,0.00434699,-0.00000036,-0.00000005,0.00648951,0.00000003,0.,-
 0.01084208,-0.00040803,-0.00008057,0.00000002,0.00004221,0.00007389,-0
 .00000005,0.00000377,0.00001737,0.00000001,-0.00047658,-0.00002961,-0.
 00006215,0.,0.00018075,0.00000037,0.,-0.00003933,-0.00001099,0.,0.0001
 2666,0.00022031,-0.00000002,0.,-0.00008634,0.,0.00000006,-0.00000307,0
 .,0.,0.00001891,0.00000012,-0.00000014,0.00006382,0.00027101,0.0000504
 9,0.00000002,-0.00120594,0.00015247,-0.00000001,0.00014826,0.00001186,
 -0.00000002,0.00069312,-0.00021471,0.00000018,0.00016302,-0.00001507,0
 .00010639,0.,0.00020554,0.00026494,-0.00000005,-0.00004099,-0.00000870
 ,0.,-0.00015880,0.00008632,-0.00000047,-0.00011143,-0.00054005,-0.0000
 0006,0.,0.00007268,0.,-0.00000007,0.00033702,0.00000002,0.,-0.00001021
 ,-0.00000004,0.00000007,0.00003527,-0.00000027,0.00000010,-0.00042180,
 0.00006265,0.00000708,0.,-0.00007125,-0.00003834,-0.00000002,0.0000022
 9,-0.00001039,0.,0.00014551,-0.00002376,-0.00000029,-0.00006947,0.0001
 2076,0.00000036,-0.00006974,0.00006558,0.00000645,0.,-0.00019418,-0.00
 000395,0.00000002,0.00005118,0.00000873,0.,0.00002146,-0.00023386,0.00
 000056,0.00011132,0.00009109,-0.00000011,-0.00005535,0.00013154,0.,0.,
 0.00002071,0.00000001,0.,-0.00000329,0.,0.,-0.00000312,-0.00000005,0.0
 0000006,-0.00002858,0.00000010,0.00000040,-0.00001297,-0.00000007,-0.0
 0000046,0.00002724,3.85140779,0.59260824,-0.76476543,0.00000421,0.0000
 0055,-0.83936417,-0.18671076,-0.02625862,0.00000151,0.18939381,-0.0335
 1012,0.02083439,0.00000015,0.02858393,-0.03192523,0.00000045,0.0000000
 2,0.02486282,-0.00000115,-0.00000010,-0.03543002,-3.66334386,-0.565725
 76,-0.00000576,-0.00238954,0.00492539,0.00000078,3.66392847,-0.5617829
 4,0.74391777,-0.00000072,-0.00201879,0.01122967,0.00000010,0.56323842,
 -0.75515335,-0.00000461,-0.00000057,0.81481601,-0.00000038,-0.00000004
 ,0.01059350,0.00000499,0.00000062,-0.82570609,-0.00090702,-0.00005136,
 0.00000002,0.00001186,-0.00038944,-0.00000006,0.00098510,0.00027934,0.
 00000002,0.00056231,0.00020729,0.00015334,0.,0.00003031,-0.00004409,0.
 ,-0.00033330,-0.00015135,0.,0.00008650,0.00016090,-0.00000002,0.,0.000
 16832,0.,0.00000006,-0.00033493,0.,0.,0.00002747,0.00000012,-0.0000001
 4,0.00021387,-0.00075345,-0.00064845,0.00000001,-0.00030383,0.00039801
 ,0.,0.00107971,0.00038322,-0.00000002,-0.00073212,0.00010718,0.0000001
 9,0.00085328,0.00298867,-0.00001130,0.00000002,-0.00022333,-0.00014309
 ,-0.00000005,-0.00270119,0.00006770,0.,0.00004469,0.00004255,-0.000000
 47,-0.00024201,-0.00002876,-0.00000004,0.,-0.00039554,0.,-0.00000007,0
 .00034360,0.,0.,0.00014520,-0.00000004,0.00000007,-0.00005937,-0.00000
 028,0.00000011,0.00007979,0.00030729,0.00007596,0.,-0.00000155,-0.0000
 0777,-0.00000002,-0.00025989,-0.00009925,0.,0.00007985,-0.00009798,-0.
 00000029,-0.00014358,0.00013316,0.00000036,0.00001787,-0.00051114,-0.0
 0012875,0.,-0.00011350,0.00004833,0.00000002,0.00059643,0.00008955,0.,
 0.00003027,-0.00016135,0.00000056,0.00000206,0.00007289,-0.00000011,-0
 .00000412,0.00007933,0.,0.,-0.00008745,0.00000001,0.,-0.00003497,0.,0.
 ,0.00012392,-0.00000005,0.00000007,-0.00001535,0.00000010,0.00000040,-
 0.00011369,-0.00000007,-0.00000046,0.00012754,-0.00189479,-0.00127879,
 0.00053961,-0.00000126,-0.00000014,0.00077719,-0.00368795,0.00067731,0
 .00000188,0.00196347,0.00201362,-0.00063586,0.00000021,-0.00022397,0.0
 0450380,0.00000090,0.00000007,-0.00094433,-0.00000154,-0.00000015,0.00
 488584,-0.00127063,0.00005094,-0.00000067,0.00014955,0.00000773,0.0000
 0072,0.00127894,0.00005622,0.00041302,-0.00000008,-0.00018577,-0.00065
 685,0.00000010,0.00006247,-0.00013499,0.00000043,0.00000007,0.00045032
 ,-0.00000036,-0.00000005,-0.00065522,-0.00000006,-0.00000002,-0.000192
 37,-0.00065805,0.00003399,0.00000002,-0.01306722,0.00081449,-0.0000000
 4,-0.00009133,-0.00010192,0.00000001,5.33217399,-0.00035279,-0.0001678
 4,0.,-0.00106213,0.00168014,0.,0.00004811,-0.00013428,0.,-0.50297727,-
 0.10174145,-0.00000003,0.,0.00009464,0.00000005,0.00000006,0.00105800,
 0.,0.,-0.00015086,-0.00001719,0.00000719,-1.33246568,0.00750066,0.0005
 4811,0.00000003,0.01624188,-0.00279019,-0.00000002,-0.00010581,0.00015
 815,-0.00000002,-5.30539771,0.91322484,0.00001905,5.28591102,-0.000730
 49,-0.00017910,0.,-0.00103456,-0.00442782,-0.00000004,-0.00024273,0.00
 042766,0.,0.98361863,0.94411937,-0.00000361,-0.90644191,-0.93348528,-0
 .00000005,0.,-0.00039853,-0.00000006,-0.00000007,-0.00449053,0.0000000
 1,0.,0.00055199,0.00001922,-0.00000292,1.13420668,-0.00001919,0.000003
 26,-1.16023890,0.00001072,-0.00003157,0.,-0.00159977,0.00017832,-0.000
 00002,0.00003932,0.00001084,0.,-0.01295970,-0.40888076,-0.00000188,-0.
 00415003,-0.07516893,0.00000006,0.01865946,0.00029223,0.00003018,0.,0.
 00182911,-0.00046345,0.00000002,0.00007347,0.00008542,0.,-0.48138791,-
 0.84375594,-0.00000363,-0.00469901,-0.00645483,-0.00000029,0.48389211,
 0.85055862,0.,0.,0.00002069,0.00000003,0.,0.00014622,0.,0.,-0.00000386
 ,-0.00000202,-0.00000428,0.19725721,0.00000015,0.00000037,0.03036929,0
 .00000183,0.00000390,-0.22778955,-0.00020757,-0.00022097,0.00020458,-0
 .00000125,-0.00000014,0.00022132,-0.00055999,0.00014463,0.00000188,-0.
 00004525,0.00038902,-0.00014186,0.00000021,0.00010249,0.00159023,0.000
 00090,0.00000007,-0.00024921,-0.00000154,-0.00000015,0.00182753,-0.000
 67346,-0.00004507,-0.00000067,-0.00050875,-0.00010370,0.00000072,0.001
 09937,-0.00010296,-0.00003966,-0.00000008,-0.00017421,-0.00025254,0.00
 000010,0.00021057,0.00017769,0.00000043,0.00000007,0.00004591,-0.00000
 036,-0.00000005,-0.00025816,-0.00000006,-0.00000002,0.00008673,-0.0000
 0245,0.00009106,0.00000002,-0.00281980,-0.00066204,-0.00000005,0.00003
 423,-0.00000690,0.00000001,0.76601747,-0.00053151,-0.00003435,0.,-0.00
 082232,0.00056553,0.,-0.00003226,-0.00004486,0.,2.12532760,4.70786179,
 -0.00000003,0.,0.00005241,0.00000001,0.00000006,0.00047481,0.,0.,-0.00
 007546,0.00000582,0.00002640,-1.49250331,0.00217123,0.00020309,0.00000
 002,0.00475357,-0.00059868,-0.00000001,0.00005088,0.00013413,-0.000000
 02,-1.05322468,0.22784104,0.00000419,1.06073992,-0.00019631,-0.0000631
 0,0.,-0.00037821,-0.00113577,-0.00000004,-0.00006555,0.00004758,0.,0.2
 3544352,0.17797667,-0.00000131,-0.23693923,-0.20281297,-0.00000006,0.,
 -0.00009690,-0.00000002,-0.00000006,-0.00179497,0.00000002,0.,0.000170
 28,0.00000401,-0.00000075,0.24219648,-0.00000436,0.00000083,-0.2419828
 6,-0.00072777,-0.00017273,0.,-0.00081979,0.00087291,-0.00000001,-0.000
 00225,-0.00006064,0.,0.28999521,-2.35178255,-0.00001000,-0.01449090,0.
 00213578,0.00000041,-0.27395450,0.00066272,0.00007441,0.,0.00112762,-0
 .00062561,0.00000002,0.00003601,0.00011178,0.,-2.36019324,-4.88632479,
 -0.00002513,0.00935964,0.02598758,-0.00000001,2.34900724,4.86077663,0.
 ,0.,0.00002647,0.00000002,0.,-0.00000003,0.,0.,0.00003070,-0.00000981,
 -0.00002565,1.24985507,0.00000018,0.00000051,0.00150797,0.00000960,0.0
 0002514,-1.25142018\\@


 THIS CURIOUS WORLD WHICH WE INHABIT IS MORE WONDERFUL THAN IT IS CONVENIENT;
 MORE BEAUTIFUL THAN IT IS USEFUL;
 IT IS MORE TO BE ADMIRED THAN IT IS TO BE USED.

                                                                 -- THOREAU
 Job cpu time:       2 days  6 hours 18 minutes 35.5 seconds.
 Elapsed time:       0 days  1 hours 58 minutes 36.6 seconds.
 File lengths (MBytes):  RWF=   5536 Int=      0 D2E=      0 Chk=     52 Scr=      8
 Normal termination of Gaussian 16 at Mon Dec 20 14:16:01 2021.
