 Entering Gaussian System, Link 0=g16
 Input=h2o_nh3_mp2_avtz_opt_anharm.gjf
 Output=h2o_nh3_mp2_avtz_opt_anharm.log
 Initial command:
 /sw/contrib/gaussian/g16/A03/g16/l1.exe "/gscratch/scrubbed/gds001/Gau-3689.inp" -scrdir="/gscratch/scrubbed/gds001/"
 Entering Link 1 = /sw/contrib/gaussian/g16/A03/g16/l1.exe PID=      3690.
  
 Copyright (c) 1988,1990,1992,1993,1995,1998,2003,2009,2016,
            Gaussian, Inc.  All Rights Reserved.
  
 This is part of the Gaussian(R) 16 program.  It is based on
 the Gaussian(R) 09 system (copyright 2009, Gaussian, Inc.),
 the Gaussian(R) 03 system (copyright 2003, Gaussian, Inc.),
 the Gaussian(R) 98 system (copyright 1998, Gaussian, Inc.),
 the Gaussian(R) 94 system (copyright 1995, Gaussian, Inc.),
 the Gaussian 92(TM) system (copyright 1992, Gaussian, Inc.),
 the Gaussian 90(TM) system (copyright 1990, Gaussian, Inc.),
 the Gaussian 88(TM) system (copyright 1988, Gaussian, Inc.),
 the Gaussian 86(TM) system (copyright 1986, Carnegie Mellon
 University), and the Gaussian 82(TM) system (copyright 1983,
 Carnegie Mellon University). Gaussian is a federally registered
 trademark of Gaussian, Inc.
  
 This software contains proprietary and confidential information,
 including trade secrets, belonging to Gaussian, Inc.
  
 This software is provided under written license and may be
 used, copied, transmitted, or stored only in accord with that
 written license.
  
 The following legend is applicable only to US Government
 contracts under FAR:
  
                    RESTRICTED RIGHTS LEGEND
  
 Use, reproduction and disclosure by the US Government is
 subject to restrictions as set forth in subparagraphs (a)
 and (c) of the Commercial Computer Software - Restricted
 Rights clause in FAR 52.227-19.
  
 Gaussian, Inc.
 340 Quinnipiac St., Bldg. 40, Wallingford CT 06492
  
  
 ---------------------------------------------------------------
 Warning -- This program may not be used in any manner that
 competes with the business of Gaussian, Inc. or will provide
 assistance to any competitor of Gaussian, Inc.  The licensee
 of this program is prohibited from giving any competitor of
 Gaussian, Inc. access to this program.  By using this program,
 the user acknowledges that Gaussian, Inc. is engaged in the
 business of creating and licensing software in the field of
 computational chemistry and represents and warrants to the
 licensee that it is not a competitor of Gaussian, Inc. and that
 it will not use this program in any manner prohibited above.
 ---------------------------------------------------------------
  

 Cite this work as:
 Gaussian 16, Revision A.03,
 M. J. Frisch, G. W. Trucks, H. B. Schlegel, G. E. Scuseria, 
 M. A. Robb, J. R. Cheeseman, G. Scalmani, V. Barone, 
 G. A. Petersson, H. Nakatsuji, X. Li, M. Caricato, A. V. Marenich, 
 J. Bloino, B. G. Janesko, R. Gomperts, B. Mennucci, H. P. Hratchian, 
 J. V. Ortiz, A. F. Izmaylov, J. L. Sonnenberg, D. Williams-Young, 
 F. Ding, F. Lipparini, F. Egidi, J. Goings, B. Peng, A. Petrone, 
 T. Henderson, D. Ranasinghe, V. G. Zakrzewski, J. Gao, N. Rega, 
 G. Zheng, W. Liang, M. Hada, M. Ehara, K. Toyota, R. Fukuda, 
 J. Hasegawa, M. Ishida, T. Nakajima, Y. Honda, O. Kitao, H. Nakai, 
 T. Vreven, K. Throssell, J. A. Montgomery, Jr., J. E. Peralta, 
 F. Ogliaro, M. J. Bearpark, J. J. Heyd, E. N. Brothers, K. N. Kudin, 
 V. N. Staroverov, T. A. Keith, R. Kobayashi, J. Normand, 
 K. Raghavachari, A. P. Rendell, J. C. Burant, S. S. Iyengar, 
 J. Tomasi, M. Cossi, J. M. Millam, M. Klene, C. Adamo, R. Cammi, 
 J. W. Ochterski, R. L. Martin, K. Morokuma, O. Farkas, 
 J. B. Foresman, and D. J. Fox, Gaussian, Inc., Wallingford CT, 2016.
 
 ******************************************
 Gaussian 16:  ES64L-G16RevA.03 25-Dec-2016
                30-Nov-2021 
 ******************************************
 %nprocshared=28
 Will use up to   28 processors via shared memory.
 %mem=41GB
 ----------------------------------------------
 # MP2/aug-cc-pVTZ opt freq=(vibrot,anharmonic)
 ----------------------------------------------
 1/18=20,19=15,38=1,80=1/1,3;
 2/9=110,12=2,17=6,18=5,40=1/2;
 3/5=16,6=1,7=10,11=9,25=1,30=1,71=1/1,2,3;
 4//1;
 5/5=2,38=5/2;
 8/6=4,10=1/1;
 9/15=2,16=-3/6;
 10/5=1/2;
 6/7=2,8=2,9=2,10=2/1;
 7/12=2/1,2,3,16;
 1/18=20,19=15,80=1/3(2);
 2/9=110/2;
 99//99;
 2/9=110/2;
 3/5=16,6=1,7=10,11=9,25=1,30=1,71=1/1,2,3;
 4/5=5,16=3,69=1/1;
 5/5=2,38=5/2;
 8/6=4,10=1/1;
 9/15=2,16=-3/6;
 10/5=1/2;
 7/12=2/1,2,3,16;
 1/18=20,19=15,80=1/3(-8);
 2/9=110/2;
 6/7=2,8=2,9=2,10=2/1;
 99//99;
 ----
 bleh
 ----
 Symbolic Z-matrix:
 Charge =  0 Multiplicity = 1
 O                    -0.03804   1.54732   0. 
 N                    -0.03804  -1.37498   0. 
 H                     0.07661   0.57905   0. 
 H                    -1.03714  -1.54178   0. 
 H                     0.33786  -1.8451    0.81406 
 H                     0.33786  -1.8451   -0.81406 
 H                     0.85543   1.89921   0. 
 
 Add virtual bond connecting atoms H3         and N2         Dist= 3.70D+00.

 GradGradGradGradGradGradGradGradGradGradGradGradGradGradGradGradGradGrad
 Berny optimization.
 Initialization pass.
                           ----------------------------
                           !    Initial Parameters    !
                           ! (Angstroms and Degrees)  !
 --------------------------                            --------------------------
 ! Name  Definition              Value          Derivative Info.                !
 --------------------------------------------------------------------------------
 ! R1    R(1,3)                  0.975          estimate D2E/DX2                !
 ! R2    R(1,7)                  0.9603         estimate D2E/DX2                !
 ! R3    R(2,3)                  1.9574         estimate D2E/DX2                !
 ! R4    R(2,4)                  1.0129         estimate D2E/DX2                !
 ! R5    R(2,5)                  1.0124         estimate D2E/DX2                !
 ! R6    R(2,6)                  1.0124         estimate D2E/DX2                !
 ! A1    A(3,1,7)              104.7439         estimate D2E/DX2                !
 ! A2    A(3,2,4)              102.8358         estimate D2E/DX2                !
 ! A3    A(3,2,5)              116.2192         estimate D2E/DX2                !
 ! A4    A(3,2,6)              116.2192         estimate D2E/DX2                !
 ! A5    A(4,2,5)              106.8436         estimate D2E/DX2                !
 ! A6    A(4,2,6)              106.8436         estimate D2E/DX2                !
 ! A7    A(5,2,6)              107.0401         estimate D2E/DX2                !
 ! A8    L(1,3,2,7,-1)         190.1103         estimate D2E/DX2                !
 ! A9    L(1,3,2,7,-2)         180.0            estimate D2E/DX2                !
 ! D1    D(7,1,2,4)            180.0            estimate D2E/DX2                !
 ! D2    D(7,1,2,5)             65.214          estimate D2E/DX2                !
 ! D3    D(7,1,2,6)            -65.214          estimate D2E/DX2                !
 --------------------------------------------------------------------------------
 Trust Radius=3.00D-01 FncErr=1.00D-07 GrdErr=1.00D-07 EigMax=2.50D+02 EigMin=1.00D-04
 Number of steps in this run=     28 maximum allowed number of steps=    100.
 GradGradGradGradGradGradGradGradGradGradGradGradGradGradGradGradGradGrad

                          Input orientation:                          
 ---------------------------------------------------------------------
 Center     Atomic      Atomic             Coordinates (Angstroms)
 Number     Number       Type             X           Y           Z
 ---------------------------------------------------------------------
      1          8           0       -0.038041    1.547324    0.000000
      2          7           0       -0.038041   -1.374981    0.000000
      3          1           0        0.076605    0.579048    0.000000
      4          1           0       -1.037138   -1.541778    0.000000
      5          1           0        0.337864   -1.845101    0.814055
      6          1           0        0.337864   -1.845101   -0.814055
      7          1           0        0.855426    1.899205    0.000000
 ---------------------------------------------------------------------
                    Distance matrix (angstroms):
                    1          2          3          4          5
     1  O    0.000000
     2  N    2.922305   0.000000
     3  H    0.975040   1.957389   0.000000
     4  H    3.246652   1.012925   2.395480   0.000000
     5  H    3.508923   1.012424   2.570494   1.626444   0.000000
     6  H    3.508923   1.012424   2.570494   1.626444   1.628110
     7  H    0.960262   3.393903   1.532768   3.927106   3.866573
                    6          7
     6  H    0.000000
     7  H    3.866573   0.000000
 Stoichiometry    H5NO
 Framework group  CS[SG(H3NO),X(H2)]
 Deg. of freedom    10
 Full point group                 CS      NOp   2
 Largest Abelian subgroup         CS      NOp   2
 Largest concise Abelian subgroup CS      NOp   2
                         Standard orientation:                         
 ---------------------------------------------------------------------
 Center     Atomic      Atomic             Coordinates (Angstroms)
 Number     Number       Type             X           Y           Z
 ---------------------------------------------------------------------
      1          8           0       -0.038041    1.547324    0.000000
      2          7           0       -0.038041   -1.374981    0.000000
      3          1           0        0.076605    0.579048    0.000000
      4          1           0       -1.037138   -1.541778    0.000000
      5          1           0        0.337864   -1.845101    0.814055
      6          1           0        0.337864   -1.845101   -0.814055
      7          1           0        0.855426    1.899205    0.000000
 ---------------------------------------------------------------------
 Rotational constants (GHZ):         149.4629379           6.3834053           6.3266826
 Standard basis: Aug-CC-pVTZ (5D, 7F)
 There are   153 symmetry adapted cartesian basis functions of A'  symmetry.
 There are    82 symmetry adapted cartesian basis functions of A"  symmetry.
 There are   131 symmetry adapted basis functions of A'  symmetry.
 There are    76 symmetry adapted basis functions of A"  symmetry.
   207 basis functions,   279 primitive gaussians,   235 cartesian basis functions
    10 alpha electrons       10 beta electrons
       nuclear repulsion energy        38.9283866636 Hartrees.
 NAtoms=    7 NActive=    7 NUniq=    6 SFac= 1.36D+00 NAtFMM=   60 NAOKFM=F Big=F
 Integral buffers will be    131072 words long.
 Raffenetti 1 integral format.
 Two-electron integral symmetry is turned on.
 One-electron integrals computed using PRISM.
 NBasis=   207 RedAO= T EigKep=  1.01D-04  NBF=   131    76
 NBsUse=   207 1.00D-06 EigRej= -1.00D+00 NBFU=   131    76
 ExpMin= 2.53D-02 ExpMax= 1.53D+04 ExpMxC= 5.22D+02 IAcc=3 IRadAn=         5 AccDes= 0.00D+00
 Harris functional with IExCor=  205 and IRadAn=       5 diagonalized for initial guess.
 HarFok:  IExCor=  205 AccDes= 0.00D+00 IRadAn=         5 IDoV= 1 UseB2=F ITyADJ=14
 ICtDFT=  3500011 ScaDFX=  1.000000  1.000000  1.000000  1.000000
 FoFCou: FMM=F IPFlag=           0 FMFlag=      100000 FMFlg1=           0
         NFxFlg=           0 DoJE=T BraDBF=F KetDBF=T FulRan=T
         wScrn=  0.000000 ICntrl=       500 IOpCl=  0 I1Cent=   200000004 NGrid=           0
         NMat0=    1 NMatS0=      1 NMatT0=    0 NMatD0=    1 NMtDS0=    0 NMtDT0=    0
 Petite list used in FoFCou.
 Initial guess orbital symmetries:
       Occupied  (A') (A') (A') (A') (A') (A") (A') (A') (A") (A')
       Virtual   (A') (A') (A') (A") (A') (A') (A") (A') (A') (A')
                 (A") (A') (A") (A') (A') (A') (A") (A') (A") (A')
                 (A') (A') (A") (A') (A") (A') (A") (A') (A") (A')
                 (A') (A') (A') (A") (A") (A') (A') (A') (A') (A')
                 (A") (A') (A") (A") (A') (A') (A') (A') (A") (A')
                 (A") (A") (A') (A') (A") (A') (A') (A") (A") (A')
                 (A") (A') (A') (A") (A') (A') (A") (A') (A') (A")
                 (A') (A") (A') (A") (A') (A') (A') (A") (A') (A")
                 (A') (A") (A') (A') (A") (A') (A") (A') (A') (A")
                 (A") (A') (A') (A') (A') (A") (A') (A") (A') (A')
                 (A") (A') (A") (A') (A") (A") (A') (A') (A') (A")
                 (A') (A') (A") (A') (A') (A") (A') (A') (A") (A')
                 (A') (A") (A') (A') (A') (A") (A') (A') (A") (A")
                 (A") (A") (A') (A') (A") (A") (A') (A') (A") (A")
                 (A') (A") (A') (A') (A") (A") (A') (A') (A') (A")
                 (A') (A') (A') (A') (A") (A') (A') (A") (A") (A')
                 (A") (A') (A') (A') (A') (A") (A") (A') (A') (A')
                 (A") (A') (A') (A') (A") (A') (A") (A') (A") (A')
                 (A') (A") (A') (A") (A") (A') (A") (A') (A") (A')
                 (A") (A') (A') (A') (A') (A') (A')
 The electronic state of the initial guess is 1-A'.
 Keep R1 ints in memory in symmetry-blocked form, NReq=348312725.
 Requested convergence on RMS density matrix=1.00D-08 within 128 cycles.
 Requested convergence on MAX density matrix=1.00D-06.
 Requested convergence on             energy=1.00D-06.
 No special actions if energy rises.
 SCF Done:  E(RHF) =  -132.287161616     A.U. after   10 cycles
            NFock= 10  Conv=0.66D-08     -V/T= 2.0015
 ExpMin= 2.53D-02 ExpMax= 1.53D+04 ExpMxC= 5.22D+02 IAcc=3 IRadAn=         5 AccDes= 0.00D+00
 HarFok:  IExCor=  205 AccDes= 0.00D+00 IRadAn=         5 IDoV=-2 UseB2=F ITyADJ=14
 ICtDFT= 12500011 ScaDFX=  1.000000  1.000000  1.000000  1.000000
 Range of M.O.s used for correlation:     3   207
 NBasis=   207 NAE=    10 NBE=    10 NFC=     2 NFV=     0
 NROrb=    205 NOA=     8 NOB=     8 NVA=   197 NVB=   197

 **** Warning!!: The largest alpha MO coefficient is  0.25148621D+02

 Fully direct method using O(ONN) memory.
 JobTyp=1 Pass  1:  I=   3 to  10 NPSUse= 28 ParTrn=T ParDer=T DoDerP=T.
 Spin components of T(2) and E(2):
     alpha-alpha T2 =       0.1635994104D-01 E2=     -0.6020438792D-01
     alpha-beta  T2 =       0.9863789738D-01 E2=     -0.3926503353D+00
     beta-beta   T2 =       0.1635994104D-01 E2=     -0.6020438792D-01
 ANorm=    0.1063653035D+01
 E2 =    -0.5130591112D+00 EUMP2 =    -0.13280022072750D+03
          IDoAtm=1111111
          Differentiating once with respect to electric field.
                with respect to dipole field.
          Differentiating once with respect to nuclear coordinates.
 Keep R1 ints in memory in symmetry-blocked form, NReq=348314087.
          There are     1 degrees of freedom in the 1st order CPHF.  IDoFFX=0 NUNeed=     1.
 LinEq1:  Iter=  0 NonCon=     1 RMS=2.94D-03 Max=3.70D-02 NDo=     1
 AX will form     1 AO Fock derivatives at one time.
 LinEq1:  Iter=  1 NonCon=     1 RMS=6.24D-04 Max=7.70D-03 NDo=     1
 LinEq1:  Iter=  2 NonCon=     1 RMS=2.84D-04 Max=4.12D-03 NDo=     1
 LinEq1:  Iter=  3 NonCon=     1 RMS=3.69D-05 Max=2.98D-04 NDo=     1
 LinEq1:  Iter=  4 NonCon=     1 RMS=5.87D-06 Max=4.94D-05 NDo=     1
 LinEq1:  Iter=  5 NonCon=     1 RMS=1.77D-06 Max=1.70D-05 NDo=     1
 LinEq1:  Iter=  6 NonCon=     1 RMS=7.09D-07 Max=6.78D-06 NDo=     1
 LinEq1:  Iter=  7 NonCon=     1 RMS=1.51D-07 Max=1.45D-06 NDo=     1
 LinEq1:  Iter=  8 NonCon=     1 RMS=2.08D-08 Max=1.89D-07 NDo=     1
 LinEq1:  Iter=  9 NonCon=     1 RMS=4.09D-09 Max=3.18D-08 NDo=     1
 LinEq1:  Iter= 10 NonCon=     1 RMS=6.80D-10 Max=5.92D-09 NDo=     1
 LinEq1:  Iter= 11 NonCon=     1 RMS=9.14D-11 Max=1.15D-09 NDo=     1
 LinEq1:  Iter= 12 NonCon=     0 RMS=1.62D-11 Max=1.30D-10 NDo=     1
 Linear equations converged to 1.000D-10 1.000D-09 after    12 iterations.
 End of Minotr F.D. properties file   721 does not exist.
 End of Minotr F.D. properties file   722 does not exist.
 End of Minotr F.D. properties file   788 does not exist.

 **********************************************************************

            Population analysis using the SCF density.

 **********************************************************************

 Orbital symmetries:
       Occupied  (A') (A') (A') (A') (A') (A") (A') (A') (A") (A')
       Virtual   (A') (A") (A') (A') (A') (A') (A') (A") (A') (A")
                 (A') (A') (A') (A") (A') (A") (A') (A") (A') (A')
                 (A') (A") (A') (A') (A") (A") (A') (A') (A") (A')
                 (A') (A') (A') (A") (A') (A") (A') (A') (A') (A")
                 (A') (A') (A") (A") (A') (A') (A") (A') (A') (A")
                 (A') (A") (A') (A") (A') (A') (A') (A") (A") (A')
                 (A") (A') (A") (A') (A') (A') (A") (A') (A") (A')
                 (A") (A') (A') (A") (A') (A') (A') (A") (A') (A')
                 (A") (A") (A') (A') (A") (A') (A") (A') (A") (A")
                 (A') (A') (A') (A') (A') (A") (A') (A") (A') (A')
                 (A") (A") (A') (A") (A') (A') (A") (A') (A') (A")
                 (A') (A') (A") (A') (A') (A") (A') (A') (A") (A')
                 (A') (A") (A') (A') (A') (A") (A") (A') (A') (A")
                 (A") (A") (A') (A') (A") (A') (A") (A") (A') (A")
                 (A') (A") (A') (A") (A') (A') (A") (A') (A') (A")
                 (A') (A') (A') (A') (A") (A") (A') (A") (A') (A')
                 (A") (A') (A') (A') (A') (A") (A") (A') (A') (A')
                 (A') (A") (A') (A') (A") (A') (A") (A') (A') (A")
                 (A') (A") (A') (A") (A") (A") (A') (A') (A") (A')
                 (A") (A') (A') (A') (A') (A') (A')
 The electronic state is 1-A'.
 Alpha  occ. eigenvalues --  -20.52386 -15.56540  -1.30849  -1.16811  -0.67917
 Alpha  occ. eigenvalues --   -0.65383  -0.65203  -0.54984  -0.46919  -0.45495
 Alpha virt. eigenvalues --    0.02258   0.04417   0.04551   0.05099   0.07910
 Alpha virt. eigenvalues --    0.13433   0.14270   0.15404   0.15726   0.17763
 Alpha virt. eigenvalues --    0.18016   0.19255   0.20689   0.21291   0.22809
 Alpha virt. eigenvalues --    0.24651   0.26010   0.30292   0.30413   0.34025
 Alpha virt. eigenvalues --    0.34648   0.34755   0.37856   0.38687   0.38800
 Alpha virt. eigenvalues --    0.40536   0.40719   0.42667   0.44964   0.45065
 Alpha virt. eigenvalues --    0.46147   0.49325   0.54107   0.54290   0.58349
 Alpha virt. eigenvalues --    0.59565   0.62577   0.64365   0.69876   0.74162
 Alpha virt. eigenvalues --    0.74270   0.75790   0.77077   0.78962   0.79735
 Alpha virt. eigenvalues --    0.84706   0.88691   0.89428   0.90839   0.91756
 Alpha virt. eigenvalues --    0.93011   0.93664   0.95631   0.96629   0.96746
 Alpha virt. eigenvalues --    0.98869   0.99552   1.01315   1.02010   1.02021
 Alpha virt. eigenvalues --    1.05668   1.05867   1.07034   1.07958   1.10743
 Alpha virt. eigenvalues --    1.16132   1.16657   1.19103   1.19928   1.24338
 Alpha virt. eigenvalues --    1.24382   1.26696   1.27997   1.29267   1.32723
 Alpha virt. eigenvalues --    1.35602   1.41620   1.45742   1.48735   1.53383
 Alpha virt. eigenvalues --    1.53557   1.58431   1.61418   1.65025   1.70268
 Alpha virt. eigenvalues --    1.70294   1.74469   1.78462   1.84717   1.88150
 Alpha virt. eigenvalues --    1.88915   1.90731   1.97663   1.98306   2.02551
 Alpha virt. eigenvalues --    2.05183   2.07380   2.14202   2.15633   2.20297
 Alpha virt. eigenvalues --    2.32314   2.33354   2.39398   2.40847   2.43123
 Alpha virt. eigenvalues --    2.43833   2.43883   2.47932   2.48860   2.51448
 Alpha virt. eigenvalues --    2.51893   2.59551   2.59723   2.68626   2.77989
 Alpha virt. eigenvalues --    2.81053   2.91203   2.96124   3.02864   3.02996
 Alpha virt. eigenvalues --    3.44361   3.68466   3.77181   3.77911   3.97072
 Alpha virt. eigenvalues --    3.97692   4.08808   4.09404   4.13770   4.15832
 Alpha virt. eigenvalues --    4.19326   4.20116   4.21170   4.26540   4.27153
 Alpha virt. eigenvalues --    4.28668   4.34814   4.36020   4.36557   4.43131
 Alpha virt. eigenvalues --    4.45645   4.49096   4.50315   4.53787   4.54241
 Alpha virt. eigenvalues --    4.58459   4.60428   4.61443   4.72489   4.73723
 Alpha virt. eigenvalues --    4.76166   4.76934   4.85143   4.90601   4.94909
 Alpha virt. eigenvalues --    4.96708   4.97699   5.02780   5.04484   5.12604
 Alpha virt. eigenvalues --    5.22976   5.29288   5.32215   5.41973   5.47533
 Alpha virt. eigenvalues --    5.57838   5.65859   5.66425   5.74418   5.88073
 Alpha virt. eigenvalues --    5.90962   5.90968   6.20847   6.29891   6.32828
 Alpha virt. eigenvalues --    6.38777   6.40589   6.59250   6.69705   6.79385
 Alpha virt. eigenvalues --    6.90870   6.92393   7.02239   7.19740   7.31797
 Alpha virt. eigenvalues --    7.37212   7.37769   7.43803   7.54066   7.72959
 Alpha virt. eigenvalues --    7.74712   7.82746   8.02289   8.06905   8.88347
 Alpha virt. eigenvalues --   16.38973  17.81779
          Condensed to atoms (all electrons):
               1          2          3          4          5          6
     1  O    8.012942  -0.025240   0.237787   0.000074  -0.001090  -0.001090
     2  N   -0.025240   6.270414   0.009807   0.389722   0.388922   0.388922
     3  H    0.237787   0.009807   0.432788   0.002849  -0.002183  -0.002183
     4  H    0.000074   0.389722   0.002849   0.476779  -0.005079  -0.005079
     5  H   -0.001090   0.388922  -0.002183  -0.005079   0.466657  -0.004540
     6  H   -0.001090   0.388922  -0.002183  -0.005079  -0.004540   0.466657
     7  H    0.286969  -0.005377   0.035100  -0.000521  -0.000415  -0.000415
               7
     1  O    0.286969
     2  N   -0.005377
     3  H    0.035100
     4  H   -0.000521
     5  H   -0.000415
     6  H   -0.000415
     7  H    0.499881
 Mulliken charges:
               1
     1  O   -0.510352
     2  N   -0.417170
     3  H    0.286035
     4  H    0.141256
     5  H    0.157726
     6  H    0.157726
     7  H    0.184778
 Sum of Mulliken charges =  -0.00000
 Mulliken charges with hydrogens summed into heavy atoms:
               1
     1  O   -0.039539
     2  N    0.039539
 Electronic spatial extent (au):  <R**2>=            202.9403
 Charge=             -0.0000 electrons
 Dipole moment (field-independent basis, Debye):
    X=              1.2719    Y=             -3.3708    Z=             -0.0000  Tot=              3.6028
 Quadrupole moment (field-independent basis, Debye-Ang):
   XX=            -11.7660   YY=            -12.5871   ZZ=            -13.7102
   XY=              3.3910   XZ=              0.0000   YZ=              0.0000
 Traceless Quadrupole moment (field-independent basis, Debye-Ang):
   XX=              0.9218   YY=              0.1006   ZZ=             -1.0224
   XY=              3.3910   XZ=              0.0000   YZ=              0.0000
 Octapole moment (field-independent basis, Debye-Ang**2):
  XXX=              0.1152  YYY=             -5.8502  ZZZ=              0.0000  XYY=              7.5432
  XXY=              0.5157  XXZ=             -0.0000  XZZ=              0.8875  YZZ=             -3.8735
  YYZ=              0.0000  XYZ=              0.0000
 Hexadecapole moment (field-independent basis, Debye-Ang**3):
 XXXX=            -15.6359 YYYY=           -197.7247 ZZZZ=            -16.5803 XXXY=              2.1819
 XXXZ=              0.0000 YYYX=              6.9958 YYYZ=              0.0000 ZZZX=              0.0000
 ZZZY=             -0.0000 XXYY=            -29.1237 XXZZ=             -5.9864 YYZZ=            -33.6114
 XXYZ=              0.0000 YYXZ=             -0.0000 ZZXY=             -2.5000
 N-N= 3.892838666358D+01 E-N=-3.904692219066D+02  KE= 1.320878644966D+02
 Symmetry A'   KE= 1.250527133860D+02
 Symmetry A"   KE= 7.035151110535D+00
 Calling FoFJK, ICntrl=  10002127 FMM=F ISym2X=1 I1Cent= 0 IOpClX= 0 NMat=1 NMatS=1 NMatT=0.
 ***** Axes restored to original set *****
 -------------------------------------------------------------------
 Center     Atomic                   Forces (Hartrees/Bohr)
 Number     Number              X              Y              Z
 -------------------------------------------------------------------
      1        8          -0.000000330    0.000000088   -0.000000000
      2        7          -0.000000549   -0.000000192    0.000000000
      3        1          -0.000000037   -0.000000257    0.000000000
      4        1           0.000000580    0.000000102   -0.000000000
      5        1          -0.000000013    0.000000042   -0.000000066
      6        1          -0.000000013    0.000000042    0.000000066
      7        1           0.000000360    0.000000175    0.000000000
 -------------------------------------------------------------------
 Cartesian Forces:  Max     0.000000580 RMS     0.000000223

 GradGradGradGradGradGradGradGradGradGradGradGradGradGradGradGradGradGrad
 Berny optimization.
 FormGI is forming the generalized inverse of G from B-inverse, IUseBI=4.
 Internal  Forces:  Max     0.000000589 RMS     0.000000181
 Search for a local minimum.
 Step number   1 out of a maximum of   28
 All quantities printed in internal units (Hartrees-Bohrs-Radians)
 Mixed Optimization -- En-DIIS/RFO-DIIS
 Second derivative matrix not updated -- first step.
 The second derivative matrix:
                          R1        R2        R3        R4        R5
           R1           0.52360
           R2           0.00000   0.55417
           R3           0.00000   0.00000   0.04625
           R4           0.00000   0.00000   0.00000   0.45486
           R5           0.00000   0.00000   0.00000   0.00000   0.45569
           R6           0.00000   0.00000   0.00000   0.00000   0.00000
           A1           0.00000   0.00000   0.00000   0.00000   0.00000
           A2           0.00000   0.00000   0.00000   0.00000   0.00000
           A3           0.00000   0.00000   0.00000   0.00000   0.00000
           A4           0.00000   0.00000   0.00000   0.00000   0.00000
           A5           0.00000   0.00000   0.00000   0.00000   0.00000
           A6           0.00000   0.00000   0.00000   0.00000   0.00000
           A7           0.00000   0.00000   0.00000   0.00000   0.00000
           A8           0.00000   0.00000   0.00000   0.00000   0.00000
           A9           0.00000   0.00000   0.00000   0.00000   0.00000
           D1           0.00000   0.00000   0.00000   0.00000   0.00000
           D2           0.00000   0.00000   0.00000   0.00000   0.00000
           D3           0.00000   0.00000   0.00000   0.00000   0.00000
                          R6        A1        A2        A3        A4
           R6           0.45569
           A1           0.00000   0.16000
           A2           0.00000   0.00000   0.16000
           A3           0.00000   0.00000   0.00000   0.16000
           A4           0.00000   0.00000   0.00000   0.00000   0.16000
           A5           0.00000   0.00000   0.00000   0.00000   0.00000
           A6           0.00000   0.00000   0.00000   0.00000   0.00000
           A7           0.00000   0.00000   0.00000   0.00000   0.00000
           A8           0.00000   0.00000   0.00000   0.00000   0.00000
           A9           0.00000   0.00000   0.00000   0.00000   0.00000
           D1           0.00000   0.00000   0.00000   0.00000   0.00000
           D2           0.00000   0.00000   0.00000   0.00000   0.00000
           D3           0.00000   0.00000   0.00000   0.00000   0.00000
                          A5        A6        A7        A8        A9
           A5           0.16000
           A6           0.00000   0.16000
           A7           0.00000   0.00000   0.16000
           A8           0.00000   0.00000   0.00000   0.00230
           A9           0.00000   0.00000   0.00000   0.00000   0.00230
           D1           0.00000   0.00000   0.00000   0.00000   0.00000
           D2           0.00000   0.00000   0.00000   0.00000   0.00000
           D3           0.00000   0.00000   0.00000   0.00000   0.00000
                          D1        D2        D3
           D1           0.00230
           D2           0.00000   0.00230
           D3           0.00000   0.00000   0.00230
 ITU=  0
     Eigenvalues ---    0.00230   0.00230   0.00230   0.04625   0.08356
     Eigenvalues ---    0.10385   0.16000   0.16000   0.16000   0.16000
     Eigenvalues ---    0.45486   0.45569   0.45569   0.52356   0.55417
 RFO step:  Lambda= 0.00000000D+00 EMin= 2.30000000D-03
 Linear search not attempted -- first point.
 Iteration  1 RMS(Cart)=  0.00000928 RMS(Int)=  0.00000000
 Iteration  2 RMS(Cart)=  0.00000000 RMS(Int)=  0.00000000
 ClnCor:  largest displacement from symmetrization is 1.96D-12 for atom     3.
 Variable       Old X    -DE/DX   Delta X   Delta X   Delta X     New X
                                 (Linear)    (Quad)   (Total)
    R1        1.84256   0.00000   0.00000   0.00000   0.00000   1.84256
    R2        1.81463   0.00000   0.00000   0.00000   0.00000   1.81463
    R3        3.69893   0.00000   0.00000   0.00000   0.00000   3.69893
    R4        1.91415  -0.00000   0.00000  -0.00000  -0.00000   1.91415
    R5        1.91320  -0.00000   0.00000  -0.00000  -0.00000   1.91320
    R6        1.91320  -0.00000   0.00000  -0.00000  -0.00000   1.91320
    A1        1.82813   0.00000   0.00000   0.00000   0.00000   1.82813
    A2        1.79482   0.00000   0.00000   0.00000   0.00000   1.79482
    A3        2.02841  -0.00000   0.00000  -0.00000  -0.00000   2.02841
    A4        2.02841  -0.00000   0.00000  -0.00000  -0.00000   2.02841
    A5        1.86477   0.00000   0.00000   0.00000   0.00000   1.86477
    A6        1.86477   0.00000   0.00000   0.00000   0.00000   1.86477
    A7        1.86820  -0.00000   0.00000  -0.00000  -0.00000   1.86820
    A8        3.31805  -0.00000   0.00000  -0.00002  -0.00002   3.31803
    A9        3.14159   0.00000   0.00000   0.00000   0.00000   3.14159
    D1        3.14159   0.00000   0.00000   0.00000   0.00000   3.14159
    D2        1.13820  -0.00000   0.00000  -0.00000  -0.00000   1.13820
    D3       -1.13820   0.00000   0.00000   0.00000   0.00000  -1.13820
         Item               Value     Threshold  Converged?
 Maximum Force            0.000001     0.000450     YES
 RMS     Force            0.000000     0.000300     YES
 Maximum Displacement     0.000026     0.001800     YES
 RMS     Displacement     0.000009     0.001200     YES
 Predicted change in Energy=-1.231837D-12
 Optimization completed.
    -- Stationary point found.
                           ----------------------------
                           !   Optimized Parameters   !
                           ! (Angstroms and Degrees)  !
 --------------------------                            --------------------------
 ! Name  Definition              Value          Derivative Info.                !
 --------------------------------------------------------------------------------
 ! R1    R(1,3)                  0.975          -DE/DX =    0.0                 !
 ! R2    R(1,7)                  0.9603         -DE/DX =    0.0                 !
 ! R3    R(2,3)                  1.9574         -DE/DX =    0.0                 !
 ! R4    R(2,4)                  1.0129         -DE/DX =    0.0                 !
 ! R5    R(2,5)                  1.0124         -DE/DX =    0.0                 !
 ! R6    R(2,6)                  1.0124         -DE/DX =    0.0                 !
 ! A1    A(3,1,7)              104.7439         -DE/DX =    0.0                 !
 ! A2    A(3,2,4)              102.8358         -DE/DX =    0.0                 !
 ! A3    A(3,2,5)              116.2192         -DE/DX =    0.0                 !
 ! A4    A(3,2,6)              116.2192         -DE/DX =    0.0                 !
 ! A5    A(4,2,5)              106.8436         -DE/DX =    0.0                 !
 ! A6    A(4,2,6)              106.8436         -DE/DX =    0.0                 !
 ! A7    A(5,2,6)              107.0401         -DE/DX =    0.0                 !
 ! A8    L(1,3,2,7,-1)         190.1103         -DE/DX =    0.0                 !
 ! A9    L(1,3,2,7,-2)         180.0            -DE/DX =    0.0                 !
 ! D1    D(7,1,2,4)            180.0            -DE/DX =    0.0                 !
 ! D2    D(7,1,2,5)             65.214          -DE/DX =    0.0                 !
 ! D3    D(7,1,2,6)            -65.214          -DE/DX =    0.0                 !
 --------------------------------------------------------------------------------
 GradGradGradGradGradGradGradGradGradGradGradGradGradGradGradGradGradGrad

                          Input orientation:                          
 ---------------------------------------------------------------------
 Center     Atomic      Atomic             Coordinates (Angstroms)
 Number     Number       Type             X           Y           Z
 ---------------------------------------------------------------------
      1          8           0       -0.038041    1.547324    0.000000
      2          7           0       -0.038041   -1.374981    0.000000
      3          1           0        0.076605    0.579048    0.000000
      4          1           0       -1.037138   -1.541778    0.000000
      5          1           0        0.337864   -1.845101    0.814055
      6          1           0        0.337864   -1.845101   -0.814055
      7          1           0        0.855426    1.899205    0.000000
 ---------------------------------------------------------------------
                    Distance matrix (angstroms):
                    1          2          3          4          5
     1  O    0.000000
     2  N    2.922305   0.000000
     3  H    0.975040   1.957389   0.000000
     4  H    3.246652   1.012925   2.395480   0.000000
     5  H    3.508923   1.012424   2.570494   1.626444   0.000000
     6  H    3.508923   1.012424   2.570494   1.626444   1.628110
     7  H    0.960262   3.393903   1.532768   3.927106   3.866573
                    6          7
     6  H    0.000000
     7  H    3.866573   0.000000
 Stoichiometry    H5NO
 Framework group  CS[SG(H3NO),X(H2)]
 Deg. of freedom    10
 Full point group                 CS      NOp   2
 Largest Abelian subgroup         CS      NOp   2
 Largest concise Abelian subgroup CS      NOp   2
                         Standard orientation:                         
 ---------------------------------------------------------------------
 Center     Atomic      Atomic             Coordinates (Angstroms)
 Number     Number       Type             X           Y           Z
 ---------------------------------------------------------------------
      1          8           0       -0.038041    1.547324    0.000000
      2          7           0       -0.038041   -1.374981    0.000000
      3          1           0        0.076605    0.579048    0.000000
      4          1           0       -1.037138   -1.541778    0.000000
      5          1           0        0.337864   -1.845101    0.814055
      6          1           0        0.337864   -1.845101   -0.814055
      7          1           0        0.855426    1.899205    0.000000
 ---------------------------------------------------------------------
 Rotational constants (GHZ):         149.4629379           6.3834053           6.3266826
 1\1\GINC-N2097\FOpt\RMP2-FC\Aug-CC-pVTZ\H5N1O1\GDS001\30-Nov-2021\0\\#
  MP2/aug-cc-pVTZ opt freq=(vibrot,anharmonic)\\bleh\\0,1\O,-0.038041,1
 .547324,0.\N,-0.038041,-1.374981,0.\H,0.076605,0.579048,0.\H,-1.037138
 ,-1.541778,0.\H,0.337864,-1.845101,0.814055\H,0.337864,-1.845101,-0.81
 4055\H,0.855426,1.899205,0.\\Version=ES64L-G16RevA.03\State=1-A'\HF=-1
 32.2871616\MP2=-132.8002207\RMSD=6.630e-09\RMSF=2.227e-07\Dipole=0.465
 3419,-1.2883241,0.\PG=CS [SG(H3N1O1),X(H2)]\\@


 What some people mistake for the high cost
 of living is really the cost of living high.
                              -- Doug Larson
 Job cpu time:       0 days  0 hours  8 minutes 30.4 seconds.
 Elapsed time:       0 days  0 hours  0 minutes 22.6 seconds.
 File lengths (MBytes):  RWF=     80 Int=      0 D2E=      0 Chk=     12 Scr=      8
 Normal termination of Gaussian 16 at Tue Nov 30 12:43:09 2021.
 Link1:  Proceeding to internal job step number  2.
 ----------------------------------------------------------------------
 #N Geom=AllCheck Guess=TCheck SCRF=Check GenChk RMP2(FC)/Aug-CC-pVTZ F
 req
 ----------------------------------------------------------------------
 1/10=4,29=7,30=1,38=21,40=1,80=1/1,6,3;
 2/12=2,40=1/2;
 3/5=16,6=1,7=10,11=1,14=-4,25=1,30=1,70=2,71=2,116=1,140=1/1,2,3;
 4/5=101,69=2/1;
 5/5=2,38=6,98=1/2;
 8/6=3,8=1,10=1,19=11,30=-1/1;
 9/15=3,16=-3/6;
 11/6=1,8=1,15=11,17=12,24=-1,27=1,28=-2,29=300,32=6,42=3/1,2,10;
 10/6=2,21=1,60=-2/2;
 8/6=4,8=1,10=1,19=11,30=-1/11,4;
 10/5=1,20=4,60=-2/2;
 11/12=2,14=11,16=1,17=2,28=-2,42=3/2,10,12;
 6/7=2,8=2,9=2,10=2,22=-1/1;
 7/10=1,12=2,25=1,44=2,70=1,71=2/1,2,3,16;
 1/38=20,80=1/6(3);
 7/8=1,25=202,44=-1,70=1,71=1,92=10/16,17;
 1/10=4,30=1,38=20,80=1/3;
 99//99;
 3/5=16,6=1,7=10,11=1,14=-2,25=1,30=1,70=5,71=2,116=1,140=1/1,2,3;
 4/5=5,16=3,69=2/1;
 5/5=2,38=5,98=1/2;
 8/6=3,8=1,10=1,19=11,30=-1/1;
 9/15=3,16=-3/6;
 11/6=1,8=1,15=11,17=12,24=-1,27=1,28=-2,29=300,32=6,42=3/1,2,10;
 10/6=2,21=1,60=-2/2;
 8/6=4,8=1,10=1,19=11,30=-1/11,4;
 10/5=1,20=4,60=-2/2;
 11/12=2,14=11,16=1,17=2,28=-2,42=3/2,10,12;
 6/7=2,8=2,9=2,10=2,22=-1/1;
 7/7=1,10=1,12=2,25=1,44=2,70=1,71=1/1,2,3,16;
 1/38=20,80=1/6(-12);
 7/8=1,25=202,44=-1,70=1,71=1,92=10/16,17;
 1/10=4,30=1,38=20,80=1/3;
 99//99;
 Structure from the checkpoint file:  "/gscratch/scrubbed/gds001/Gau-3690.chk"
 ----
 bleh
 ----
 Charge =  0 Multiplicity = 1
 Redundant internal coordinates found in file.  (old form).
 O,0,-0.038041,1.547324,0.
 N,0,-0.038041,-1.374981,0.
 H,0,0.076605,0.579048,0.
 H,0,-1.037138,-1.541778,0.
 H,0,0.337864,-1.845101,0.814055
 H,0,0.337864,-1.845101,-0.814055
 H,0,0.855426,1.899205,0.
 Recover connectivity data from disk.
 Numerical evaluation of third derivatives.
 Nuclear step= 0.010000 Angstroms, electric field step= 0.000333 atomic units, NStep=1.

 GradGradGradGradGradGradGradGradGradGradGradGradGradGradGradGradGradGrad
 Berny optimization.
 Initialization pass.
                           ----------------------------
                           !    Initial Parameters    !
                           ! (Angstroms and Degrees)  !
 --------------------------                            --------------------------
 ! Name  Definition              Value          Derivative Info.                !
 --------------------------------------------------------------------------------
 ! R1    R(1,3)                  0.975          calculate D2E/DX2 analytically  !
 ! R2    R(1,7)                  0.9603         calculate D2E/DX2 analytically  !
 ! R3    R(2,3)                  1.9574         calculate D2E/DX2 analytically  !
 ! R4    R(2,4)                  1.0129         calculate D2E/DX2 analytically  !
 ! R5    R(2,5)                  1.0124         calculate D2E/DX2 analytically  !
 ! R6    R(2,6)                  1.0124         calculate D2E/DX2 analytically  !
 ! A1    A(3,1,7)              104.7439         calculate D2E/DX2 analytically  !
 ! A2    A(3,2,4)              102.8358         calculate D2E/DX2 analytically  !
 ! A3    A(3,2,5)              116.2192         calculate D2E/DX2 analytically  !
 ! A4    A(3,2,6)              116.2192         calculate D2E/DX2 analytically  !
 ! A5    A(4,2,5)              106.8436         calculate D2E/DX2 analytically  !
 ! A6    A(4,2,6)              106.8436         calculate D2E/DX2 analytically  !
 ! A7    A(5,2,6)              107.0401         calculate D2E/DX2 analytically  !
 ! A8    L(1,3,2,7,-1)         190.1103         calculate D2E/DX2 analytically  !
 ! A9    L(1,3,2,7,-2)         180.0            calculate D2E/DX2 analytically  !
 ! D1    D(7,1,2,4)            180.0            calculate D2E/DX2 analytically  !
 ! D2    D(7,1,2,5)             65.214          calculate D2E/DX2 analytically  !
 ! D3    D(7,1,2,6)            -65.214          calculate D2E/DX2 analytically  !
 --------------------------------------------------------------------------------
 Trust Radius=3.00D-01 FncErr=1.00D-07 GrdErr=1.00D-07 EigMax=2.50D+02 EigMin=1.00D-04
 Number of steps in this run=      2 maximum allowed number of steps=      2.
 GradGradGradGradGradGradGradGradGradGradGradGradGradGradGradGradGradGrad

                          Input orientation:                          
 ---------------------------------------------------------------------
 Center     Atomic      Atomic             Coordinates (Angstroms)
 Number     Number       Type             X           Y           Z
 ---------------------------------------------------------------------
      1          8           0       -0.038041    1.547324    0.000000
      2          7           0       -0.038041   -1.374981    0.000000
      3          1           0        0.076605    0.579048    0.000000
      4          1           0       -1.037138   -1.541778    0.000000
      5          1           0        0.337864   -1.845101    0.814055
      6          1           0        0.337864   -1.845101   -0.814055
      7          1           0        0.855426    1.899205    0.000000
 ---------------------------------------------------------------------
                    Distance matrix (angstroms):
                    1          2          3          4          5
     1  O    0.000000
     2  N    2.922305   0.000000
     3  H    0.975040   1.957389   0.000000
     4  H    3.246652   1.012925   2.395480   0.000000
     5  H    3.508923   1.012424   2.570494   1.626444   0.000000
     6  H    3.508923   1.012424   2.570494   1.626444   1.628110
     7  H    0.960262   3.393903   1.532768   3.927106   3.866573
                    6          7
     6  H    0.000000
     7  H    3.866573   0.000000
 Stoichiometry    H5NO
 Framework group  CS[SG(H3NO),X(H2)]
 Deg. of freedom    10
 Full point group                 CS      NOp   2
 Largest Abelian subgroup         CS      NOp   2
 Largest concise Abelian subgroup CS      NOp   2
                         Standard orientation:                         
 ---------------------------------------------------------------------
 Center     Atomic      Atomic             Coordinates (Angstroms)
 Number     Number       Type             X           Y           Z
 ---------------------------------------------------------------------
      1          8           0       -0.038041    1.547324    0.000000
      2          7           0       -0.038041   -1.374981    0.000000
      3          1           0        0.076605    0.579048    0.000000
      4          1           0       -1.037138   -1.541778    0.000000
      5          1           0        0.337864   -1.845101    0.814055
      6          1           0        0.337864   -1.845101   -0.814055
      7          1           0        0.855426    1.899205    0.000000
 ---------------------------------------------------------------------
 Rotational constants (GHZ):         149.4629379           6.3834053           6.3266826
 Standard basis: Aug-CC-pVTZ (5D, 7F)
 There are   153 symmetry adapted cartesian basis functions of A'  symmetry.
 There are    82 symmetry adapted cartesian basis functions of A"  symmetry.
 There are   131 symmetry adapted basis functions of A'  symmetry.
 There are    76 symmetry adapted basis functions of A"  symmetry.
   207 basis functions,   279 primitive gaussians,   235 cartesian basis functions
    10 alpha electrons       10 beta electrons
       nuclear repulsion energy        38.9283866636 Hartrees.
 NAtoms=    7 NActive=    7 NUniq=    6 SFac= 1.36D+00 NAtFMM=   60 NAOKFM=F Big=F
 Integral buffers will be    131072 words long.
 Raffenetti 1 integral format.
 Two-electron integral symmetry is turned on.
 One-electron integrals computed using PRISM.
 NBasis=   207 RedAO= T EigKep=  1.01D-04  NBF=   131    76
 NBsUse=   207 1.00D-06 EigRej= -1.00D+00 NBFU=   131    76
 Initial guess from the checkpoint file:  "/gscratch/scrubbed/gds001/Gau-3690.chk"
 B after Tr=     0.000000    0.000000    0.000000
         Rot=    1.000000    0.000000    0.000000    0.000000 Ang=   0.00 deg.
 Initial guess orbital symmetries:
       Occupied  (A') (A') (A') (A') (A') (A") (A') (A') (A") (A')
       Virtual   (A') (A") (A') (A') (A') (A') (A') (A") (A') (A")
                 (A') (A') (A') (A") (A') (A") (A') (A") (A') (A')
                 (A') (A") (A') (A') (A") (A") (A') (A') (A") (A')
                 (A') (A') (A') (A") (A') (A") (A') (A') (A') (A")
                 (A') (A') (A") (A") (A') (A') (A") (A') (A') (A")
                 (A') (A") (A') (A") (A') (A') (A') (A") (A") (A')
                 (A") (A') (A") (A') (A') (A') (A") (A') (A") (A')
                 (A") (A') (A') (A") (A') (A') (A') (A") (A') (A')
                 (A") (A") (A') (A') (A") (A') (A") (A') (A") (A")
                 (A') (A') (A') (A') (A') (A") (A') (A") (A') (A')
                 (A") (A") (A') (A") (A') (A') (A") (A') (A') (A")
                 (A') (A') (A") (A') (A') (A") (A') (A') (A") (A')
                 (A') (A") (A') (A') (A') (A") (A") (A') (A') (A")
                 (A") (A") (A') (A') (A") (A') (A") (A") (A') (A")
                 (A') (A") (A') (A") (A') (A') (A") (A') (A') (A")
                 (A') (A') (A') (A') (A") (A") (A') (A") (A') (A')
                 (A") (A') (A') (A') (A') (A") (A") (A') (A') (A')
                 (A') (A") (A') (A') (A") (A') (A") (A') (A') (A")
                 (A') (A") (A') (A") (A") (A") (A') (A') (A") (A')
                 (A") (A') (A') (A') (A') (A') (A')
 Keep R1 ints in memory in symmetry-blocked form, NReq=348312725.
 Requested convergence on RMS density matrix=1.00D-08 within 128 cycles.
 Requested convergence on MAX density matrix=1.00D-06.
 Requested convergence on             energy=1.00D-06.
 No special actions if energy rises.
 SCF Done:  E(RHF) =  -132.287161616     A.U. after    1 cycles
            NFock=  1  Conv=0.81D-09     -V/T= 2.0015
 ExpMin= 2.53D-02 ExpMax= 1.53D+04 ExpMxC= 5.22D+02 IAcc=3 IRadAn=         5 AccDes= 0.00D+00
 HarFok:  IExCor=  205 AccDes= 0.00D+00 IRadAn=         5 IDoV=-2 UseB2=F ITyADJ=14
 ICtDFT= 12500011 ScaDFX=  1.000000  1.000000  1.000000  1.000000
 Range of M.O.s used for correlation:     3   207
 NBasis=   207 NAE=    10 NBE=    10 NFC=     2 NFV=     0
 NROrb=    205 NOA=     8 NOB=     8 NVA=   197 NVB=   197

 **** Warning!!: The largest alpha MO coefficient is  0.25148622D+02

 Disk-based method using ON**2 memory for  8 occupieds at a time.
 Permanent disk used for amplitudes=     4749670 words.
 Estimated scratch disk usage=   149720108 words.
 Actual    scratch disk usage=   146574380 words.
 JobTyp=1 Pass  1:  I=   3 to  10 NPSUse= 28 ParTrn=T ParDer=T DoDerP=T.
 (rs|ai) integrals will be sorted in core.
 Spin components of T(2) and E(2):
     alpha-alpha T2 =       0.1635994117D-01 E2=     -0.6020438843D-01
     alpha-beta  T2 =       0.9863789850D-01 E2=     -0.3926503388D+00
     beta-beta   T2 =       0.1635994117D-01 E2=     -0.6020438843D-01
 ANorm=    0.1063653036D+01
 E2 =    -0.5130591156D+00 EUMP2 =    -0.13280022073195D+03
 G2DrvN: will do     8 centers at a time, making    1 passes.
 Calling FoFCou, ICntrl=  3107 FMM=F I1Cent=   0 AccDes= 0.00D+00.
 End of G2Drv F.D. properties file   721 does not exist.
 End of G2Drv F.D. properties file   722 does not exist.
 End of G2Drv F.D. properties file   788 does not exist.
          IDoAtm=1111111
          Differentiating once with respect to electric field.
                with respect to dipole field.
          Differentiating once with respect to nuclear coordinates.
 Keep R1 ints in memory in symmetry-blocked form, NReq=348314087.
          There are    24 degrees of freedom in the 1st order CPHF.  IDoFFX=6 NUNeed=    24.
     21 vectors produced by pass  0 Test12= 8.21D-15 4.17D-09 XBig12= 5.03D+00 7.77D-01.
 AX will form    21 AO Fock derivatives at one time.
     21 vectors produced by pass  1 Test12= 8.21D-15 4.17D-09 XBig12= 1.59D-01 1.07D-01.
     21 vectors produced by pass  2 Test12= 8.21D-15 4.17D-09 XBig12= 3.91D-03 1.83D-02.
     21 vectors produced by pass  3 Test12= 8.21D-15 4.17D-09 XBig12= 4.70D-05 1.24D-03.
     21 vectors produced by pass  4 Test12= 8.21D-15 4.17D-09 XBig12= 4.47D-07 1.32D-04.
     21 vectors produced by pass  5 Test12= 8.21D-15 4.17D-09 XBig12= 4.43D-09 9.86D-06.
     17 vectors produced by pass  6 Test12= 8.21D-15 4.17D-09 XBig12= 1.99D-11 6.44D-07.
      4 vectors produced by pass  7 Test12= 8.21D-15 4.17D-09 XBig12= 9.80D-14 4.66D-08.
 InvSVY:  IOpt=1 It=  1 EMax= 8.88D-16
 Solved reduced A of dimension   147 with    24 vectors.
 End of Minotr F.D. properties file   721 does not exist.
 End of Minotr F.D. properties file   722 does not exist.
 End of Minotr F.D. properties file   788 does not exist.
 MDV=  5502926848.
 Form MO integral derivatives with frozen-active canonical formalism.
 Discarding MO integrals.
 Reordered first order wavefunction length =      7761800
 In DefCFB: NBatch=  1 ICI= 10 ICA=197 LFMax= 66
            Large arrays: LIAPS=   383322600 LIARS=   178235750 words.
 Semi-Direct transformation.
 ModeAB=           4 MOrb=            10 LenV=    5501728925
 LASXX=     42872175 LTotXX=    42872175 LenRXX=    86358025
 LTotAB=    43485850 MaxLAS=    47336760 LenRXY=           0
 NonZer=   129230200 LenScr=   193986560 LnRSAI=    47336760
 LnScr1=    71303168 LExtra=           0 Total=    398984513
 MaxDsk=          -1 SrtSym=           T ITran=            4
 JobTyp=0 Pass  1:  I=   1 to  10.
 (rs|ai) integrals will be sorted in core.
 Spin components of T(2) and E(2):
     alpha-alpha T2 =       0.1635994117D-01 E2=     -0.6020438843D-01
     alpha-beta  T2 =       0.9863789850D-01 E2=     -0.3926503388D+00
     beta-beta   T2 =       0.1635994117D-01 E2=     -0.6020438843D-01
 ANorm=    0.1504232549D+01
 E2 =    -0.5130591156D+00 EUMP2 =    -0.13280022073195D+03
          IDoAtm=1111111
          Differentiating once with respect to electric field.
                with respect to dipole field.
          Differentiating once with respect to nuclear coordinates.
          There are     1 degrees of freedom in the 1st order CPHF.  IDoFFX=0 NUNeed=     1.
 LinEq1:  Iter=  0 NonCon=     1 RMS=2.94D-03 Max=3.70D-02 NDo=     1
 LinEq1:  Iter=  1 NonCon=     1 RMS=6.24D-04 Max=7.70D-03 NDo=     1
 LinEq1:  Iter=  2 NonCon=     1 RMS=2.84D-04 Max=4.12D-03 NDo=     1
 LinEq1:  Iter=  3 NonCon=     1 RMS=3.69D-05 Max=2.98D-04 NDo=     1
 LinEq1:  Iter=  4 NonCon=     1 RMS=5.87D-06 Max=4.94D-05 NDo=     1
 LinEq1:  Iter=  5 NonCon=     1 RMS=1.77D-06 Max=1.70D-05 NDo=     1
 LinEq1:  Iter=  6 NonCon=     1 RMS=7.09D-07 Max=6.78D-06 NDo=     1
 LinEq1:  Iter=  7 NonCon=     1 RMS=1.51D-07 Max=1.45D-06 NDo=     1
 LinEq1:  Iter=  8 NonCon=     1 RMS=2.08D-08 Max=1.89D-07 NDo=     1
 LinEq1:  Iter=  9 NonCon=     1 RMS=4.09D-09 Max=3.18D-08 NDo=     1
 LinEq1:  Iter= 10 NonCon=     1 RMS=6.80D-10 Max=5.92D-09 NDo=     1
 LinEq1:  Iter= 11 NonCon=     1 RMS=9.14D-11 Max=1.15D-09 NDo=     1
 LinEq1:  Iter= 12 NonCon=     0 RMS=1.62D-11 Max=1.30D-10 NDo=     1
 Linear equations converged to 1.000D-10 1.000D-09 after    12 iterations.
 End of Minotr F.D. properties file   721 does not exist.
 End of Minotr F.D. properties file   722 does not exist.
 End of Minotr F.D. properties file   788 does not exist.
 Symmetrizing basis deriv contribution to polar:
 IMax=3 JMax=2 DiffMx= 0.00D+00
 G2DrvN: will do     8 centers at a time, making    1 passes.
 Calling FoFCou, ICntrl=  3107 FMM=F I1Cent=   0 AccDes= 0.00D+00.
 End of G2Drv F.D. properties file   721 does not exist.
 End of G2Drv F.D. properties file   722 does not exist.
 End of G2Drv F.D. properties file   788 does not exist.
 R2 and R3 integrals will be kept in memory, NReq=   775552640.
 DD1Dir will call FoFMem   1 times, MxPair=       110
 NAB=    55 NAA=     0 NBB=     0.
 Discarding MO integrals.

 **********************************************************************

            Population analysis using the MP2 density.

 **********************************************************************

 Orbital symmetries:
       Occupied  (A') (A') (A') (A') (A') (A") (A') (A') (A") (A')
       Virtual   (A') (A") (A') (A') (A') (A') (A') (A") (A') (A")
                 (A') (A') (A') (A") (A') (A") (A') (A") (A') (A')
                 (A') (A") (A') (A') (A") (A") (A') (A') (A") (A')
                 (A') (A') (A') (A") (A') (A") (A') (A') (A') (A")
                 (A') (A') (A") (A") (A') (A') (A") (A') (A') (A")
                 (A') (A") (A') (A") (A') (A') (A') (A") (A") (A')
                 (A") (A') (A") (A') (A') (A') (A") (A') (A") (A')
                 (A") (A') (A') (A") (A') (A') (A') (A") (A') (A')
                 (A") (A") (A') (A') (A") (A') (A") (A') (A") (A")
                 (A') (A') (A') (A') (A') (A") (A') (A") (A') (A')
                 (A") (A") (A') (A") (A') (A') (A") (A') (A') (A")
                 (A') (A') (A") (A') (A') (A") (A') (A') (A") (A')
                 (A') (A") (A') (A') (A') (A") (A") (A') (A') (A")
                 (A") (A") (A') (A') (A") (A') (A") (A") (A') (A")
                 (A') (A") (A') (A") (A') (A') (A") (A') (A') (A")
                 (A') (A') (A') (A') (A") (A") (A') (A") (A') (A')
                 (A") (A') (A') (A') (A') (A") (A") (A') (A') (A')
                 (A') (A") (A') (A') (A") (A') (A") (A') (A') (A")
                 (A') (A") (A') (A") (A") (A") (A') (A') (A") (A')
                 (A") (A') (A') (A') (A') (A') (A')
 The electronic state is 1-A'.
 Alpha  occ. eigenvalues --  -20.52386 -15.56540  -1.30849  -1.16811  -0.67917
 Alpha  occ. eigenvalues --   -0.65383  -0.65203  -0.54984  -0.46919  -0.45495
 Alpha virt. eigenvalues --    0.02258   0.04417   0.04551   0.05099   0.07910
 Alpha virt. eigenvalues --    0.13433   0.14270   0.15404   0.15726   0.17763
 Alpha virt. eigenvalues --    0.18016   0.19255   0.20689   0.21291   0.22809
 Alpha virt. eigenvalues --    0.24651   0.26010   0.30292   0.30413   0.34025
 Alpha virt. eigenvalues --    0.34648   0.34755   0.37856   0.38687   0.38800
 Alpha virt. eigenvalues --    0.40536   0.40719   0.42667   0.44964   0.45065
 Alpha virt. eigenvalues --    0.46147   0.49325   0.54107   0.54290   0.58349
 Alpha virt. eigenvalues --    0.59565   0.62576   0.64365   0.69876   0.74162
 Alpha virt. eigenvalues --    0.74270   0.75790   0.77077   0.78962   0.79735
 Alpha virt. eigenvalues --    0.84706   0.88691   0.89428   0.90839   0.91756
 Alpha virt. eigenvalues --    0.93011   0.93664   0.95631   0.96629   0.96746
 Alpha virt. eigenvalues --    0.98869   0.99552   1.01315   1.02010   1.02021
 Alpha virt. eigenvalues --    1.05668   1.05867   1.07034   1.07958   1.10743
 Alpha virt. eigenvalues --    1.16132   1.16657   1.19103   1.19928   1.24338
 Alpha virt. eigenvalues --    1.24382   1.26696   1.27997   1.29267   1.32723
 Alpha virt. eigenvalues --    1.35602   1.41620   1.45742   1.48735   1.53383
 Alpha virt. eigenvalues --    1.53557   1.58431   1.61418   1.65025   1.70268
 Alpha virt. eigenvalues --    1.70294   1.74469   1.78462   1.84717   1.88150
 Alpha virt. eigenvalues --    1.88915   1.90731   1.97663   1.98306   2.02551
 Alpha virt. eigenvalues --    2.05183   2.07380   2.14202   2.15633   2.20297
 Alpha virt. eigenvalues --    2.32314   2.33354   2.39398   2.40847   2.43123
 Alpha virt. eigenvalues --    2.43833   2.43883   2.47932   2.48860   2.51448
 Alpha virt. eigenvalues --    2.51893   2.59551   2.59723   2.68626   2.77989
 Alpha virt. eigenvalues --    2.81053   2.91203   2.96124   3.02864   3.02996
 Alpha virt. eigenvalues --    3.44361   3.68466   3.77181   3.77911   3.97072
 Alpha virt. eigenvalues --    3.97692   4.08808   4.09404   4.13770   4.15832
 Alpha virt. eigenvalues --    4.19326   4.20116   4.21170   4.26540   4.27153
 Alpha virt. eigenvalues --    4.28668   4.34814   4.36020   4.36557   4.43131
 Alpha virt. eigenvalues --    4.45645   4.49096   4.50315   4.53787   4.54241
 Alpha virt. eigenvalues --    4.58459   4.60428   4.61443   4.72489   4.73723
 Alpha virt. eigenvalues --    4.76166   4.76934   4.85143   4.90601   4.94909
 Alpha virt. eigenvalues --    4.96708   4.97699   5.02780   5.04484   5.12604
 Alpha virt. eigenvalues --    5.22976   5.29288   5.32215   5.41973   5.47533
 Alpha virt. eigenvalues --    5.57838   5.65859   5.66425   5.74418   5.88073
 Alpha virt. eigenvalues --    5.90962   5.90968   6.20847   6.29891   6.32828
 Alpha virt. eigenvalues --    6.38777   6.40589   6.59250   6.69705   6.79385
 Alpha virt. eigenvalues --    6.90870   6.92393   7.02239   7.19740   7.31797
 Alpha virt. eigenvalues --    7.37212   7.37769   7.43803   7.54066   7.72959
 Alpha virt. eigenvalues --    7.74712   7.82746   8.02289   8.06905   8.88347
 Alpha virt. eigenvalues --   16.38973  17.81779
          Condensed to atoms (all electrons):
               1          2          3          4          5          6
     1  O    8.165498  -0.028816   0.128577   0.001391  -0.000915  -0.000915
     2  N   -0.028816   6.550206   0.013724   0.292152   0.299556   0.299556
     3  H    0.128577   0.013724   0.580680   0.002737  -0.001655  -0.001655
     4  H    0.001391   0.292152   0.002737   0.571182  -0.008471  -0.008471
     5  H   -0.000915   0.299556  -0.001655  -0.008471   0.557202  -0.009818
     6  H   -0.000915   0.299556  -0.001655  -0.008471  -0.009818   0.557202
     7  H    0.226201  -0.004310   0.024043  -0.000434  -0.000520  -0.000520
               7
     1  O    0.226201
     2  N   -0.004310
     3  H    0.024043
     4  H   -0.000434
     5  H   -0.000520
     6  H   -0.000520
     7  H    0.575158
 Mulliken charges:
               1
     1  O   -0.491019
     2  N   -0.422067
     3  H    0.253549
     4  H    0.149913
     5  H    0.164621
     6  H    0.164621
     7  H    0.180382
 Sum of Mulliken charges =   0.00000
 Mulliken charges with hydrogens summed into heavy atoms:
               1
     1  O   -0.057088
     2  N    0.057088
 APT charges:
               1
     1  O   -0.639080
     2  N   -0.470977
     3  H    0.400300
     4  H    0.163149
     5  H    0.154883
     6  H    0.154883
     7  H    0.236842
 Sum of APT charges =  -0.00000
 APT charges with hydrogens summed into heavy atoms:
               1
     1  O   -0.001938
     2  N    0.001938
 Electronic spatial extent (au):  <R**2>=            203.9236
 Charge=             -0.0000 electrons
 Dipole moment (field-independent basis, Debye):
    X=              1.1828    Y=             -3.2746    Z=              0.0000  Tot=              3.4817
 Quadrupole moment (field-independent basis, Debye-Ang):
   XX=            -12.1802   YY=            -13.0337   ZZ=            -14.1718
   XY=              3.1950   XZ=              0.0000   YZ=             -0.0000
 Traceless Quadrupole moment (field-independent basis, Debye-Ang):
   XX=              0.9484   YY=              0.0948   ZZ=             -1.0432
   XY=              3.1950   XZ=              0.0000   YZ=             -0.0000
 Octapole moment (field-independent basis, Debye-Ang**2):
  XXX=             -0.0482  YYY=             -4.8500  ZZZ=              0.0000  XYY=              7.4388
  XXY=              0.3841  XXZ=              0.0000  XZZ=              0.8329  YZZ=             -4.1000
  YYZ=              0.0000  XYZ=             -0.0000
 Hexadecapole moment (field-independent basis, Debye-Ang**3):
 XXXX=            -17.1269 YYYY=           -206.1498 ZZZZ=            -18.2819 XXXY=              1.7196
 XXXZ=              0.0000 YYYX=              6.1114 YYYZ=             -0.0000 ZZZX=              0.0000
 ZZZY=             -0.0000 XXYY=            -30.6388 XXZZ=             -6.5049 YYZZ=            -35.2639
 XXYZ=             -0.0000 YYXZ=              0.0000 ZZXY=             -2.6389
 N-N= 3.892838666358D+01 E-N=-3.905967250054D+02  KE= 1.326691640843D+02
 Symmetry A'   KE= 1.255064836922D+02
 Symmetry A"   KE= 7.162680392098D+00
  Exact polarizability:  22.041   0.982  28.148  -0.000  -0.000  21.750
 Approx polarizability:  18.047   0.366  18.364   0.000  -0.000  16.880
 Calling FoFJK, ICntrl=  10100127 FMM=F ISym2X=1 I1Cent= 0 IOpClX= 0 NMat=1 NMatS=1 NMatT=0.
 Full mass-weighted force constant matrix:
 Low frequencies ---   -0.1674   -0.0012    0.0008    0.0010    0.0464    1.1510
 Low frequencies ---   11.4887  168.5950  179.0673
 Diagonal vibrational polarizability:
       18.1546661      43.5190763   13589.1643321
 Harmonic frequencies (cm**-1), IR intensities (KM/Mole), Raman scattering
 activities (A**4/AMU), depolarization ratios for plane and unpolarized
 incident light, reduced masses (AMU), force constants (mDyne/A),
 and normal coordinates:
                      1                      2                      3
                     A"                     A'                     A"
 Frequencies --     11.4846               168.5950               179.0673
 Red. masses --      1.0932                 1.4193                 1.0639
 Frc consts  --      0.0001                 0.0238                 0.0201
 IR Inten    --     66.4034                30.1198                42.9280
  Atom  AN      X      Y      Z        X      Y      Z        X      Y      Z
     1   8     0.00   0.00  -0.07    -0.02  -0.13   0.00     0.00   0.00   0.01
     2   7    -0.00   0.00   0.03     0.06   0.10  -0.00    -0.00  -0.00  -0.06
     3   1    -0.00  -0.00   0.08     0.33  -0.08  -0.00    -0.00   0.00  -0.30
     4   1     0.00  -0.00   0.25    -0.06   0.77   0.00     0.00  -0.00   0.21
     5   1     0.22  -0.20  -0.19    -0.26  -0.15   0.00     0.12   0.57   0.21
     6   1    -0.22   0.20  -0.19    -0.26  -0.15  -0.00    -0.12  -0.57   0.21
     7   1     0.00  -0.00   0.82    -0.16   0.23   0.00     0.00  -0.00   0.32
                      4                      5                      6
                     A'                     A'                     A"
 Frequencies --    201.3188               460.8361               715.8958
 Red. masses --      2.2968                 1.0818                 1.0463
 Frc consts  --      0.0548                 0.1354                 0.3159
 IR Inten    --     26.3450                82.2525                86.4033
  Atom  AN      X      Y      Z        X      Y      Z        X      Y      Z
     1   8     0.01  -0.20   0.00     0.02  -0.04  -0.00    -0.00   0.00  -0.03
     2   7    -0.04   0.23  -0.00    -0.06  -0.00   0.00     0.00   0.00  -0.04
     3   1    -0.24  -0.23  -0.00     0.57   0.03   0.00    -0.00  -0.00   0.95
     4   1     0.05  -0.32   0.00     0.00  -0.36  -0.00     0.00  -0.00   0.06
     5   1     0.23   0.45   0.00     0.12   0.14  -0.00     0.04   0.19   0.05
     6   1     0.23   0.45  -0.00     0.12   0.14   0.00    -0.04  -0.19   0.05
     7   1     0.10  -0.43   0.00    -0.25   0.64  -0.00     0.00  -0.00  -0.03
                      7                      8                      9
                     A'                     A'                     A"
 Frequencies --   1094.1774              1653.5716              1669.1378
 Red. masses --      1.1859                 1.0764                 1.0646
 Frc consts  --      0.8365                 1.7341                 1.7476
 IR Inten    --    146.6650                55.5227                16.6533
  Atom  AN      X      Y      Z        X      Y      Z        X      Y      Z
     1   8    -0.00   0.00  -0.00    -0.04   0.02  -0.00    -0.00   0.00   0.00
     2   7    -0.02  -0.11  -0.00    -0.05   0.01   0.00    -0.00   0.00  -0.07
     3   1    -0.00  -0.00   0.00     0.56   0.07  -0.00     0.00   0.00  -0.01
     4   1    -0.09   0.57   0.00    -0.06   0.17  -0.00     0.00  -0.00   0.76
     5   1     0.22   0.50   0.18     0.35  -0.16  -0.27    -0.43  -0.13   0.08
     6   1     0.22   0.50  -0.18     0.35  -0.16   0.27     0.43   0.13   0.08
     7   1     0.00  -0.01   0.00     0.17  -0.43  -0.00     0.00  -0.00  -0.00
                     10                     11                     12
                     A'                     A'                     A'
 Frequencies --   1678.5343              3499.0811              3588.1384
 Red. masses --      1.0623                 1.0269                 1.0586
 Frc consts  --      1.7634                 7.4077                 8.0303
 IR Inten    --      1.7317                 2.0195               569.8474
  Atom  AN      X      Y      Z        X      Y      Z        X      Y      Z
     1   8    -0.04   0.02   0.00     0.00  -0.00  -0.00     0.02  -0.06  -0.00
     2   7     0.04  -0.01   0.00    -0.01  -0.04   0.00    -0.00   0.00  -0.00
     3   1     0.53   0.06   0.00    -0.01   0.07  -0.00    -0.08   0.97   0.00
     4   1     0.06  -0.23  -0.00     0.59   0.06   0.00    -0.04  -0.00  -0.00
     5   1    -0.35   0.18   0.28    -0.23   0.23  -0.47     0.02  -0.02   0.04
     6   1    -0.35   0.18  -0.28    -0.23   0.23   0.47     0.02  -0.02  -0.04
     7   1     0.16  -0.39  -0.00    -0.01  -0.01  -0.00    -0.17  -0.10   0.00
                     13                     14                     15
                     A'                     A"                     A'
 Frequencies --   3642.1696              3646.2715              3907.8353
 Red. masses --      1.0893                 1.0895                 1.0700
 Frc consts  --      8.5135                 8.5344                 9.6271
 IR Inten    --     17.2683                15.8672                85.7624
  Atom  AN      X      Y      Z        X      Y      Z        X      Y      Z
     1   8    -0.00   0.00   0.00    -0.00   0.00   0.00    -0.05  -0.04   0.00
     2   7    -0.08   0.02  -0.00     0.00  -0.00  -0.08     0.00   0.00   0.00
     3   1    -0.00  -0.01   0.00     0.00  -0.00  -0.00    -0.05   0.17   0.00
     4   1     0.79   0.13  -0.00    -0.00  -0.00  -0.02    -0.00   0.00   0.00
     5   1     0.14  -0.19   0.35     0.27  -0.32   0.56     0.00  -0.00   0.00
     6   1     0.14  -0.19  -0.35    -0.27   0.32   0.56     0.00  -0.00  -0.00
     7   1     0.00   0.00   0.00     0.00   0.00   0.00     0.90   0.38   0.00

 -------------------
 - Thermochemistry -
 -------------------
 Temperature   298.150 Kelvin.  Pressure   1.00000 Atm.
 Atom     1 has atomic number  8 and mass  15.99491
 Atom     2 has atomic number  7 and mass  14.00307
 Atom     3 has atomic number  1 and mass   1.00783
 Atom     4 has atomic number  1 and mass   1.00783
 Atom     5 has atomic number  1 and mass   1.00783
 Atom     6 has atomic number  1 and mass   1.00783
 Atom     7 has atomic number  1 and mass   1.00783
 Molecular mass:    35.03711 amu.
 Principal axes and moments of inertia in atomic units:
                           1         2         3
     Eigenvalues --    12.07484 282.72390 285.25869
           X            0.02471   0.99969   0.00000
           Y            0.99969  -0.02471   0.00000
           Z            0.00000  -0.00000   1.00000
 This molecule is an asymmetric top.
 Rotational symmetry number  1.
 Rotational temperatures (Kelvin)      7.17309     0.30636     0.30363
 Rotational constants (GHZ):         149.46294     6.38341     6.32668
 Zero-point vibrational energy     156209.1 (Joules/Mol)
                                   37.33486 (Kcal/Mol)
 Warning -- explicit consideration of   5 degrees of freedom as
           vibrations may cause significant error
 Vibrational temperatures:     16.52   242.57   257.64   289.65   663.04
          (Kelvin)           1030.01  1574.28  2379.12  2401.52  2415.04
                             5034.40  5162.53  5240.27  5246.17  5622.50
 
 Zero-point correction=                           0.059497 (Hartree/Particle)
 Thermal correction to Energy=                    0.065406
 Thermal correction to Enthalpy=                  0.066350
 Thermal correction to Gibbs Free Energy=         0.031250
 Sum of electronic and zero-point Energies=           -132.740724
 Sum of electronic and thermal Energies=              -132.734814
 Sum of electronic and thermal Enthalpies=            -132.733870
 Sum of electronic and thermal Free Energies=         -132.768970
 
                     E (Thermal)             CV                S
                      KCal/Mol        Cal/Mol-Kelvin    Cal/Mol-Kelvin
 Total                   41.043             16.080             73.874
 Electronic               0.000              0.000              0.000
 Translational            0.889              2.981             36.592
 Rotational               0.889              2.981             21.504
 Vibrational             39.266             10.119             15.779
 Vibration     1          0.593              1.987              7.736
 Vibration     2          0.625              1.881              2.451
 Vibration     3          0.629              1.868              2.338
 Vibration     4          0.638              1.838              2.121
 Vibration     5          0.819              1.337              0.764
                       Q            Log10(Q)             Ln(Q)
 Total Bot       0.422532D-14        -14.374141        -33.097682
 Total V=0       0.982886D+13         12.992503         29.916344
 Vib (Bot)       0.464008D-25        -25.333474        -58.332480
 Vib (Bot)    1  0.180413D+02          1.256268          2.892664
 Vib (Bot)    2  0.119587D+01          0.077684          0.178874
 Vib (Bot)    3  0.112201D+01          0.049996          0.115120
 Vib (Bot)    4  0.989944D+00         -0.004389         -0.010107
 Vib (Bot)    5  0.368830D+00         -0.433174         -0.997420
 Vib (V=0)       0.107937D+03          2.033170          4.681547
 Vib (V=0)    1  0.185482D+02          1.268303          2.920375
 Vib (V=0)    2  0.179619D+01          0.254352          0.585667
 Vib (V=0)    3  0.172837D+01          0.237638          0.547181
 Vib (V=0)    4  0.160905D+01          0.206569          0.475643
 Vib (V=0)    5  0.112132D+01          0.049729          0.114504
 Electronic      0.100000D+01          0.000000          0.000000
 Translational   0.815167D+07          6.911246         15.913733
 Rotational      0.111709D+05          4.048087          9.321065

     ==================================================
      Anharmonic Data: Displacement Vectors Definition
     ==================================================

 Framework definition based on atomic masses: CS  

 **********************************************************************

                  Harmonic vibro-rotational analysis

 **********************************************************************


     ==================================================
               Analysis of the Rotor Symmetry
     ==================================================

 Framework Group : CS  
 Rotor Type      : Asymmetric Top
 Asymm. param.   : Kappa = -0.999207
 Inertia moments : X=    79.17075 , Y=     3.38130 , Z=    79.88057
 Representation  : IIIl Representation, Iy < Ix < Iz

 Axes Definition for the Symmetric-Top Representation
 ----------------------------------------------------
 Axis Z automatically chosen to be collinear with Y from Eckart orient.
 NOTE: In Vibro-rotational analysis, this will be referred to as the
       spectroscopic orientation.

     ==================================================
        Vibro-Rotational Analysis Based on Symmetry
     ==================================================

 Representation A'  
 ------------------
    X Translation
    Y Translation
    Z Rotation
   10 Vibrations with frequencies:
   3907.84   3642.17   3588.14   3499.08   1678.53   1653.57
   1094.18    460.84    201.32    168.60

 Representation A"  
 ------------------
    Z Translation
    X Rotation
    Y Rotation
    5 Vibrations with frequencies:
   3646.27   1669.14    715.90    179.07     11.48

 Input/Output information
 ------------------------
 Normal modes will be PRINTED in DESCENDING order (imag. freq. first)
   and sorted by irreducible representation
 The connection between this new numbering (A) and the one used before
   (H) is reported in the present equivalency table:
 ----+------+------+------+------+------+------+------+------+------+
 (H) |     1|     2|     3|     4|     5|     6|     7|     8|     9|
 (A) |    15|    10|    14|     9|     8|    13|     7|     6|    12|
 ----+------+------+------+------+------+------+------+------+------+
 ----+------+------+------+------+------+------+
 (H) |    10|    11|    12|    13|    14|    15|
 (A) |     5|     4|     3|     2|    11|     1|
 ----+------+------+------+------+------+------+

 Normal modes will be READ in ASCENDING order (imag. freq. first)

 Analysis of symmetry-allowed terms
 ----------------------------------

     ==================================================
                   Coriolis Couplings
     ==================================================

 Coriolis Couplings along the X axis
 -----------------------------------
                1             2             3             4             5 
      1   0.000000D+00
      2   0.000000D+00  0.000000D+00
      3   0.000000D+00  0.000000D+00  0.000000D+00
      4   0.000000D+00  0.000000D+00  0.000000D+00  0.000000D+00
      5   0.000000D+00  0.000000D+00  0.000000D+00  0.000000D+00  0.000000D+00
      6   0.000000D+00  0.000000D+00  0.000000D+00  0.000000D+00  0.000000D+00
      7   0.000000D+00  0.000000D+00  0.000000D+00  0.000000D+00  0.000000D+00
      8   0.000000D+00  0.000000D+00  0.000000D+00  0.000000D+00  0.000000D+00
      9   0.000000D+00  0.000000D+00  0.000000D+00  0.000000D+00  0.000000D+00
     10   0.000000D+00  0.000000D+00  0.000000D+00  0.000000D+00  0.000000D+00
     11   0.000000D+00  0.721876D-02 -0.422235D-02  0.710122D-02 -0.381519D+00
     12  -0.201177D-02  0.132556D+00 -0.528966D-02 -0.110607D-01 -0.568760D-01
     13   0.162643D+00 -0.155280D+00  0.897827D+00  0.294401D+00 -0.372509D-01
     14   0.584348D-01 -0.425398D+00 -0.371016D+00  0.623286D+00 -0.402187D+00
     15   0.345739D+00  0.229324D+00  0.729373D-01 -0.257288D+00 -0.331681D+00
                6             7             8             9            10 
      6   0.000000D+00
      7   0.000000D+00  0.000000D+00
      8   0.000000D+00  0.000000D+00  0.000000D+00
      9   0.000000D+00  0.000000D+00  0.000000D+00  0.000000D+00
     10   0.000000D+00  0.000000D+00  0.000000D+00  0.000000D+00  0.000000D+00
     11   0.340304D+00 -0.699862D+00 -0.154681D+00 -0.164324D+00  0.237764D+00
     12  -0.170152D-01 -0.600590D+00  0.237624D+00  0.243139D+00 -0.383844D+00
     13   0.147537D+00  0.729323D-01 -0.228328D-01  0.149855D+00  0.484460D-01
     14   0.104933D+00  0.199894D+00  0.164669D+00 -0.129266D+00 -0.657279D-01
     15  -0.350586D+00 -0.217727D-01  0.391688D+00 -0.198067D+00  0.492806D+00
               11            12            13            14            15 
     11   0.000000D+00
     12   0.000000D+00  0.000000D+00
     13   0.000000D+00  0.000000D+00  0.000000D+00
     14   0.000000D+00  0.000000D+00  0.000000D+00  0.000000D+00
     15   0.000000D+00  0.000000D+00  0.000000D+00  0.000000D+00  0.000000D+00

 Coriolis Couplings along the Y axis
 -----------------------------------
                1             2             3             4             5 
      1   0.000000D+00
      2   0.000000D+00  0.000000D+00
      3   0.000000D+00  0.000000D+00  0.000000D+00
      4   0.000000D+00  0.000000D+00  0.000000D+00  0.000000D+00
      5   0.000000D+00  0.000000D+00  0.000000D+00  0.000000D+00  0.000000D+00
      6   0.000000D+00  0.000000D+00  0.000000D+00  0.000000D+00  0.000000D+00
      7   0.000000D+00  0.000000D+00  0.000000D+00  0.000000D+00  0.000000D+00
      8   0.000000D+00  0.000000D+00  0.000000D+00  0.000000D+00  0.000000D+00
      9   0.000000D+00  0.000000D+00  0.000000D+00  0.000000D+00  0.000000D+00
     10   0.000000D+00  0.000000D+00  0.000000D+00  0.000000D+00  0.000000D+00
     11   0.000000D+00  0.318754D-01  0.108995D-02 -0.116422D-02 -0.564910D+00
     12   0.191999D-02 -0.930469D+00 -0.102120D-01 -0.119857D-01 -0.178124D+00
     13   0.474769D-01 -0.760590D-01  0.810681D-01 -0.449137D-01 -0.418947D+00
     14  -0.276257D+00 -0.197925D+00  0.340844D-01 -0.145840D+00  0.338017D+00
     15  -0.744905D+00  0.280162D-01  0.186373D+00 -0.401420D+00 -0.241871D+00
                6             7             8             9            10 
      6   0.000000D+00
      7   0.000000D+00  0.000000D+00
      8   0.000000D+00  0.000000D+00  0.000000D+00
      9   0.000000D+00  0.000000D+00  0.000000D+00  0.000000D+00
     10   0.000000D+00  0.000000D+00  0.000000D+00  0.000000D+00  0.000000D+00
     11   0.551227D+00  0.153314D+00  0.193623D+00  0.189465D+00 -0.286522D+00
     12  -0.165840D+00  0.130672D+00  0.662445D-01  0.761644D-01 -0.114252D+00
     13  -0.599463D+00 -0.145343D-01  0.557968D+00 -0.118525D+00  0.224413D+00
     14  -0.114478D+00 -0.450598D-01  0.128637D+00 -0.159128D+00 -0.268183D+00
     15  -0.173498D+00  0.166246D+00  0.234372D+00  0.232556D-01 -0.174881D-01
               11            12            13            14            15 
     11   0.000000D+00
     12   0.000000D+00  0.000000D+00
     13   0.000000D+00  0.000000D+00  0.000000D+00
     14   0.000000D+00  0.000000D+00  0.000000D+00  0.000000D+00
     15   0.000000D+00  0.000000D+00  0.000000D+00  0.000000D+00  0.000000D+00

 Coriolis Couplings along the Z axis
 -----------------------------------
                1             2             3             4             5 
      1   0.000000D+00
      2   0.000000D+00  0.000000D+00
      3  -0.333751D-02  0.000000D+00  0.000000D+00
      4   0.000000D+00 -0.766102D-02  0.205988D-02  0.000000D+00
      5  -0.515729D+00 -0.250742D+00 -0.440729D+00 -0.723242D-01  0.000000D+00
      6  -0.562329D+00  0.212498D+00 -0.463315D+00 -0.511040D-01 -0.181609D-01
      7  -0.984890D-02  0.720219D+00  0.886198D-02  0.161446D-01 -0.439984D+00
      8   0.576704D+00 -0.166349D+00 -0.613713D+00 -0.395256D+00 -0.163112D+00
      9  -0.124652D+00 -0.185558D+00  0.213489D+00 -0.344667D+00 -0.189810D+00
     10   0.250368D+00  0.295077D+00 -0.388105D+00  0.520201D+00  0.242931D+00
     11   0.000000D+00  0.000000D+00  0.000000D+00  0.000000D+00  0.000000D+00
     12   0.000000D+00  0.000000D+00  0.000000D+00  0.000000D+00  0.000000D+00
     13   0.000000D+00  0.000000D+00  0.000000D+00  0.000000D+00  0.000000D+00
     14   0.000000D+00  0.000000D+00  0.000000D+00  0.000000D+00  0.000000D+00
     15   0.000000D+00  0.000000D+00  0.000000D+00  0.000000D+00  0.000000D+00
                6             7             8             9            10 
      6   0.000000D+00
      7   0.423088D+00  0.000000D+00
      8   0.158190D+00 -0.111986D+00  0.000000D+00
      9   0.143221D+00 -0.106720D+00 -0.172258D+00  0.000000D+00
     10  -0.244560D+00  0.167375D+00 -0.105844D+00 -0.511351D-01  0.000000D+00
     11   0.000000D+00  0.000000D+00  0.000000D+00  0.000000D+00  0.000000D+00
     12   0.000000D+00  0.000000D+00  0.000000D+00  0.000000D+00  0.000000D+00
     13   0.000000D+00  0.000000D+00  0.000000D+00  0.000000D+00  0.000000D+00
     14   0.000000D+00  0.000000D+00  0.000000D+00  0.000000D+00  0.000000D+00
     15   0.000000D+00  0.000000D+00  0.000000D+00  0.000000D+00  0.000000D+00
               11            12            13            14            15 
     11   0.000000D+00
     12  -0.328747D+00  0.000000D+00
     13   0.122957D+00 -0.148095D+00  0.000000D+00
     14   0.364653D+00 -0.430231D+00 -0.335594D-02  0.000000D+00
     15   0.269036D-01  0.216019D+00 -0.929146D-01 -0.274821D+00  0.000000D+00

   49 Coriolis couplings larger than .100D-02 along the X axis
   49 Coriolis couplings larger than .100D-02 along the Y axis
   52 Coriolis couplings larger than .100D-02 along the Z axis

     ==================================================
      Inertia Moments Derivatives w.r.t. Normal Modes
[...]
 ,0.00001535,-0.00000010,-0.00000006,0.02243066,0.,-0.00000005,-0.00010
 088,0.00000011,0.00000002,-0.00733730,-0.00008010,0.00019306,0.0001141
 3,0.03066522,-0.04297273,0.09310450,0.00013284,-0.00051460,-0.00070100
 ,0.00076969,-0.00641803,0.00457013,-0.02392812,-0.00055007,-0.00040104
 ,-0.00000825,-0.04805996,0.04852207,-0.10236902,-0.00014553,0.00043598
 ,-0.00001059,-0.00104950,0.00230554,-0.00052587,0.04269068,-0.04894938
 ,-0.00009485,-0.00004936,0.00008022,0.07187650,-0.07183298,0.12657252,
 -0.00035732,0.00017617,-0.00010864,-0.00535021,0.00006647,-0.00750088,
 -0.08162554,0.08729121,-0.11479146,-0.00008010,0.00019305,-0.00011412,
 0.03066647,-0.04297258,-0.09310460,0.00013284,-0.00051459,0.00070100,0
 .00076947,-0.00641803,-0.00457014,-0.00758404,0.00695490,0.01550831,-0
 .02392916,-0.00055009,-0.00040105,0.00000824,-0.04806015,0.04852281,0.
 10236865,-0.00014556,0.00043596,0.00001059,-0.00104927,0.00230559,0.00
 052596,0.00695496,-0.00187051,-0.01564081,0.04269060,-0.04895015,0.000
 09483,0.00004934,0.00008021,-0.07187653,0.07183276,0.12657258,0.000357
 32,-0.00017618,-0.00010864,0.00535015,-0.00006652,-0.00750071,-0.01550
 811,0.01564065,-0.00425602,0.08162545,-0.08729077,-0.11479169,0.303961
 49,0.08851316,0.,-0.00004965,0.00127662,0.,-0.02144878,-0.03105615,0.,
 -0.00007354,0.00005319,0.,0.00002451,0.00015948,0.00004310,0.00002450,
 0.00015951,-0.00004310,-0.28243852,0.00849445,-0.02055828,0.,0.0002139
 8,0.00047575,-0.00000002,0.05028571,-0.01568018,0.,-0.00002163,0.00008
 514,0.,0.00006665,-0.00004266,-0.00001070,0.00006665,-0.00004265,0.000
 01072,-0.05910582,0.03576289,0.,0.,-0.00131848,0.,0.,0.00020327,0.,0.,
 0.00073889,0.,0.,-0.00000625,0.00004590,-0.00001814,0.00000426,-0.0000
 4590,0.00001814,0.00000427,0.,0.,0.00037403,-0.00050270,0.00009467,-0.
 00074968,0.,0.,-0.00063409,-0.00070474,-0.00007271,-0.00000002,-0.6116
 4512,0.00032545,-0.00043948,-0.00000003,-0.04322266,-0.09969909,0.0000
 0001,-0.00000004,0.00039405,0.00000016,-0.00000045,-0.25668943,0.00060
 522,-0.00025212,-0.00000001,0.00148673,-0.00058574,0.00000001,-0.00107
 706,-0.00028584,0.00064334,0.00000001,0.00036931,0.00105210,0.00000012
 ,0.00002960,-0.00060694,0.,0.,0.00052437,0.,0.00000002,-0.00044653,0.,
 -0.00000001,-0.00047917,0.00043746,0.00033476,0.,0.58743413,0.06790739
 ,-0.00000024,-0.00080290,-0.00054947,0.00000003,-0.55715404,-0.0001969
 5,0.00046852,0.,0.13010246,0.00634668,0.00000017,0.00059644,-0.0007435
 1,0.,-0.11207257,-0.00426416,0.,0.,-0.00041980,-0.00000023,-0.00000003
 ,-0.05420558,0.,-0.00000001,0.00046145,0.00000019,0.,0.06496549,-0.000
 01836,-0.00005978,0.00009344,0.01169492,-0.01218752,-0.00419023,-0.000
 06039,0.00014625,-0.00035461,-0.01494444,-0.00918919,0.04350705,0.0086
 7402,-0.00004820,-0.00002628,0.00000208,-0.04349686,0.04629896,-0.0887
 0616,0.00010967,-0.00011033,-0.00018417,0.02207520,-0.00087820,0.01343
 583,0.01889790,-0.04595326,0.00004337,0.00000118,-0.00001506,0.0565760
 6,-0.08036663,0.15552543,-0.00007179,0.00017765,0.00000029,-0.01968799
 ,0.00469811,-0.00544906,-0.03797823,0.07546641,-0.15205095,-0.00001836
 ,-0.00005979,-0.00009341,0.01169411,-0.01218768,0.00419031,-0.00006039
 ,0.00014625,0.00035460,-0.01494472,-0.00918917,-0.04350700,-0.00536037
 ,0.00244695,0.00111488,0.00867511,-0.00004819,-0.00002626,-0.00000206,
 -0.04349687,0.04629838,0.08870636,0.00010964,-0.00011025,0.00018417,0.
 02207521,-0.00087818,-0.01343578,0.00244688,0.00068917,0.00000888,0.01
 889796,-0.04595277,-0.00004337,-0.00000113,-0.00001510,-0.05657598,0.0
 8036711,0.15552434,0.00007178,-0.00017775,0.00000033,0.01968802,-0.004
 69826,-0.00544902,-0.00111484,-0.00000890,0.00197299,0.03797806,-0.075
 46665,-0.15204994,0.00020148,0.00001497,0.00000002,0.00003995,-0.00004
 923,-0.00000002,-0.00009121,0.00014390,0.,-0.00002549,-0.00005102,0.,0
 .00001462,0.00001534,0.00000368,0.00001461,0.00001536,-0.00000366,-0.0
 0015396,0.00015904,0.00012985,0.,-0.00018265,0.00014244,0.,-0.00000749
 ,-0.00012442,0.,0.00022949,-0.00005116,0.,-0.00005455,-0.00002005,0.00
 001438,-0.00005453,-0.00002008,-0.00001439,-0.00008931,-0.00005659,0.,
 0.,0.00016563,0.00000001,0.00000002,-0.00010226,0.00000001,-0.00000001
 ,-0.00006075,0.,0.,0.00009651,0.00003742,-0.00000509,0.00001637,-0.000
 03744,0.00000508,0.00001640,-0.00000002,0.,-0.00013190,-0.24644003,0.0
 6658846,-0.30911738,0.,-0.00000002,0.00914040,0.00217321,0.00088540,0.
 ,-0.11383966,-0.00199423,-0.00280972,0.,0.07790985,-0.11099902,0.00000
 002,0.00000004,-0.00071726,0.00000004,-0.00000007,-0.29944385,-0.00821
 222,-0.13859177,-0.00000001,0.00181700,-0.00023795,-0.00000004,0.02306
 509,-0.06597769,0.32711947,0.00000001,-0.00254921,0.00190599,-0.000000
 07,0.09586279,-0.31396009,0.,0.,-0.00971901,0.,0.,0.00189052,0.,0.,0.0
 0767751,0.00000067,0.00021309,0.,0.04070232,0.01376586,0.00000006,0.00
 048140,-0.00131286,0.,-0.04250906,0.00032053,0.00047590,0.,0.02528024,
 0.00056039,0.00000005,0.00084966,-0.00134513,0.,-0.00890607,-0.0055158
 5,0.,0.,-0.00001539,0.00000004,0.00000006,0.02243857,0.,0.00000004,0.0
 0054820,-0.00000013,0.,-0.00621703,-0.00040247,-0.00010338,0.00013248,
 0.03478604,-0.04516615,0.09776535,0.00021443,0.00013361,0.00008298,0.0
 0073099,-0.00869567,0.00504566,-0.02830157,-0.00033219,-0.00014081,0.0
 0007202,-0.05108779,0.05546952,-0.11278197,-0.00087348,0.00024290,-0.0
 0029555,-0.00186740,0.00289919,-0.00118696,0.04613528,-0.05549853,-0.0
 0015021,-0.00006733,0.00012802,0.07516269,-0.07864902,0.13789979,-0.00
 015165,0.00063713,-0.00043490,-0.00637749,-0.00028332,-0.00835298,-0.0
 8581684,0.09629575,-0.12493050,-0.00040246,-0.00010340,-0.00013247,0.0
 3478638,-0.04516611,-0.09776543,0.00021443,0.00013363,-0.00008300,0.00
 073087,-0.00869569,-0.00504557,-0.00707197,0.00777920,0.01717818,-0.02
 830180,-0.00033215,-0.00014077,-0.00007202,-0.05108776,0.05546986,0.11
 278201,-0.00087350,0.00024282,0.00029554,-0.00186755,0.00289920,0.0011
 8686,0.00777928,-0.00294780,-0.01794730,0.04613531,-0.05549882,0.00015
 020,0.00006729,0.00012800,-0.07516276,0.07864902,0.13790021,0.00015168
 ,-0.00063711,-0.00043485,0.00637756,0.00028329,-0.00835313,-0.01717816
 ,0.01794742,-0.00435820,0.08581680,-0.09629581,-0.12493079,0.25328330,
 0.07111161,0.00000001,-0.00042530,0.00088873,0.,-0.01758014,-0.0262902
 8,0.,-0.00013718,-0.00015300,0.,0.00004455,0.00024637,0.00015531,0.000
 04455,0.00024637,-0.00015532,-0.23522979,0.00172726,-0.01538666,0.,0.0
 0064926,0.00040298,0.00000001,0.04386425,-0.01420595,0.,-0.00002506,0.
 00002630,0.,-0.00008296,-0.00002447,0.00001408,-0.00008295,-0.00002448
 ,-0.00001410,-0.04604981,0.02921228,0.00000001,0.,0.00105525,0.,0.,0.0
 0003202,0.,0.,0.00047254,0.,0.,-0.00004825,-0.00003148,-0.00005071,0.0
 0004876,0.00003148,0.00005071,0.00004877,-0.00000001,0.,-0.00160908,-0
 .00583117,-0.00483999,0.03518274,-0.00000010,-0.00000005,-0.00740733,-
 0.00017201,0.00024389,-0.00000001,1.51210128,0.00020789,0.00162678,0.0
 0000007,-0.31623891,-0.07224471,0.,-0.00000002,-0.00019545,0.00000012,
 -0.00000022,1.46697196,0.00661467,0.00533981,0.00000002,0.00027812,0.0
 0010102,0.,-0.00718876,0.00474958,-0.03589072,0.,-0.00049715,-0.002474
 25,-0.00000001,-0.00522908,0.03633851,0.,0.00000001,0.00750630,0.00000
 002,0.,0.00021761,0.,0.,-0.00801964,-0.00008696,-0.00085307,0.00000002
 ,-1.57490418,-0.29733453,0.00000017,0.00008063,0.00169727,-0.00000002,
 1.57025702,0.00014734,-0.00011006,0.,-0.34376787,0.26727624,0.00000004
 ,0.00000695,0.00044087,0.,0.31181047,-0.29358453,0.,0.,-0.00004773,-0.
 00000001,0.00000002,0.29673143,0.,0.,0.00009849,0.00000006,-0.00000001
 ,-0.31564663,-0.00001609,0.00030618,-0.00001225,0.03139756,0.30677626,
 -0.52795321,0.00011363,-0.00046378,-0.00000246,0.00223383,0.01589749,-
 0.02996428,-0.04638741,-0.00014466,-0.00037005,-0.00010113,0.33015909,
 -0.09719148,0.69842106,0.00000856,0.00092118,0.00012621,-0.00763938,0.
 01297044,-0.00239627,-0.32026431,0.06895424,0.00013189,0.00067544,-0.0
 0001164,-0.53765556,0.66067754,-0.88186200,-0.00003302,-0.00115618,0.0
 0006219,0.01342572,0.00176790,0.00943014,0.54109807,-0.67901427,0.8757
 1480,-0.00001608,0.00030616,0.00001224,0.03139753,0.30677621,0.5279529
 1,0.00011364,-0.00046375,0.00000245,0.00223401,0.01589752,0.02996423,0
 .01271388,-0.00223446,-0.01683194,-0.04638757,-0.00014472,-0.00037004,
 0.00010109,0.33015890,-0.09719145,-0.69842088,0.00000851,0.00092114,-0
 .00012621,-0.00763938,0.01297042,0.00239625,-0.00223437,0.01478277,0.0
 1703430,-0.32026421,0.06895429,-0.00013190,-0.00067543,-0.00001161,0.5
 3765544,-0.66067734,-0.88186208,0.00003302,0.00115618,0.00006220,-0.01
 342594,-0.00176793,0.00943011,0.01683213,-0.01703432,-0.00333749,-0.54
 109792,0.67901413,0.87571489,-0.00049236,-0.00050297,0.00000008,-0.000
 09831,-0.00028793,0.,-0.00001194,0.00020691,0.,0.00018565,0.00000810,0
 .,-0.00005540,0.00011516,-0.00013516,-0.00005542,0.00011527,0.00013517
 ,0.00052778,0.00002457,-0.00006863,0.00000003,-0.00005794,0.00019887,0
 .00000002,-0.00023576,-0.00025674,0.,-0.00004138,0.00003662,0.,-0.0000
 1747,-0.00006710,0.00001527,-0.00001747,-0.00006713,-0.00001528,0.0003
 4545,0.00022410,0.00000010,0.00000004,0.00016745,0.,-0.00000007,-0.000
 00145,-0.00000002,0.00000002,0.00007285,-0.00000001,0.,0.00000419,0.00
 000198,-0.00000128,0.00000399,-0.00000197,0.00000132,0.00000397,-0.000
 00008,-0.00000004,-0.00025101,-0.93982255,-0.80329110,5.88753259,-0.00
 000007,0.00000003,-1.25766232,0.00123465,-0.00089397,-0.00000001,0.029
 80193,-0.00261852,-0.01435463,-0.00000005,0.00182560,0.00628701,-0.000
 00001,0.00000002,0.00211395,0.00000004,0.00000005,0.03825702,1.0735327
 9,0.91312167,0.00000002,-0.02072501,0.00176429,0.,-1.03669984,0.863436
 36,-5.84255318,-0.00000005,0.00072478,0.04499959,-0.00000015,-0.854168
 02,5.77412548,0.,-0.00000003,1.23521297,0.,0.00000002,-0.02284723,0.,0
 .00000004,-1.23685892,-0.00019584,0.00129646,0.,-0.00812235,-0.0022168
 7,-0.00000001,0.00005079,-0.00324849,0.,0.00692401,0.00039572,-0.00141
 055,0.00000002,0.00687243,-0.01167411,0.00000009,-0.00775120,0.0041010
 0,0.,0.00148784,0.00690291,0.,0.,-0.00024571,0.00000004,-0.00000003,0.
 00180203,0.,0.00000005,-0.00056476,-0.00000002,-0.00000003,-0.00193690
 ,-0.00010599,-0.00088602,-0.00015898,-0.00117444,-0.00096741,-0.007969
 84,0.00030729,0.00278650,0.00252378,0.00071280,-0.00057451,-0.00030563
 ,-0.00031963,-0.00014214,-0.00122814,-0.00031548,-0.00425240,-0.011044
 54,-0.00288750,0.00318727,0.00452919,0.00521926,0.00128678,0.00118630,
 -0.00022701,0.00015881,0.00542147,-0.00005255,-0.00154728,-0.00038179,
 -0.00612038,0.00260549,-0.00984040,0.00145185,0.00418828,0.00177674,-0
 .00019485,-0.00085251,0.00045844,0.00540785,-0.00294999,0.00742882,-0.
 00010599,-0.00088599,0.00015900,-0.00117427,-0.00096754,0.00796981,0.0
 0030730,0.00278645,-0.00252379,0.00071242,-0.00057452,0.00030561,0.000
 56648,-0.00032667,-0.00053564,-0.00031942,-0.00014224,-0.00122810,0.00
 031550,-0.00425267,-0.01104484,0.00288751,0.00318733,0.00452918,-0.005
 21928,0.00128692,0.00118628,0.00022702,-0.00032668,0.00129973,-0.00123
 877,0.00015894,0.00542169,0.00005256,0.00154726,-0.00038182,0.00612031
 ,-0.00260551,-0.00984124,-0.00145185,-0.00418819,0.00177678,0.00019488
 ,0.00085245,0.00045839,0.00053574,0.00123874,0.00056614,-0.00540792,0.
 00295002,0.00742969,-0.13453706,-0.10846104,0.00000005,0.00015948,0.00
 318045,0.,-0.01677333,-0.01231758,0.,-0.00008184,0.00014423,0.,0.00001
 347,0.00008834,0.00004369,0.00001348,0.00008839,-0.00004370,0.15120579
 ,-0.05763807,-0.02675799,0.00000002,-0.00002375,-0.00316850,-0.0000000
 2,-0.05934134,0.01026874,0.,0.00010735,-0.00029184,0.,-0.00019069,-0.0
 0016401,-0.00020522,-0.00019069,-0.00016393,0.00020524,0.11727720,0.02
 027754,0.00000007,0.,0.02134472,0.,0.00000003,0.00035589,-0.00000002,0
 .00000001,0.02150442,0.,0.,0.00002849,-0.00003293,-0.00007801,-0.00000
 795,0.00003292,0.00007800,-0.00000794,-0.00000005,-0.00000002,-0.04321
 764,-0.00047945,-0.00013046,0.00058312,-0.00000003,-0.00000002,-0.0000
 9913,0.00140960,0.00028207,-0.00000003,3.07303006,-0.00075214,0.000012
 84,-0.00000003,0.41210957,-0.48617653,0.,-0.00000002,0.00041460,0.0000
 0010,-0.00000029,0.35895575,0.00005893,0.00030616,-0.00000002,-0.00202
 239,0.00086400,0.,-0.00015386,0.00016572,-0.00056905,0.00000004,-0.001
 64722,0.00059430,0.00000010,-0.00047503,0.00059433,0.00000002,0.000000
 02,-0.00002134,0.,0.00000002,-0.00093405,0.,-0.00000002,-0.00001794,-0
 .00090379,-0.00028676,-0.00000001,-3.20188231,-0.72233448,0.,0.0015277
 3,0.00121702,0.00000001,3.17837951,0.00043845,-0.00049603,-0.00000002,
 -0.73769153,0.58829019,-0.00000006,-0.00036773,0.00013231,0.00000001,0
 .72135450,-0.58345341,0.00000001,0.00000002,0.00020208,-0.00000011,0.,
 0.70556568,-0.00000001,-0.00000002,-0.00005264,0.00000020,0.,-0.691630
 55,-0.00019289,-0.00010802,0.00004157,0.06488660,0.15499879,-0.2829338
 8,0.00034819,0.00039161,-0.00009316,0.01133259,0.00817840,-0.00288702,
 -0.08528807,0.00012570,0.00024415,-0.00001138,0.16325277,-0.05119694,0
 .41609835,-0.00011722,-0.00041458,0.00002624,0.00016594,-0.00233341,0.
 00209515,-0.16398629,0.04571240,-0.00013379,0.00004814,-0.00027654,-0.
 27914203,0.39401184,-0.53201440,0.00021190,-0.00048846,0.00050380,0.00
 157093,0.00427046,-0.00700360,0.28170692,-0.40799155,0.54129991,-0.000
 19291,-0.00010804,-0.00004153,0.06488579,0.15499872,0.28293376,0.00034
 824,0.00039168,0.00009316,0.01133264,0.00817831,0.00288695,0.00887428,
 0.00058394,-0.00417571,-0.08528735,0.00012552,0.00024409,0.00001140,0.
 16325256,-0.05119761,-0.41609810,-0.00011724,-0.00041452,-0.00002626,0
 .00016584,-0.00233350,-0.00209515,0.00058403,0.00793254,0.01022490,-0.
 16398608,0.04571316,0.00013378,-0.00004815,-0.00027662,0.27914206,-0.3
 9401157,-0.53201530,-0.00021190,0.00048838,0.00050386,-0.00157114,-0.0
 0427039,-0.00700357,0.00417578,-0.01022472,-0.00252762,-0.28170680,0.4
 0799114,0.54130075,0.00030051,0.00004505,0.00000004,-0.00030734,0.0001
 1555,0.,-0.00010683,-0.00004378,-0.00000003,0.00021363,-0.00009040,-0.
 00000001,0.00003931,-0.00002484,-0.00003822,0.00003930,-0.00002464,0.0
 0003824,-0.00017859,0.00002721,-0.00001908,0.,0.00044180,-0.00032624,0
 .00000002,-0.00009294,0.00007719,-0.00000001,-0.00028206,0.00019384,0.
 ,-0.00005854,0.00005583,-0.00007533,-0.00005853,0.00005583,0.00007531,
 0.00002306,-0.00003737,0.00000001,0.,0.00005696,0.00000002,0.00000003,
 0.00002771,0.,-0.00000002,0.00001832,0.,0.,-0.00007741,-0.00001021,0.0
 0000791,0.00001845,0.00001019,-0.00000793,0.00001850,-0.00000002,0.,-0
 .00006252,0.00021544,-0.00020035,0.00024454,-0.00000006,-0.00000004,0.
 00069395,0.00020756,0.00013569,-0.00000007,-0.22402703,0.00001489,0.00
 068688,-0.00000023,-1.15436045,0.36790188,0.00000007,0.00000002,0.0010
 9129,-0.00000032,0.00000113,2.81093916,-0.00030428,0.00001011,-0.00000
 005,-0.00071054,-0.00020044,0.00000003,0.00032145,0.00016488,-0.000457
 64,0.00000010,0.00096328,-0.00056345,-0.00000005,0.00005636,0.00049732
 ,0.00000002,0.00000002,-0.00053408,0.00000005,0.00000007,-0.00235628,0
 .00000003,-0.00000002,0.00048183,-0.00011556,0.00000504,-0.00000003,0.
 02271194,0.02505869,0.00000037,0.00013024,-0.00003677,0.,-0.00617283,-
 0.00005695,0.00036613,0.00000003,0.00118375,-0.01624321,-0.00000013,0.
 00009063,-0.00047816,-0.00000001,-0.00573266,0.00087086,0.,0.,-0.00021
 527,0.00000015,-0.00000017,-0.01785383,0.,0.,0.00043684,-0.00000014,0.
 ,-0.00379121,-0.00002637,-0.00001058,-0.00042862,0.10085073,0.56469322
 ,-0.91653267,0.00027997,-0.00052726,0.00071262,-0.00827639,0.00227479,
 -0.00455395,-0.08724502,0.00004293,-0.00040508,0.00017689,0.57592580,-
 0.17589680,1.19153148,0.00001274,0.00046556,-0.00007716,-0.00962446,0.
 00775073,-0.00699646,-0.56564095,0.16989388,-0.00004538,-0.00015244,-0
 .00040266,-0.92720385,1.17970030,-1.39590986,0.00023027,-0.00010641,0.
 00093870,0.00642513,-0.00068549,0.01069252,0.92072081,-1.18165210,1.37
 886707,-0.00002634,-0.00001057,0.00042873,0.10085160,0.56469369,0.9165
 3260,0.00027996,-0.00052729,-0.00071268,-0.00827657,0.00227476,0.00455
 395,-0.00550924,-0.00070662,-0.00005647,-0.08724570,0.00004289,-0.0004
 0507,-0.00017677,0.57592574,-0.17589627,-1.19153240,0.00001269,0.00046
 555,0.00007712,-0.00962466,0.00775084,0.00699662,-0.00070627,-0.001829
 71,0.00294522,-0.56564101,0.16989329,0.00004530,0.00015242,-0.00040283
 ,0.92720399,-1.17970125,-1.39590970,-0.00023031,0.00010645,0.00093879,
 -0.00642534,0.00068562,0.01069275,0.00005665,-0.00294476,0.00584718,-0
 .92072090,1.18165241,1.37886666,0.00004955,0.00007066,0.00000010,0.000
 11574,0.00010041,-0.00000008,0.00000320,-0.00009320,-0.00000004,-0.000
 00084,-0.00003432,0.,-0.00007369,-0.00000944,-0.00007051,-0.00007371,-
 0.00000938,0.00007061,-0.00002026,-0.00000830,-0.00002975,0.00000002,0
 .00022619,0.00001097,-0.00000004,0.00001791,0.00007081,0.,-0.00004518,
 -0.00001720,0.00000001,-0.00008294,0.00002141,-0.00004909,-0.00008295,
 0.00002135,0.00004912,-0.00002473,-0.00007760,0.00000005,0.00000002,-0
 .00023039,0.00000005,0.00000015,-0.00000078,0.00000003,-0.00000007,0.0
 0009420,0.00000002,-0.00000002,0.00003820,0.00002515,-0.00003789,-0.00
 003295,-0.00002523,0.00003781,-0.00003284,-0.00000007,0.,0.00016455,5.
 65029693,2.60629595,-0.17699687,0.00000003,0.,-1.47366576,0.00077279,-
 0.00115000,0.00000001,0.00105708,-0.00107046,-0.00060178,0.,0.00015743
 ,0.00042024,0.00000002,0.,0.00049024,0.00000011,0.00000003,0.00135469,
 0.01862781,0.05837822,0.,-0.00068962,-0.00050978,-0.00000001,-0.052226
 24,0.03463786,-0.20113719,0.,0.00058380,0.00282375,0.,-0.04911784,0.22
 364073,-0.00000001,0.00000002,0.04474337,0.,0.00000004,-0.00142311,0.,
 -0.00000004,-0.05198614,-0.00021124,0.00010360,0.,0.00000824,-0.000145
 48,-0.00000007,0.00002220,-0.00012969,-0.00000002,0.00002702,0.0005367
 8,-0.00048290,0.,0.00033519,-0.00074860,-0.00000017,-0.00015034,0.0002
 7630,0.,0.00005977,0.00049228,0.,0.,0.00004785,0.00000001,-0.00000002,
 0.00001255,0.,0.,-0.00008457,-0.00000005,0.00000002,-0.00003431,0.0000
 5854,-0.00007908,-0.00008773,-0.00007300,-0.00011290,-0.00017298,0.000
 00314,0.00012246,0.00013410,0.00000734,-0.00003867,-0.00000773,0.00000
 581,-0.00016772,-0.00002755,-0.00017903,-0.00032958,-0.00060325,-0.000
 42000,-0.00000531,0.00019873,0.00030791,0.00007426,0.00006853,-0.00001
 252,0.00010345,0.00033684,0.00001541,-0.00011735,-0.00006133,-0.000070
 41,0.00001001,-0.00010283,-0.00001348,0.00015075,0.00004104,-0.0000237
 7,-0.00006177,0.00003314,0.00006282,0.00004514,0.00004727,0.00005854,-
 0.00007910,0.00008773,-0.00007324,-0.00011283,0.00017294,0.00000313,0.
 00012244,-0.00013408,0.00000727,-0.00003868,0.00000776,0.00004346,-0.0
 0002359,-0.00000995,0.00000613,-0.00016767,-0.00002755,0.00017902,-0.0
 0032950,-0.00060361,0.00042014,-0.00000533,0.00019873,-0.00030792,0.00
 007428,0.00006873,0.00001251,-0.00002362,0.00006141,-0.00010367,0.0001
 0338,0.00033700,-0.00001543,0.00011733,-0.00006130,0.00007027,-0.00001
 006,-0.00010247,0.00001349,-0.00015073,0.00004100,0.00002392,0.0000619
 2,0.00003330,0.00000991,0.00010362,-0.00000498,-0.00006278,-0.00004520
 ,0.00004680,-5.66960336,-2.66346958,-0.00000003,-0.00100225,0.00179404
 ,0.,0.03425957,0.01378098,0.,0.00013917,-0.00070406,0.,-0.00004528,0.0
 0034848,0.00003938,-0.00004528,0.00034846,-0.00003937,5.63629742,-2.64
 006474,0.37927386,0.,0.00073268,-0.00068675,0.,-0.00858960,-0.02600105
 ,0.,-0.00003675,0.00032565,0.,0.00002837,-0.00003471,0.00007688,0.0000
 2837,-0.00003471,-0.00007687,2.64790168,-0.35284228,-0.00000001,-0.000
 00001,1.42850692,0.,0.,-0.00022906,-0.00000002,0.,0.00866840,0.,0.,-0.
 00000797,0.00006161,0.00015489,0.00004767,-0.00006160,-0.00015488,0.00
 004764,0.00000003,0.00000001,-1.43703360\\@


 SUPPORT THE RIGHT TO ARM BEARS!
 (ADD A CLAWS TO THE BILL OF RIGHTS)
 Job cpu time:       2 days 12 hours  8 minutes 24.5 seconds.
 Elapsed time:       0 days  2 hours 11 minutes 20.4 seconds.
 File lengths (MBytes):  RWF=   4588 Int=      0 D2E=      0 Chk=     52 Scr=      8
 Normal termination of Gaussian 16 at Tue Nov 30 14:55:10 2021.
