 Entering Gaussian System, Link 0=g16
 Input=hf_fme_mp2_avdz_opt_anharm.gjf
 Output=hf_fme_mp2_avdz_opt_anharm.log
 Initial command:
 /sw/contrib/gaussian/g16/A03/g16/l1.exe "/gscratch/scrubbed/gds001/Gau-19894.inp" -scrdir="/gscratch/scrubbed/gds001/"
 Entering Link 1 = /sw/contrib/gaussian/g16/A03/g16/l1.exe PID=     19895.
  
 Copyright (c) 1988,1990,1992,1993,1995,1998,2003,2009,2016,
            Gaussian, Inc.  All Rights Reserved.
  
 This is part of the Gaussian(R) 16 program.  It is based on
 the Gaussian(R) 09 system (copyright 2009, Gaussian, Inc.),
 the Gaussian(R) 03 system (copyright 2003, Gaussian, Inc.),
 the Gaussian(R) 98 system (copyright 1998, Gaussian, Inc.),
 the Gaussian(R) 94 system (copyright 1995, Gaussian, Inc.),
 the Gaussian 92(TM) system (copyright 1992, Gaussian, Inc.),
 the Gaussian 90(TM) system (copyright 1990, Gaussian, Inc.),
 the Gaussian 88(TM) system (copyright 1988, Gaussian, Inc.),
 the Gaussian 86(TM) system (copyright 1986, Carnegie Mellon
 University), and the Gaussian 82(TM) system (copyright 1983,
 Carnegie Mellon University). Gaussian is a federally registered
 trademark of Gaussian, Inc.
  
 This software contains proprietary and confidential information,
 including trade secrets, belonging to Gaussian, Inc.
  
 This software is provided under written license and may be
 used, copied, transmitted, or stored only in accord with that
 written license.
  
 The following legend is applicable only to US Government
 contracts under FAR:
  
                    RESTRICTED RIGHTS LEGEND
  
 Use, reproduction and disclosure by the US Government is
 subject to restrictions as set forth in subparagraphs (a)
 and (c) of the Commercial Computer Software - Restricted
 Rights clause in FAR 52.227-19.
  
 Gaussian, Inc.
 340 Quinnipiac St., Bldg. 40, Wallingford CT 06492
  
  
 ---------------------------------------------------------------
 Warning -- This program may not be used in any manner that
 competes with the business of Gaussian, Inc. or will provide
 assistance to any competitor of Gaussian, Inc.  The licensee
 of this program is prohibited from giving any competitor of
 Gaussian, Inc. access to this program.  By using this program,
 the user acknowledges that Gaussian, Inc. is engaged in the
 business of creating and licensing software in the field of
 computational chemistry and represents and warrants to the
 licensee that it is not a competitor of Gaussian, Inc. and that
 it will not use this program in any manner prohibited above.
 ---------------------------------------------------------------
  

 Cite this work as:
 Gaussian 16, Revision A.03,
 M. J. Frisch, G. W. Trucks, H. B. Schlegel, G. E. Scuseria, 
 M. A. Robb, J. R. Cheeseman, G. Scalmani, V. Barone, 
 G. A. Petersson, H. Nakatsuji, X. Li, M. Caricato, A. V. Marenich, 
 J. Bloino, B. G. Janesko, R. Gomperts, B. Mennucci, H. P. Hratchian, 
 J. V. Ortiz, A. F. Izmaylov, J. L. Sonnenberg, D. Williams-Young, 
 F. Ding, F. Lipparini, F. Egidi, J. Goings, B. Peng, A. Petrone, 
 T. Henderson, D. Ranasinghe, V. G. Zakrzewski, J. Gao, N. Rega, 
 G. Zheng, W. Liang, M. Hada, M. Ehara, K. Toyota, R. Fukuda, 
 J. Hasegawa, M. Ishida, T. Nakajima, Y. Honda, O. Kitao, H. Nakai, 
 T. Vreven, K. Throssell, J. A. Montgomery, Jr., J. E. Peralta, 
 F. Ogliaro, M. J. Bearpark, J. J. Heyd, E. N. Brothers, K. N. Kudin, 
 V. N. Staroverov, T. A. Keith, R. Kobayashi, J. Normand, 
 K. Raghavachari, A. P. Rendell, J. C. Burant, S. S. Iyengar, 
 J. Tomasi, M. Cossi, J. M. Millam, M. Klene, C. Adamo, R. Cammi, 
 J. W. Ochterski, R. L. Martin, K. Morokuma, O. Farkas, 
 J. B. Foresman, and D. J. Fox, Gaussian, Inc., Wallingford CT, 2016.
 
 ******************************************
 Gaussian 16:  ES64L-G16RevA.03 25-Dec-2016
                24-Nov-2021 
 ******************************************
 %nprocshared=28
 Will use up to   28 processors via shared memory.
 %mem=41GB
 ----------------------------------------------
 # mp2/aug-cc-pvdz opt freq=(vibrot,anharmonic)
 ----------------------------------------------
 1/18=20,19=15,38=1,80=1/1,3;
 2/9=110,12=2,17=6,18=5,40=1/2;
 3/5=16,7=10,11=9,25=1,30=1,71=1/1,2,3;
 4//1;
 5/5=2,38=5/2;
 8/6=4,10=1/1;
 9/15=2,16=-3/6;
 10/5=1/2;
 6/7=2,8=2,9=2,10=2/1;
 7/12=2/1,2,3,16;
 1/18=20,19=15,80=1/3(2);
 2/9=110/2;
 99//99;
 2/9=110/2;
 3/5=16,7=10,11=9,25=1,30=1,71=1/1,2,3;
 4/5=5,16=3,69=1/1;
 5/5=2,38=5/2;
 8/6=4,10=1/1;
 9/15=2,16=-3/6;
 10/5=1/2;
 7/12=2/1,2,3,16;
 1/18=20,19=15,80=1/3(-8);
 2/9=110/2;
 6/7=2,8=2,9=2,10=2/1;
 99//99;
 ----
 bleh
 ----
 Symbolic Z-matrix:
 Charge =  0 Multiplicity = 1
 F                     1.24113  0.        -0.09643 
 H                    -0.47344  -0.00003  -0.04793 
 F                    -1.41408   0.        0.01477 
 C                     2.58534   0.00011  -0.41576 
 H                     2.82394   0.90604  -1.00995 
 H                     2.82405  -0.90564  -1.01017 
 H                     3.18675   0.00004   0.51644 
 
 Add virtual bond connecting atoms H2         and F1         Dist= 3.24D+00.

 GradGradGradGradGradGradGradGradGradGradGradGradGradGradGradGradGradGrad
 Berny optimization.
 Initialization pass.
                           ----------------------------
                           !    Initial Parameters    !
                           ! (Angstroms and Degrees)  !
 --------------------------                            --------------------------
 ! Name  Definition              Value          Derivative Info.                !
 --------------------------------------------------------------------------------
 ! R1    R(1,2)                  1.7153         estimate D2E/DX2                !
 ! R2    R(1,4)                  1.3816         estimate D2E/DX2                !
 ! R3    R(2,3)                  0.9427         estimate D2E/DX2                !
 ! R4    R(4,5)                  1.1094         estimate D2E/DX2                !
 ! R5    R(4,6)                  1.1094         estimate D2E/DX2                !
 ! R6    R(4,7)                  1.1094         estimate D2E/DX2                !
 ! A1    A(1,4,5)              109.4579         estimate D2E/DX2                !
 ! A2    A(1,4,6)              109.4579         estimate D2E/DX2                !
 ! A3    A(1,4,7)              109.4647         estimate D2E/DX2                !
 ! A4    A(5,4,6)              109.4794         estimate D2E/DX2                !
 ! A5    A(5,4,7)              109.4837         estimate D2E/DX2                !
 ! A6    A(6,4,7)              109.4837         estimate D2E/DX2                !
 ! A7    L(2,1,4,5,-1)         172.8805         estimate D2E/DX2                !
 ! A8    L(1,2,3,5,-1)         181.4526         estimate D2E/DX2                !
 ! A9    L(2,1,4,5,-2)         196.6444         estimate D2E/DX2                !
 ! A10   L(1,2,3,5,-2)         184.8157         estimate D2E/DX2                !
 ! D1    D(5,4,7,6)           -120.0253         estimate D2E/DX2                !
 --------------------------------------------------------------------------------
 Trust Radius=3.00D-01 FncErr=1.00D-07 GrdErr=1.00D-07 EigMax=2.50D+02 EigMin=1.00D-04
 Number of steps in this run=     27 maximum allowed number of steps=    100.
 GradGradGradGradGradGradGradGradGradGradGradGradGradGradGradGradGradGrad

                          Input orientation:                          
 ---------------------------------------------------------------------
 Center     Atomic      Atomic             Coordinates (Angstroms)
 Number     Number       Type             X           Y           Z
 ---------------------------------------------------------------------
      1          9           0        1.241132   -0.000002   -0.096430
      2          1           0       -0.473439   -0.000032   -0.047926
      3          9           0       -1.414079    0.000001    0.014768
      4          6           0        2.585344    0.000114   -0.415758
      5          1           0        2.823941    0.906038   -1.009952
      6          1           0        2.824045   -0.905640   -1.010170
      7          1           0        3.186754    0.000036    0.516443
 ---------------------------------------------------------------------
                    Distance matrix (angstroms):
                    1          2          3          4          5
     1  F    0.000000
     2  H    1.715257   0.000000
     3  F    2.657538   0.942727   0.000000
     4  C    1.381621   3.080821   4.022529   0.000000
     5  H    2.039783   3.552347   4.453287   1.109366   0.000000
     6  H    2.039783   3.552385   4.453356   1.109366   1.811678
     7  H    2.039867   3.703448   4.628103   1.109365   1.811726
                    6          7
     6  H    0.000000
     7  H    1.811726   0.000000
 Stoichiometry    CH4F2
 Framework group  C1[X(CH4F2)]
 Deg. of freedom    15
 Full point group                 C1      NOp   1
 Largest Abelian subgroup         C1      NOp   1
 Largest concise Abelian subgroup C1      NOp   1
                         Standard orientation:                         
 ---------------------------------------------------------------------
 Center     Atomic      Atomic             Coordinates (Angstroms)
 Number     Number       Type             X           Y           Z
 ---------------------------------------------------------------------
      1          9           0        0.434397    0.118532   -0.000001
      2          1           0       -1.276382   -0.005335    0.000040
      3          9           0       -2.218564   -0.037389   -0.000003
      4          6           0        1.803876   -0.064237   -0.000000
      5          1           0        2.100942   -0.631879   -0.905665
      6          1           0        2.101021   -0.631280    0.906013
      7          1           0        2.308663    0.923630   -0.000349
 ---------------------------------------------------------------------
 Rotational constants (GHZ):         138.3024306           3.3072175           3.2997397
 Standard basis: Aug-CC-pVDZ (5D, 7F)
 There are   111 symmetry adapted cartesian basis functions of A   symmetry.
 There are   105 symmetry adapted basis functions of A   symmetry.
   105 basis functions,   173 primitive gaussians,   111 cartesian basis functions
    14 alpha electrons       14 beta electrons
       nuclear repulsion energy        72.8502733532 Hartrees.
 NAtoms=    7 NActive=    7 NUniq=    7 SFac= 1.00D+00 NAtFMM=   60 NAOKFM=F Big=F
 Integral buffers will be    131072 words long.
 Raffenetti 1 integral format.
 Two-electron integral symmetry is turned on.
 One-electron integrals computed using PRISM.
 NBasis=   105 RedAO= T EigKep=  6.54D-04  NBF=   105
 NBsUse=   105 1.00D-06 EigRej= -1.00D+00 NBFU=   105
 ExpMin= 2.97D-02 ExpMax= 1.47D+04 ExpMxC= 5.03D+02 IAcc=3 IRadAn=         5 AccDes= 0.00D+00
 Harris functional with IExCor=  205 and IRadAn=       5 diagonalized for initial guess.
 HarFok:  IExCor=  205 AccDes= 0.00D+00 IRadAn=         5 IDoV= 1 UseB2=F ITyADJ=14
 ICtDFT=  3500011 ScaDFX=  1.000000  1.000000  1.000000  1.000000
 FoFCou: FMM=F IPFlag=           0 FMFlag=      100000 FMFlg1=           0
         NFxFlg=           0 DoJE=T BraDBF=F KetDBF=T FulRan=T
         wScrn=  0.000000 ICntrl=       500 IOpCl=  0 I1Cent=   200000004 NGrid=           0
         NMat0=    1 NMatS0=      1 NMatT0=    0 NMatD0=    1 NMtDS0=    0 NMtDT0=    0
 Petite list used in FoFCou.
 Keep R1 ints in memory in canonical form, NReq=21420521.
 Requested convergence on RMS density matrix=1.00D-08 within 128 cycles.
 Requested convergence on MAX density matrix=1.00D-06.
 Requested convergence on             energy=1.00D-06.
 No special actions if energy rises.
 SCF Done:  E(RHF) =  -239.094492175     A.U. after   11 cycles
            NFock= 11  Conv=0.24D-08     -V/T= 2.0015
 ExpMin= 2.97D-02 ExpMax= 1.47D+04 ExpMxC= 5.03D+02 IAcc=3 IRadAn=         5 AccDes= 0.00D+00
 HarFok:  IExCor=  205 AccDes= 0.00D+00 IRadAn=         5 IDoV=-2 UseB2=F ITyADJ=14
 ICtDFT= 12500011 ScaDFX=  1.000000  1.000000  1.000000  1.000000
 Range of M.O.s used for correlation:     4   105
 NBasis=   105 NAE=    14 NBE=    14 NFC=     3 NFV=     0
 NROrb=    102 NOA=    11 NOB=    11 NVA=    91 NVB=    91

 **** Warning!!: The largest alpha MO coefficient is  0.18643401D+02

 Fully direct method using O(ONN) memory.
 JobTyp=1 Pass  1:  I=   4 to  14 NPSUse= 28 ParTrn=T ParDer=T DoDerP=T.
 Spin components of T(2) and E(2):
     alpha-alpha T2 =       0.1806007547D-01 E2=     -0.7406635027D-01
     alpha-beta  T2 =       0.1066278053D+00 E2=     -0.4363019072D+00
     beta-beta   T2 =       0.1806007547D-01 E2=     -0.7406635027D-01
 ANorm=    0.1068993899D+01
 E2 =    -0.5844346078D+00 EUMP2 =    -0.23967892678313D+03
          IDoAtm=1111111
          Differentiating once with respect to electric field.
                with respect to dipole field.
          Differentiating once with respect to nuclear coordinates.
 Keep R1 ints in memory in canonical form, NReq=21423549.
          There are     1 degrees of freedom in the 1st order CPHF.  IDoFFX=0 NUNeed=     1.
 LinEq1:  Iter=  0 NonCon=     1 RMS=5.11D-03 Max=5.15D-02 NDo=     1
 AX will form     1 AO Fock derivatives at one time.
 LinEq1:  Iter=  1 NonCon=     1 RMS=1.35D-03 Max=9.27D-03 NDo=     1
 LinEq1:  Iter=  2 NonCon=     1 RMS=2.27D-04 Max=2.28D-03 NDo=     1
 LinEq1:  Iter=  3 NonCon=     1 RMS=5.13D-05 Max=4.96D-04 NDo=     1
 LinEq1:  Iter=  4 NonCon=     1 RMS=1.84D-05 Max=2.07D-04 NDo=     1
 LinEq1:  Iter=  5 NonCon=     1 RMS=5.18D-06 Max=4.52D-05 NDo=     1
 LinEq1:  Iter=  6 NonCon=     1 RMS=1.47D-06 Max=1.11D-05 NDo=     1
 LinEq1:  Iter=  7 NonCon=     1 RMS=2.71D-07 Max=2.19D-06 NDo=     1
 LinEq1:  Iter=  8 NonCon=     1 RMS=4.58D-08 Max=2.90D-07 NDo=     1
 LinEq1:  Iter=  9 NonCon=     1 RMS=6.79D-09 Max=6.80D-08 NDo=     1
 LinEq1:  Iter= 10 NonCon=     1 RMS=9.64D-10 Max=6.43D-09 NDo=     1
 LinEq1:  Iter= 11 NonCon=     1 RMS=1.47D-10 Max=1.08D-09 NDo=     1
 LinEq1:  Iter= 12 NonCon=     0 RMS=2.46D-11 Max=2.79D-10 NDo=     1
 Linear equations converged to 1.000D-10 1.000D-09 after    12 iterations.
 End of Minotr F.D. properties file   721 does not exist.
 End of Minotr F.D. properties file   722 does not exist.
 End of Minotr F.D. properties file   788 does not exist.

 **********************************************************************

            Population analysis using the SCF density.

 **********************************************************************

 Orbital symmetries:
       Occupied  (A) (A) (A) (A) (A) (A) (A) (A) (A) (A) (A) (A)
                 (A) (A)
       Virtual   (A) (A) (A) (A) (A) (A) (A) (A) (A) (A) (A) (A)
                 (A) (A) (A) (A) (A) (A) (A) (A) (A) (A) (A) (A)
                 (A) (A) (A) (A) (A) (A) (A) (A) (A) (A) (A) (A)
                 (A) (A) (A) (A) (A) (A) (A) (A) (A) (A) (A) (A)
                 (A) (A) (A) (A) (A) (A) (A) (A) (A) (A) (A) (A)
                 (A) (A) (A) (A) (A) (A) (A) (A) (A) (A) (A) (A)
                 (A) (A) (A) (A) (A) (A) (A) (A) (A) (A) (A) (A)
                 (A) (A) (A) (A) (A) (A) (A)
 The electronic state is 1-A.
 Alpha  occ. eigenvalues --  -26.33412 -26.27185 -11.34809  -1.63985  -1.56302
 Alpha  occ. eigenvalues --   -0.98403  -0.75545  -0.73230  -0.73153  -0.69414
 Alpha  occ. eigenvalues --   -0.61257  -0.61257  -0.55638  -0.55631
 Alpha virt. eigenvalues --    0.02696   0.05145   0.05167   0.06855   0.10580
 Alpha virt. eigenvalues --    0.13401   0.13417   0.15789   0.23336   0.23346
 Alpha virt. eigenvalues --    0.24827   0.26192   0.26203   0.26248   0.31150
 Alpha virt. eigenvalues --    0.31502   0.32238   0.36335   0.39609   0.39996
 Alpha virt. eigenvalues --    0.42656   0.44156   0.45361   0.47586   0.49011
 Alpha virt. eigenvalues --    0.52673   0.54357   0.56096   0.57826   0.59037
 Alpha virt. eigenvalues --    0.60475   0.62922   0.64946   0.68667   0.71342
 Alpha virt. eigenvalues --    0.72626   0.72797   0.90410   0.92114   0.93241
 Alpha virt. eigenvalues --    1.02039   1.10177   1.17515   1.28950   1.29367
 Alpha virt. eigenvalues --    1.37690   1.37730   1.42644   1.43888   1.50081
 Alpha virt. eigenvalues --    1.50488   1.55449   1.55585   1.67353   1.73258
 Alpha virt. eigenvalues --    1.74147   1.76728   1.82849   1.85496   1.87985
 Alpha virt. eigenvalues --    1.88506   1.88531   1.90873   2.09131   2.15391
 Alpha virt. eigenvalues --    2.17304   2.20108   2.20131   2.26047   2.29458
 Alpha virt. eigenvalues --    2.32397   2.39424   2.62299   2.64994   2.65543
 Alpha virt. eigenvalues --    2.75861   2.83317   2.85361   3.16602   3.51856
 Alpha virt. eigenvalues --    3.71790   4.88864   4.88868   4.93849   4.94168
 Alpha virt. eigenvalues --    4.98757   4.99277   5.10597   5.11994   5.20531
 Alpha virt. eigenvalues --    5.54164
          Condensed to atoms (all electrons):
               1          2          3          4          5          6
     1  F    9.798183   0.005282  -0.025109   0.022806  -0.029352  -0.029363
     2  H    0.005282   0.333051   0.212664   0.003684   0.000785   0.000785
     3  F   -0.025109   0.212664   9.194531   0.002503   0.000400   0.000400
     4  C    0.022806   0.003684   0.002503   3.934195   0.414142   0.414139
     5  H   -0.029352   0.000785   0.000400   0.414142   0.886236  -0.100592
     6  H   -0.029363   0.000785   0.000400   0.414139  -0.100592   0.886245
     7  H   -0.067257  -0.001359   0.000346   0.397225  -0.103359  -0.103353
               7
     1  F   -0.067257
     2  H   -0.001359
     3  F    0.000346
     4  C    0.397225
     5  H   -0.103359
     6  H   -0.103353
     7  H    0.936727
 Mulliken charges:
               1
     1  F   -0.675190
     2  H    0.445107
     3  F   -0.385734
     4  C    0.811306
     5  H   -0.068260
     6  H   -0.068259
     7  H   -0.058970
 Sum of Mulliken charges =  -0.00000
 Mulliken charges with hydrogens summed into heavy atoms:
               1
     1  F   -0.675190
     3  F    0.059373
     4  C    0.615817
 Electronic spatial extent (au):  <R**2>=            343.2952
 Charge=             -0.0000 electrons
 Dipole moment (field-independent basis, Debye):
    X=              4.7639    Y=             -0.2029    Z=              0.0001  Tot=              4.7682
 Quadrupole moment (field-independent basis, Debye-Ang):
   XX=            -19.7319   YY=            -17.4495   ZZ=            -17.4263
   XY=             -0.3461   XZ=             -0.0001   YZ=              0.0000
 Traceless Quadrupole moment (field-independent basis, Debye-Ang):
   XX=             -1.5293   YY=              0.7531   ZZ=              0.7762
   XY=             -0.3461   XZ=             -0.0001   YZ=              0.0000
 Octapole moment (field-independent basis, Debye-Ang**2):
  XXX=             16.2716  YYY=              1.1057  ZZZ=              0.0008  XYY=             -2.0585
  XXY=              0.4825  XXZ=              0.0000  XZZ=             -2.2338  YZZ=             -0.6596
  YYZ=             -0.0008  XYZ=             -0.0001
 Hexadecapole moment (field-independent basis, Debye-Ang**3):
 XXXX=           -356.0539 YYYY=            -21.3603 ZZZZ=            -20.3149 XXXY=              0.6989
 XXXZ=             -0.0000 YYYX=              2.2360 YYYZ=              0.0003 ZZZX=              0.0018
 ZZZY=             -0.0001 XXYY=            -57.5344 XXZZ=            -58.3102 YYZZ=             -6.6649
 XXYZ=             -0.0005 YYXZ=             -0.0018 ZZXY=             -1.6355
 N-N= 7.285027335316D+01 E-N=-7.158496396580D+02  KE= 2.387445336162D+02
 Calling FoFJK, ICntrl=  10002127 FMM=F ISym2X=0 I1Cent= 0 IOpClX= 0 NMat=1 NMatS=1 NMatT=0.
 ***** Axes restored to original set *****
 -------------------------------------------------------------------
 Center     Atomic                   Forces (Hartrees/Bohr)
 Number     Number              X              Y              Z
 -------------------------------------------------------------------
      1        9          -0.016046217   -0.000002250    0.005970134
      2        1          -0.014930407    0.000001090    0.000577199
      3        9           0.011347701   -0.000000793   -0.000895244
      4        6           0.033822373    0.000003197   -0.009084107
      5        1          -0.003902359   -0.005136001    0.003997182
      6        1          -0.003903001    0.005134575    0.003998420
      7        1          -0.006388090    0.000000182   -0.004563584
 -------------------------------------------------------------------
 Cartesian Forces:  Max     0.033822373 RMS     0.009878361

 GradGradGradGradGradGradGradGradGradGradGradGradGradGradGradGradGradGrad
 Berny optimization.
 FormGI is forming the generalized inverse of G from B-inverse, IUseBI=4.
 Internal  Forces:  Max     0.020363292 RMS     0.006597641
 Search for a local minimum.
 Step number   1 out of a maximum of   27
 All quantities printed in internal units (Hartrees-Bohrs-Radians)
 Mixed Optimization -- RFO/linear search
 Second derivative matrix not updated -- first step.
 The second derivative matrix:
                          R1        R2        R3        R4        R5
           R1           0.07189
           R2           0.00000   0.48807
           R3           0.00000   0.00000   0.59361
           R4           0.00000   0.00000   0.00000   0.32667
           R5           0.00000   0.00000   0.00000   0.00000   0.32667
           R6           0.00000   0.00000   0.00000   0.00000   0.00000
           A1           0.00000   0.00000   0.00000   0.00000   0.00000
           A2           0.00000   0.00000   0.00000   0.00000   0.00000
           A3           0.00000   0.00000   0.00000   0.00000   0.00000
           A4           0.00000   0.00000   0.00000   0.00000   0.00000
           A5           0.00000   0.00000   0.00000   0.00000   0.00000
           A6           0.00000   0.00000   0.00000   0.00000   0.00000
           A7           0.00000   0.00000   0.00000   0.00000   0.00000
           A8           0.00000   0.00000   0.00000   0.00000   0.00000
           A9           0.00000   0.00000   0.00000   0.00000   0.00000
           A10          0.00000   0.00000   0.00000   0.00000   0.00000
           D1           0.00000   0.00000   0.00000   0.00000   0.00000
                          R6        A1        A2        A3        A4
           R6           0.32667
           A1           0.00000   0.16000
           A2           0.00000   0.00000   0.16000
           A3           0.00000   0.00000   0.00000   0.16000
           A4           0.00000   0.00000   0.00000   0.00000   0.16000
           A5           0.00000   0.00000   0.00000   0.00000   0.00000
           A6           0.00000   0.00000   0.00000   0.00000   0.00000
           A7           0.00000   0.00000   0.00000   0.00000   0.00000
           A8           0.00000   0.00000   0.00000   0.00000   0.00000
           A9           0.00000   0.00000   0.00000   0.00000   0.00000
           A10          0.00000   0.00000   0.00000   0.00000   0.00000
           D1           0.00000   0.00000   0.00000   0.00000   0.00000
                          A5        A6        A7        A8        A9
           A5           0.16000
           A6           0.00000   0.16000
           A7           0.00000   0.00000   0.01670
           A8           0.00000   0.00000   0.00000   0.01521
           A9           0.00000   0.00000   0.00000   0.00000   0.01670
           A10          0.00000   0.00000   0.00000   0.00000   0.00000
           D1           0.00000   0.00000   0.00000   0.00000   0.00000
                          A10       D1
           A10          0.01521
           D1           0.00000   0.00230
 ITU=  0
     Eigenvalues ---    0.01521   0.01521   0.01670   0.01670   0.07189
     Eigenvalues ---    0.07236   0.16000   0.16000   0.16000   0.16000
     Eigenvalues ---    0.32667   0.32667   0.32667   0.48807   0.59361
 RFO step:  Lambda=-2.08025278D-03 EMin= 1.52134420D-02
 Linear search not attempted -- first point.
 Iteration  1 RMS(Cart)=  0.03687492 RMS(Int)=  0.00120977
 Iteration  2 RMS(Cart)=  0.00158965 RMS(Int)=  0.00017909
 Iteration  3 RMS(Cart)=  0.00000189 RMS(Int)=  0.00017908
 Iteration  4 RMS(Cart)=  0.00000000 RMS(Int)=  0.00017908
 Variable       Old X    -DE/DX   Delta X   Delta X   Delta X     New X
                                 (Linear)    (Quad)   (Total)
    R1        3.24137   0.00357   0.00000   0.04831   0.04831   3.28967
    R2        2.61089   0.02036   0.00000   0.04154   0.04154   2.65243
    R3        1.78150  -0.01138   0.00000  -0.01911  -0.01911   1.76239
    R4        2.09640  -0.00713   0.00000  -0.02167  -0.02167   2.07472
    R5        2.09640  -0.00717   0.00000  -0.02182  -0.02182   2.07457
    R6        2.09640  -0.00730   0.00000  -0.02220  -0.02220   2.07420
    A1        1.91040  -0.00131   0.00000  -0.01524  -0.01521   1.89519
    A2        1.91040  -0.00119   0.00000  -0.01446  -0.01443   1.89597
    A3        1.91052  -0.00209   0.00000  -0.02006  -0.02002   1.89050
    A4        1.91078   0.00033   0.00000   0.01633   0.01583   1.92661
    A5        1.91085   0.00213   0.00000   0.01671   0.01646   1.92731
    A6        1.91085   0.00213   0.00000   0.01671   0.01646   1.92731
    A7        3.01733  -0.00110   0.00000  -0.05875  -0.05875   2.95859
    A8        3.16694  -0.00016   0.00000  -0.00900  -0.00900   3.15794
    A9        3.43209   0.00071   0.00000   0.03796   0.03796   3.47005
   A10        3.22564  -0.00006   0.00000  -0.00365  -0.00365   3.22199
    D1       -2.09484  -0.00301   0.00000  -0.04049  -0.04091  -2.13575
         Item               Value     Threshold  Converged?
 Maximum Force            0.020363     0.000450     NO 
 RMS     Force            0.006598     0.000300     NO 
 Maximum Displacement     0.088212     0.001800     NO 
 RMS     Displacement     0.036808     0.001200     NO 
 Predicted change in Energy=-1.057556D-03
 GradGradGradGradGradGradGradGradGradGradGradGradGradGradGradGradGradGrad

                          Input orientation:                          
 ---------------------------------------------------------------------
 Center     Atomic      Atomic             Coordinates (Angstroms)
 Number     Number       Type             X           Y           Z
 ---------------------------------------------------------------------
      1          9           0        1.251278   -0.021638   -0.049750
      2          1           0       -0.489431   -0.002283   -0.046398
      3          9           0       -1.421299    0.016085   -0.013884
      4          6           0        2.605834   -0.001751   -0.417025
      5          1           0        2.794696    0.903506   -1.008818
      6          1           0        2.821234   -0.899158   -1.011556
      7          1           0        3.211387    0.005756    0.498406
 ---------------------------------------------------------------------
                    Distance matrix (angstroms):
                    1          2          3          4          5
     1  F    0.000000
     2  H    1.740820   0.000000
     3  F    2.673084   0.932616   0.000000
     4  C    1.403606   3.117376   4.047301   0.000000
     5  H    2.039079   3.540084   4.421767   1.097897   0.000000
     6  H    2.039577   3.563204   4.453326   1.097818   1.802861
     7  H    2.035499   3.740713   4.660937   1.097618   1.803139
                    6          7
     6  H    0.000000
     7  H    1.803074   0.000000
 Stoichiometry    CH4F2
 Framework group  C1[X(CH4F2)]
 Deg. of freedom    15
 Full point group                 C1      NOp   1
 Largest Abelian subgroup         C1      NOp   1
 Largest concise Abelian subgroup C1      NOp   1
                         Standard orientation:                         
 ---------------------------------------------------------------------
 Center     Atomic      Atomic             Coordinates (Angstroms)
 Number     Number       Type             X           Y           Z
 ---------------------------------------------------------------------
      1          9           0        0.437473    0.157352   -0.000136
      2          1           0       -1.296447    0.002683    0.007007
      3          9           0       -2.227509   -0.050609   -0.000528
      4          6           0        1.819627   -0.087105   -0.000029
      5          1           0        2.056578   -0.757021   -0.836954
      6          1           0        2.092794   -0.555983    0.954297
      7          1           0        2.339633    0.872267   -0.118199
 ---------------------------------------------------------------------
 Rotational constants (GHZ):         129.8249148           3.2758445           3.2627966
 Standard basis: Aug-CC-pVDZ (5D, 7F)
 There are   111 symmetry adapted cartesian basis functions of A   symmetry.
 There are   105 symmetry adapted basis functions of A   symmetry.
   105 basis functions,   173 primitive gaussians,   111 cartesian basis functions
    14 alpha electrons       14 beta electrons
       nuclear repulsion energy        72.4908889719 Hartrees.
 NAtoms=    7 NActive=    7 NUniq=    7 SFac= 1.00D+00 NAtFMM=   60 NAOKFM=F Big=F
 Integral buffers will be    131072 words long.
 Raffenetti 1 integral format.
 Two-electron integral symmetry is turned on.
 One-electron integrals computed using PRISM.
 NBasis=   105 RedAO= T EigKep=  6.39D-04  NBF=   105
 NBsUse=   105 1.00D-06 EigRej= -1.00D+00 NBFU=   105
 Initial guess from the checkpoint file:  "/gscratch/scrubbed/gds001/Gau-19895.chk"
 B after Tr=     0.000000    0.000000   -0.000000
         Rot=    0.998637    0.052189   -0.000350    0.000764 Ang=   5.98 deg.
 ExpMin= 2.97D-02 ExpMax= 1.47D+04 ExpMxC= 5.03D+02 IAcc=3 IRadAn=         5 AccDes= 0.00D+00
 Harris functional with IExCor=  205 and IRadAn=       5 diagonalized for initial guess.
 HarFok:  IExCor=  205 AccDes= 0.00D+00 IRadAn=         5 IDoV= 1 UseB2=F ITyADJ=14
 ICtDFT=  3500011 ScaDFX=  1.000000  1.000000  1.000000  1.000000
 FoFCou: FMM=F IPFlag=           0 FMFlag=      100000 FMFlg1=           0
         NFxFlg=           0 DoJE=T BraDBF=F KetDBF=T FulRan=T
         wScrn=  0.000000 ICntrl=       500 IOpCl=  0 I1Cent=   200000004 NGrid=           0
         NMat0=    1 NMatS0=      1 NMatT0=    0 NMatD0=    1 NMtDS0=    0 NMtDT0=    0
 Petite list used in FoFCou.
 Keep R1 ints in memory in canonical form, NReq=21420301.
 Requested convergence on RMS density matrix=1.00D-08 within 128 cycles.
 Requested convergence on MAX density matrix=1.00D-06.
 Requested convergence on             energy=1.00D-06.
 No special actions if energy rises.
 SCF Done:  E(RHF) =  -239.096325248     A.U. after   10 cycles
            NFock= 10  Conv=0.35D-08     -V/T= 2.0014
 ExpMin= 2.97D-02 ExpMax= 1.47D+04 ExpMxC= 5.03D+02 IAcc=3 IRadAn=         5 AccDes= 0.00D+00
 HarFok:  IExCor=  205 AccDes= 0.00D+00 IRadAn=         5 IDoV=-2 UseB2=F ITyADJ=14
 ICtDFT= 12500011 ScaDFX=  1.000000  1.000000  1.000000  1.000000
 Range of M.O.s used for correlation:     4   105
 NBasis=   105 NAE=    14 NBE=    14 NFC=     3 NFV=     0
 NROrb=    102 NOA=    11 NOB=    11 NVA=    91 NVB=    91

 **** Warning!!: The largest alpha MO coefficient is  0.19420649D+02

 Fully direct method using O(ONN) memory.
 JobTyp=1 Pass  1:  I=   4 to  14 NPSUse= 28 ParTrn=T ParDer=T DoDerP=T.
 Spin components of T(2) and E(2):
     alpha-alpha T2 =       0.1805050595D-01 E2=     -0.7400419387D-01
     alpha-beta  T2 =       0.1064056886D+00 E2=     -0.4360154908D+00
     beta-beta   T2 =       0.1805050595D-01 E2=     -0.7400419387D-01
 ANorm=    0.1068881051D+01
 E2 =    -0.5840238786D+00 EUMP2 =    -0.23968034912640D+03
          IDoAtm=1111111
          Differentiating once with respect to electric field.
                with respect to dipole field.
          Differentiating once with respect to nuclear coordinates.
 Keep R1 ints in memory in canonical form, NReq=21423549.
          There are     1 degrees of freedom in the 1st order CPHF.  IDoFFX=0 NUNeed=     1.
 LinEq1:  Iter=  0 NonCon=     1 RMS=5.15D-03 Max=4.65D-02 NDo=     1
 AX will form     1 AO Fock derivatives at one time.
 LinEq1:  Iter=  1 NonCon=     1 RMS=1.37D-03 Max=9.12D-03 NDo=     1
 LinEq1:  Iter=  2 NonCon=     1 RMS=2.25D-04 Max=1.93D-03 NDo=     1
 LinEq1:  Iter=  3 NonCon=     1 RMS=5.49D-05 Max=4.26D-04 NDo=     1
 LinEq1:  Iter=  4 NonCon=     1 RMS=2.02D-05 Max=2.04D-04 NDo=     1
 LinEq1:  Iter=  5 NonCon=     1 RMS=5.83D-06 Max=5.30D-05 NDo=     1
 LinEq1:  Iter=  6 NonCon=     1 RMS=1.50D-06 Max=1.22D-05 NDo=     1
 LinEq1:  Iter=  7 NonCon=     1 RMS=2.74D-07 Max=2.09D-06 NDo=     1
 LinEq1:  Iter=  8 NonCon=     1 RMS=4.78D-08 Max=3.08D-07 NDo=     1
 LinEq1:  Iter=  9 NonCon=     1 RMS=7.35D-09 Max=6.54D-08 NDo=     1
 LinEq1:  Iter= 10 NonCon=     1 RMS=1.02D-09 Max=7.01D-09 NDo=     1
 LinEq1:  Iter= 11 NonCon=     1 RMS=1.62D-10 Max=1.15D-09 NDo=     1
 LinEq1:  Iter= 12 NonCon=     0 RMS=3.09D-11 Max=3.40D-10 NDo=     1
 Linear equations converged to 1.000D-10 1.000D-09 after    12 iterations.
 End of Minotr F.D. properties file   721 does not exist.
 End of Minotr F.D. properties file   722 does not exist.
 End of Minotr F.D. properties file   788 does not exist.
 Calling FoFJK, ICntrl=  10002127 FMM=F ISym2X=0 I1Cent= 0 IOpClX= 0 NMat=1 NMatS=1 NMatT=0.
 ***** Axes restored to original set *****
 -------------------------------------------------------------------
 Center     Atomic                   Forces (Hartrees/Bohr)
 Number     Number              X              Y              Z
 -------------------------------------------------------------------
      1        9          -0.005217893   -0.000380729    0.003373699
      2        1          -0.003704769    0.000207019   -0.000397711
      3        9           0.001141003   -0.000090539   -0.000125925
      4        6           0.011941923    0.000395564   -0.004055486
      5        1          -0.001369021    0.000132620    0.000311454
      6        1          -0.001473480   -0.000242006    0.000302581
      7        1          -0.001317763   -0.000021929    0.000591387
 -------------------------------------------------------------------
 Cartesian Forces:  Max     0.011941923 RMS     0.003233863

 GradGradGradGradGradGradGradGradGradGradGradGradGradGradGradGradGradGrad
 Berny optimization.
 Using GEDIIS/GDIIS optimizer.
 FormGI is forming the generalized inverse of G from B-inverse, IUseBI=4.
 Internal  Forces:  Max     0.008210431 RMS     0.002244923
 Search for a local minimum.
 Step number   2 out of a maximum of   27
 All quantities printed in internal units (Hartrees-Bohrs-Radians)
 Mixed Optimization -- RFO/linear search
 Update second derivatives using D2CorX and points    1    2
 DE= -1.42D-03 DEPred=-1.06D-03 R= 1.34D+00
 TightC=F SS=  1.41D+00  RLast= 1.19D-01 DXNew= 5.0454D-01 3.5695D-01
 Trust test= 1.34D+00 RLast= 1.19D-01 DXMaxT set to 3.57D-01
 The second derivative matrix:
                          R1        R2        R3        R4        R5
           R1           0.06676
           R2          -0.02509   0.39963
           R3           0.01139   0.01762   0.61058
           R4           0.00672   0.00634   0.01452   0.33838
           R5           0.00679   0.00657   0.01446   0.01168   0.33832
           R6           0.00688   0.00645   0.01491   0.01201   0.01198
           A1           0.00373   0.01932  -0.00945  -0.00570  -0.00575
           A2           0.00370   0.02025  -0.01058  -0.00649  -0.00654
           A3           0.00443   0.01956  -0.00749  -0.00417  -0.00422
           A4          -0.00418  -0.02365   0.01282   0.00794   0.00800
           A5          -0.00369  -0.01664   0.00663   0.00375   0.00379
           A6          -0.00368  -0.01660   0.00660   0.00373   0.00377
           A7           0.00194   0.01301  -0.00821  -0.00526  -0.00529
           A8           0.00012   0.00000   0.00038   0.00029   0.00029
           A9          -0.00114  -0.00702   0.00413   0.00261   0.00263
           A10          0.00010   0.00062  -0.00036  -0.00023  -0.00023
           D1          -0.00084  -0.01113   0.00964   0.00651   0.00654
                          R6        A1        A2        A3        A4
           R6           0.33900
           A1          -0.00584   0.15731
           A2          -0.00665  -0.00263   0.15746
           A3          -0.00427  -0.00329  -0.00333   0.15630
           A4           0.00813   0.00295   0.00283   0.00381   0.15688
           A5           0.00383   0.00273   0.00275   0.00310  -0.00314
           A6           0.00381   0.00273   0.00275   0.00310  -0.00314
           A7          -0.00539  -0.00131  -0.00118  -0.00189   0.00126
           A8           0.00030  -0.00011  -0.00012  -0.00007   0.00015
           A9           0.00267   0.00079   0.00073   0.00107  -0.00079
           A10         -0.00024  -0.00007  -0.00006  -0.00009   0.00007
           D1           0.00668   0.00040   0.00018   0.00116  -0.00004
                          A5        A6        A7        A8        A9
           A5           0.15740
           A6          -0.00259   0.15741
           A7           0.00154   0.00154   0.01633
           A8           0.00006   0.00006  -0.00011   0.01522
           A9          -0.00088  -0.00088   0.00028   0.00005   0.01651
           A10          0.00008   0.00008  -0.00002  -0.00000   0.00002
           D1          -0.00089  -0.00090  -0.00040   0.00014   0.00011
                          A10       D1
           A10          0.01521
           D1          -0.00001   0.00359
 ITU=  1  0
 Use linear search instead of GDIIS.
     Eigenvalues ---    0.01430   0.01522   0.01524   0.01671   0.05706
     Eigenvalues ---    0.07110   0.15732   0.16000   0.16000   0.16017
     Eigenvalues ---    0.32667   0.32667   0.35940   0.40414   0.61519
 RFO step:  Lambda=-4.75856546D-04 EMin= 1.43020405D-02
 Quartic linear search produced a step of  0.59425.
 Iteration  1 RMS(Cart)=  0.08488901 RMS(Int)=  0.00534438
 Iteration  2 RMS(Cart)=  0.00879127 RMS(Int)=  0.00033059
 Iteration  3 RMS(Cart)=  0.00002878 RMS(Int)=  0.00032990
 Iteration  4 RMS(Cart)=  0.00000000 RMS(Int)=  0.00032990
 Variable       Old X    -DE/DX   Delta X   Delta X   Delta X     New X
                                 (Linear)    (Quad)   (Total)
    R1        3.28967   0.00256   0.02871   0.03780   0.06651   3.35618
    R2        2.65243   0.00821   0.02469   0.01089   0.03558   2.68801
    R3        1.76239  -0.00115  -0.01135   0.00422  -0.00714   1.75525
    R4        2.07472  -0.00023  -0.01288   0.00714  -0.00574   2.06898
    R5        2.07457  -0.00026  -0.01297   0.00709  -0.00588   2.06869
    R6        2.07420  -0.00023  -0.01319   0.00733  -0.00586   2.06834
    A1        1.89519  -0.00079  -0.00904  -0.00876  -0.01773   1.87746
    A2        1.89597  -0.00090  -0.00857  -0.01012  -0.01863   1.87735
    A3        1.89050  -0.00077  -0.01190  -0.00674  -0.01856   1.87193
    A4        1.92661   0.00017   0.00941   0.00867   0.01718   1.94378
    A5        1.92731   0.00111   0.00978   0.00804   0.01733   1.94465
    A6        1.92731   0.00110   0.00978   0.00799   0.01729   1.94460
    A7        2.95859  -0.00146  -0.03491  -0.11167  -0.14658   2.81200
    A8        3.15794  -0.00001  -0.00535   0.00262  -0.00273   3.15521
    A9        3.47005   0.00079   0.02256   0.05829   0.08085   3.55090
   A10        3.22199  -0.00007  -0.00217  -0.00567  -0.00784   3.21415
    D1       -2.13575  -0.00171  -0.02431  -0.02180  -0.04686  -2.18261
         Item               Value     Threshold  Converged?
 Maximum Force            0.008210     0.000450     NO 
 RMS     Force            0.002245     0.000300     NO 
 Maximum Displacement     0.218098     0.001800     NO 
 RMS     Displacement     0.086254     0.001200     NO 
 Predicted change in Energy=-4.594746D-04
 GradGradGradGradGradGradGradGradGradGradGradGradGradGradGradGradGradGrad

                          Input orientation:                          
 ---------------------------------------------------------------------
 Center     Atomic      Atomic             Coordinates (Angstroms)
 Number     Number       Type             X           Y           Z
 ---------------------------------------------------------------------
      1          9           0        1.280065   -0.068510    0.065662
      2          1           0       -0.490698   -0.001783   -0.053363
      3          9           0       -1.417725    0.046157   -0.085975
      4          6           0        2.618462   -0.004874   -0.411785
      5          1           0        2.713723    0.908661   -1.007684
      6          1           0        2.795146   -0.897943   -1.019724
      7          1           0        3.274725    0.018808    0.463845
 ---------------------------------------------------------------------
                    Distance matrix (angstroms):
                    1          2          3          4          5
     1  F    0.000000
     2  H    1.776013   0.000000
     3  F    2.704480   0.928838   0.000000
     4  C    1.422432   3.129753   4.049637   0.000000
     5  H    2.040174   3.465249   4.319991   1.094859   0.000000
     6  H    2.039974   3.540301   4.417182   1.094706   1.808478
     7  H    2.035889   3.800835   4.724631   1.094519   1.808856
                    6          7
     6  H    0.000000
     7  H    1.808703   0.000000
 Stoichiometry    CH4F2
 Framework group  C1[X(CH4F2)]
 Deg. of freedom    15
 Full point group                 C1      NOp   1
 Largest Abelian subgroup         C1      NOp   1
 Largest concise Abelian subgroup C1      NOp   1
                         Standard orientation:                         
 ---------------------------------------------------------------------
 Center     Atomic      Atomic             Coordinates (Angstroms)
 Number     Number       Type             X           Y           Z
 ---------------------------------------------------------------------
      1          9           0        0.452709    0.254038   -0.000337
      2          1           0       -1.307340    0.016760    0.011796
      3          9           0       -2.230901   -0.081295   -0.000881
      4          6           0        1.818247   -0.144231   -0.000045
      5          1           0        1.937812   -0.915305   -0.768072
      6          1           0        2.048263   -0.534706    0.996450
      7          1           0        2.415507    0.743945   -0.228944
 ---------------------------------------------------------------------
 Rotational constants (GHZ):         102.8944659           3.2703277           3.2364997
 Standard basis: Aug-CC-pVDZ (5D, 7F)
 There are   111 symmetry adapted cartesian basis functions of A   symmetry.
 There are   105 symmetry adapted basis functions of A   symmetry.
   105 basis functions,   173 primitive gaussians,   111 cartesian basis functions
    14 alpha electrons       14 beta electrons
       nuclear repulsion energy        72.0355773981 Hartrees.
 NAtoms=    7 NActive=    7 NUniq=    7 SFac= 1.00D+00 NAtFMM=   60 NAOKFM=F Big=F
 Integral buffers will be    131072 words long.
 Raffenetti 1 integral format.
 Two-electron integral symmetry is turned on.
 One-electron integrals computed using PRISM.
 NBasis=   105 RedAO= T EigKep=  6.31D-04  NBF=   105
 NBsUse=   105 1.00D-06 EigRej= -1.00D+00 NBFU=   105
 Initial guess from the checkpoint file:  "/gscratch/scrubbed/gds001/Gau-19895.chk"
 B after Tr=    -0.000000    0.000000   -0.000000
         Rot=    0.998963    0.045458   -0.000467    0.002571 Ang=   5.22 deg.
 ExpMin= 2.97D-02 ExpMax= 1.47D+04 ExpMxC= 5.03D+02 IAcc=3 IRadAn=         5 AccDes= 0.00D+00
 Harris functional with IExCor=  205 and IRadAn=       5 diagonalized for initial guess.
 HarFok:  IExCor=  205 AccDes= 0.00D+00 IRadAn=         5 IDoV= 1 UseB2=F ITyADJ=14
 ICtDFT=  3500011 ScaDFX=  1.000000  1.000000  1.000000  1.000000
 FoFCou: FMM=F IPFlag=           0 FMFlag=      100000 FMFlg1=           0
         NFxFlg=           0 DoJE=T BraDBF=F KetDBF=T FulRan=T
         wScrn=  0.000000 ICntrl=       500 IOpCl=  0 I1Cent=   200000004 NGrid=           0
         NMat0=    1 NMatS0=      1 NMatT0=    0 NMatD0=    1 NMtDS0=    0 NMtDT0=    0
 Petite list used in FoFCou.
 Keep R1 ints in memory in canonical form, NReq=21419861.
 Requested convergence on RMS density matrix=1.00D-08 within 128 cycles.
 Requested convergence on MAX density matrix=1.00D-06.
 Requested convergence on             energy=1.00D-06.
 No special actions if energy rises.
 SCF Done:  E(RHF) =  -239.096709040     A.U. after   11 cycles
            NFock= 11  Conv=0.35D-08     -V/T= 2.0014
 ExpMin= 2.97D-02 ExpMax= 1.47D+04 ExpMxC= 5.03D+02 IAcc=3 IRadAn=         5 AccDes= 0.00D+00
 HarFok:  IExCor=  205 AccDes= 0.00D+00 IRadAn=         5 IDoV=-2 UseB2=F ITyADJ=14
 ICtDFT= 12500011 ScaDFX=  1.000000  1.000000  1.000000  1.000000
 Range of M.O.s used for correlation:     4   105
 NBasis=   105 NAE=    14 NBE=    14 NFC=     3 NFV=     0
 NROrb=    102 NOA=    11 NOB=    11 NVA=    91 NVB=    91

 **** Warning!!: The largest alpha MO coefficient is  0.20614455D+02

 Fully direct method using O(ONN) memory.
 JobTyp=1 Pass  1:  I=   4 to  14 NPSUse= 28 ParTrn=T ParDer=T DoDerP=T.
 Spin components of T(2) and E(2):
     alpha-alpha T2 =       0.1809317707D-01 E2=     -0.7400171724D-01
     alpha-beta  T2 =       0.1066933424D+00 E2=     -0.4362864953D+00
     beta-beta   T2 =       0.1809317707D-01 E2=     -0.7400171724D-01
 ANorm=    0.1069055516D+01
 E2 =    -0.5842899298D+00 EUMP2 =    -0.23968099896989D+03
          IDoAtm=1111111
          Differentiating once with respect to electric field.
                with respect to dipole field.
          Differentiating once with respect to nuclear coordinates.
 Keep R1 ints in memory in canonical form, NReq=21423474.
          There are     1 degrees of freedom in the 1st order CPHF.  IDoFFX=0 NUNeed=     1.
 LinEq1:  Iter=  0 NonCon=     1 RMS=5.21D-03 Max=4.86D-02 NDo=     1
 AX will form     1 AO Fock derivatives at one time.
 LinEq1:  Iter=  1 NonCon=     1 RMS=1.40D-03 Max=8.58D-03 NDo=     1
 LinEq1:  Iter=  2 NonCon=     1 RMS=2.31D-04 Max=1.65D-03 NDo=     1
 LinEq1:  Iter=  3 NonCon=     1 RMS=5.98D-05 Max=4.40D-04 NDo=     1
 LinEq1:  Iter=  4 NonCon=     1 RMS=2.18D-05 Max=1.81D-04 NDo=     1
 LinEq1:  Iter=  5 NonCon=     1 RMS=6.24D-06 Max=5.96D-05 NDo=     1
 LinEq1:  Iter=  6 NonCon=     1 RMS=1.54D-06 Max=1.32D-05 NDo=     1
 LinEq1:  Iter=  7 NonCon=     1 RMS=2.83D-07 Max=2.17D-06 NDo=     1
 LinEq1:  Iter=  8 NonCon=     1 RMS=5.13D-08 Max=3.40D-07 NDo=     1
 LinEq1:  Iter=  9 NonCon=     1 RMS=8.12D-09 Max=5.63D-08 NDo=     1
 LinEq1:  Iter= 10 NonCon=     1 RMS=1.16D-09 Max=8.69D-09 NDo=     1
 LinEq1:  Iter= 11 NonCon=     1 RMS=1.97D-10 Max=1.27D-09 NDo=     1
 LinEq1:  Iter= 12 NonCon=     0 RMS=3.89D-11 Max=4.17D-10 NDo=     1
 Linear equations converged to 1.000D-10 1.000D-09 after    12 iterations.
 End of Minotr F.D. properties file   721 does not exist.
 End of Minotr F.D. properties file   722 does not exist.
 End of Minotr F.D. properties file   788 does not exist.
 Calling FoFJK, ICntrl=  10002127 FMM=F ISym2X=0 I1Cent= 0 IOpClX= 0 NMat=1 NMatS=1 NMatT=0.
 ***** Axes restored to original set *****
 -------------------------------------------------------------------
 Center     Atomic                   Forces (Hartrees/Bohr)
 Number     Number              X              Y              Z
 -------------------------------------------------------------------
      1        9           0.001681342   -0.000494265    0.001614475
      2        1           0.001807719    0.000199786   -0.000545267
      3        9          -0.002833052    0.000041302   -0.000205720
      4        6          -0.002639252    0.000247610   -0.000285883
      5        1           0.000535122    0.000965378   -0.000701178
      6        1           0.000500953   -0.001005444   -0.000739093
      7        1           0.000947168    0.000045633    0.000862666
 -------------------------------------------------------------------
 Cartesian Forces:  Max     0.002833052 RMS     0.001187699

 GradGradGradGradGradGradGradGradGradGradGradGradGradGradGradGradGradGrad
 Berny optimization.
 Using GEDIIS/GDIIS optimizer.
 FormGI is forming the generalized inverse of G from B-inverse, IUseBI=4.
 Internal  Forces:  Max     0.002836882 RMS     0.001095668
 Search for a local minimum.
 Step number   3 out of a maximum of   27
 All quantities printed in internal units (Hartrees-Bohrs-Radians)
 Mixed Optimization -- RFO/linear search
 Update second derivatives using D2CorX and points    1    2    3
 DE= -6.50D-04 DEPred=-4.59D-04 R= 1.41D+00
 TightC=F SS=  1.41D+00  RLast= 1.95D-01 DXNew= 6.0031D-01 5.8504D-01
 Trust test= 1.41D+00 RLast= 1.95D-01 DXMaxT set to 5.85D-01
 The second derivative matrix:
                          R1        R2        R3        R4        R5
           R1           0.06359
           R2          -0.02657   0.47612
           R3           0.00554  -0.05418   0.66159
           R4           0.00408  -0.02782   0.03914   0.35027
           R5           0.00417  -0.02764   0.03918   0.02362   0.35031
           R6           0.00439  -0.02688   0.03912   0.02371   0.02373
           A1           0.00428   0.01302  -0.00256  -0.00245  -0.00250
           A2           0.00443   0.01487  -0.00412  -0.00346  -0.00351
           A3           0.00560   0.01669  -0.00226  -0.00173  -0.00178
           A4          -0.00596  -0.03042   0.01483   0.00898   0.00905
           A5          -0.00373  -0.00498  -0.00389  -0.00126  -0.00122
           A6          -0.00377  -0.00532  -0.00368  -0.00116  -0.00113
           A7           0.00729   0.04262  -0.02256  -0.01234  -0.01243
           A8           0.00015  -0.00016   0.00060   0.00040   0.00040
           A9          -0.00356  -0.01918   0.00952   0.00528   0.00533
           A10          0.00038   0.00221  -0.00115  -0.00062  -0.00062
           D1          -0.00353  -0.04030   0.02962   0.01615   0.01622
                          R6        A1        A2        A3        A4
           R6           0.35051
           A1          -0.00268   0.15777
           A2          -0.00371  -0.00227   0.15771
           A3          -0.00191  -0.00321  -0.00335   0.15602
           A4           0.00919   0.00377   0.00368   0.00473   0.15633
           A5          -0.00105   0.00174   0.00189   0.00260  -0.00406
           A6          -0.00096   0.00178   0.00193   0.00263  -0.00406
           A7          -0.01245  -0.00455  -0.00444  -0.00507   0.00218
           A8           0.00040  -0.00010  -0.00012  -0.00007   0.00018
           A9           0.00535   0.00215   0.00211   0.00245  -0.00131
           A10         -0.00062  -0.00024  -0.00024  -0.00026   0.00012
           D1           0.01616   0.00325   0.00288   0.00339   0.00060
                          A5        A6        A7        A8        A9
           A5           0.15918
           A6          -0.00088   0.15907
           A7           0.00572   0.00567   0.01684
           A8           0.00004   0.00004  -0.00022   0.01522
           A9          -0.00258  -0.00256   0.00049   0.00010   0.01624
           A10          0.00030   0.00030   0.00001  -0.00001   0.00002
           D1          -0.00516  -0.00507  -0.00568   0.00023   0.00205
                          A10       D1
           A10          0.01521
           D1          -0.00030   0.01142
 ITU=  1  1  0
 Use linear search instead of GDIIS.
     Eigenvalues ---    0.00613   0.01522   0.01522   0.01673   0.06378
     Eigenvalues ---    0.07239   0.15994   0.16000   0.16011   0.16235
     Eigenvalues ---    0.32667   0.32668   0.36971   0.47411   0.70070
 RFO step:  Lambda=-5.47436295D-04 EMin= 6.13294698D-03
 Quartic linear search produced a step of  0.69761.
 Iteration  1 RMS(Cart)=  0.12551175 RMS(Int)=  0.02512779
 Iteration  2 RMS(Cart)=  0.06578460 RMS(Int)=  0.00158265
 Iteration  3 RMS(Cart)=  0.00236367 RMS(Int)=  0.00027388
 Iteration  4 RMS(Cart)=  0.00000064 RMS(Int)=  0.00027388
 Variable       Old X    -DE/DX   Delta X   Delta X   Delta X     New X
                                 (Linear)    (Quad)   (Total)
    R1        3.35618   0.00108   0.04639   0.03167   0.07806   3.43424
    R2        2.68801  -0.00038   0.02482   0.00918   0.03399   2.72200
    R3        1.75525   0.00284  -0.00498   0.00135  -0.00363   1.75162
    R4        2.06898   0.00132  -0.00401  -0.00087  -0.00487   2.06411
    R5        2.06869   0.00131  -0.00410  -0.00094  -0.00504   2.06366
    R6        2.06834   0.00126  -0.00409  -0.00132  -0.00540   2.06294
    A1        1.87746   0.00028  -0.01237   0.00088  -0.01143   1.86604
    A2        1.87735   0.00020  -0.01299   0.00057  -0.01237   1.86498
    A3        1.87193   0.00003  -0.01295  -0.00303  -0.01592   1.85601
    A4        1.94378   0.00005   0.01198   0.00112   0.01236   1.95615
    A5        1.94465  -0.00027   0.01209   0.00007   0.01174   1.95639
    A6        1.94460  -0.00025   0.01206   0.00027   0.01191   1.95651
    A7        2.81200  -0.00217  -0.10226  -0.19280  -0.29506   2.51694
    A8        3.15521  -0.00000  -0.00190  -0.00300  -0.00490   3.15031
    A9        3.55090   0.00096   0.05640   0.08791   0.14431   3.69521
   A10        3.21415  -0.00011  -0.00547  -0.01132  -0.01679   3.19736
    D1       -2.18261   0.00033  -0.03269  -0.00173  -0.03502  -2.21763
         Item               Value     Threshold  Converged?
 Maximum Force            0.002837     0.000450     NO 
 RMS     Force            0.001096     0.000300     NO 
 Maximum Displacement     0.445784     0.001800     NO 
 RMS     Displacement     0.184239     0.001200     NO 
 Predicted change in Energy=-4.196220D-04
 GradGradGradGradGradGradGradGradGradGradGradGradGradGradGradGradGradGrad

                          Input orientation:                          
 ---------------------------------------------------------------------
 Center     Atomic      Atomic             Coordinates (Angstroms)
 Number     Number       Type             X           Y           Z
 ---------------------------------------------------------------------
      1          9           0        1.341357   -0.141738    0.301561
      2          1           0       -0.430864    0.000962   -0.074646
      3          9           0       -1.337972    0.092226   -0.241988
      4          6           0        2.594801   -0.009333   -0.395689
      5          1           0        2.534961    0.907974   -0.985643
      6          1           0        2.702451   -0.895571   -1.024611
      7          1           0        3.368963    0.045995    0.371992
 ---------------------------------------------------------------------
                    Distance matrix (angstroms):
                    1          2          3          4          5
     1  F    0.000000
     2  H    1.817322   0.000000
     3  F    2.743900   0.926918   0.000000
     4  C    1.440421   3.042667   3.937086   0.000000
     5  H    2.045356   3.232445   4.027168   1.092281   0.000000
     6  H    2.044400   3.394682   4.232405   1.092040   1.811725
     7  H    2.037497   3.826251   4.747036   1.091660   1.811557
                    6          7
     6  H    0.000000
     7  H    1.811432   0.000000
 Stoichiometry    CH4F2
 Framework group  C1[X(CH4F2)]
 Deg. of freedom    15
 Full point group                 C1      NOp   1
 Largest Abelian subgroup         C1      NOp   1
 Largest concise Abelian subgroup C1      NOp   1
                         Standard orientation:                         
 ---------------------------------------------------------------------
 Center     Atomic      Atomic             Coordinates (Angstroms)
 Number     Number       Type             X           Y           Z
 ---------------------------------------------------------------------
      1          9           0        0.492984    0.445706   -0.000497
      2          1           0       -1.280159    0.047728    0.014896
      3          9           0       -2.188540   -0.136028   -0.001089
      4          6           0        1.746467   -0.263936    0.000013
      5          1           0        1.660304   -1.061772   -0.741007
      6          1           0        1.888497   -0.655059    1.009667
      7          1           0        2.512566    0.465622   -0.269356
 ---------------------------------------------------------------------
 Rotational constants (GHZ):          60.7731761           3.4254345           3.3129894
 Standard basis: Aug-CC-pVDZ (5D, 7F)
 There are   111 symmetry adapted cartesian basis functions of A   symmetry.
 There are   105 symmetry adapted basis functions of A   symmetry.
   105 basis functions,   173 primitive gaussians,   111 cartesian basis functions
    14 alpha electrons       14 beta electrons
       nuclear repulsion energy        71.8836889827 Hartrees.
 NAtoms=    7 NActive=    7 NUniq=    7 SFac= 1.00D+00 NAtFMM=   60 NAOKFM=F Big=F
 Integral buffers will be    131072 words long.
 Raffenetti 1 integral format.
 Two-electron integral symmetry is turned on.
 One-electron integrals computed using PRISM.
 NBasis=   105 RedAO= T EigKep=  6.14D-04  NBF=   105
 NBsUse=   105 1.00D-06 EigRej= -1.00D+00 NBFU=   105
 Initial guess from the checkpoint file:  "/gscratch/scrubbed/gds001/Gau-19895.chk"
 B after Tr=     0.000000   -0.000000    0.000000
         Rot=    0.999892    0.012749   -0.000315    0.007269 Ang=   1.68 deg.
 ExpMin= 2.97D-02 ExpMax= 1.47D+04 ExpMxC= 5.03D+02 IAcc=3 IRadAn=         5 AccDes= 0.00D+00
 Harris functional with IExCor=  205 and IRadAn=       5 diagonalized for initial guess.
 HarFok:  IExCor=  205 AccDes= 0.00D+00 IRadAn=         5 IDoV= 1 UseB2=F ITyADJ=14
 ICtDFT=  3500011 ScaDFX=  1.000000  1.000000  1.000000  1.000000
 FoFCou: FMM=F IPFlag=           0 FMFlag=      100000 FMFlg1=           0
         NFxFlg=           0 DoJE=T BraDBF=F KetDBF=T FulRan=T
         wScrn=  0.000000 ICntrl=       500 IOpCl=  0 I1Cent=   200000004 NGrid=           0
         NMat0=    1 NMatS0=      1 NMatT0=    0 NMatD0=    1 NMtDS0=    0 NMtDT0=    0
 Petite list used in FoFCou.
 Keep R1 ints in memory in canonical form, NReq=21420226.
 Requested convergence on RMS density matrix=1.00D-08 within 128 cycles.
 Requested convergence on MAX density matrix=1.00D-06.
 Requested convergence on             energy=1.00D-06.
 No special actions if energy rises.
 SCF Done:  E(RHF) =  -239.096733124     A.U. after   12 cycles
            NFock= 12  Conv=0.56D-08     -V/T= 2.0015
 ExpMin= 2.97D-02 ExpMax= 1.47D+04 ExpMxC= 5.03D+02 IAcc=3 IRadAn=         5 AccDes= 0.00D+00
 HarFok:  IExCor=  205 AccDes= 0.00D+00 IRadAn=         5 IDoV=-2 UseB2=F ITyADJ=14
 ICtDFT= 12500011 ScaDFX=  1.000000  1.000000  1.000000  1.000000
 Range of M.O.s used for correlation:     4   105
 NBasis=   105 NAE=    14 NBE=    14 NFC=     3 NFV=     0
 NROrb=    102 NOA=    11 NOB=    11 NVA=    91 NVB=    91

 **** Warning!!: The largest alpha MO coefficient is  0.20702362D+02

 Fully direct method using O(ONN) memory.
 JobTyp=1 Pass  1:  I=   4 to  14 NPSUse= 28 ParTrn=T ParDer=T DoDerP=T.
 Spin components of T(2) and E(2):
     alpha-alpha T2 =       0.1816159082D-01 E2=     -0.7405164852D-01
     alpha-beta  T2 =       0.1071250593D+00 E2=     -0.4367922458D+00
     beta-beta   T2 =       0.1816159082D-01 E2=     -0.7405164852D-01
 ANorm=    0.1069321393D+01
 E2 =    -0.5848955428D+00 EUMP2 =    -0.23968162866634D+03
          IDoAtm=1111111
          Differentiating once with respect to electric field.
                with respect to dipole field.
          Differentiating once with respect to nuclear coordinates.
 Keep R1 ints in memory in canonical form, NReq=21423927.
          There are     1 degrees of freedom in the 1st order CPHF.  IDoFFX=0 NUNeed=     1.
 LinEq1:  Iter=  0 NonCon=     1 RMS=5.29D-03 Max=5.03D-02 NDo=     1
 AX will form     1 AO Fock derivatives at one time.
 LinEq1:  Iter=  1 NonCon=     1 RMS=1.43D-03 Max=8.87D-03 NDo=     1
 LinEq1:  Iter=  2 NonCon=     1 RMS=2.44D-04 Max=1.53D-03 NDo=     1
 LinEq1:  Iter=  3 NonCon=     1 RMS=6.64D-05 Max=4.91D-04 NDo=     1
 LinEq1:  Iter=  4 NonCon=     1 RMS=2.40D-05 Max=1.64D-04 NDo=     1
 LinEq1:  Iter=  5 NonCon=     1 RMS=6.68D-06 Max=6.44D-05 NDo=     1
 LinEq1:  Iter=  6 NonCon=     1 RMS=1.61D-06 Max=1.44D-05 NDo=     1
 LinEq1:  Iter=  7 NonCon=     1 RMS=3.01D-07 Max=2.32D-06 NDo=     1
 LinEq1:  Iter=  8 NonCon=     1 RMS=5.71D-08 Max=4.57D-07 NDo=     1
 LinEq1:  Iter=  9 NonCon=     1 RMS=9.12D-09 Max=6.83D-08 NDo=     1
 LinEq1:  Iter= 10 NonCon=     1 RMS=1.34D-09 Max=1.08D-08 NDo=     1
 LinEq1:  Iter= 11 NonCon=     1 RMS=2.43D-10 Max=1.35D-09 NDo=     1
 LinEq1:  Iter= 12 NonCon=     0 RMS=4.71D-11 Max=4.49D-10 NDo=     1
 Linear equations converged to 1.000D-10 1.000D-09 after    12 iterations.
 End of Minotr F.D. properties file   721 does not exist.
 End of Minotr F.D. properties file   722 does not exist.
 End of Minotr F.D. properties file   788 does not exist.
 Calling FoFJK, ICntrl=  10002127 FMM=F ISym2X=0 I1Cent= 0 IOpClX= 0 NMat=1 NMatS=1 NMatT=0.
 ***** Axes restored to original set *****
 -------------------------------------------------------------------
 Center     Atomic                   Forces (Hartrees/Bohr)
 Number     Number              X              Y              Z
 -------------------------------------------------------------------
      1        9           0.006349311    0.000265539   -0.002656248
      2        1           0.006101517   -0.000323814    0.000997787
      3        9          -0.005159456    0.000471967   -0.001363705
      4        6          -0.012791097   -0.000878595    0.005968742
      5        1           0.001167160    0.002001212   -0.001865731
      6        1           0.001402014   -0.001810518   -0.001986113
      7        1           0.002930551    0.000274210    0.000905269
 -------------------------------------------------------------------
 Cartesian Forces:  Max     0.012791097 RMS     0.004035559

 GradGradGradGradGradGradGradGradGradGradGradGradGradGradGradGradGradGrad
 Berny optimization.
 Using GEDIIS/GDIIS optimizer.
 FormGI is forming the generalized inverse of G from B-inverse, IUseBI=4.
 Internal  Forces:  Max     0.007922877 RMS     0.002742586
 Search for a local minimum.
 Step number   4 out of a maximum of   27
 All quantities printed in internal units (Hartrees-Bohrs-Radians)
 Mixed Optimization -- RFO/linear search
 Update second derivatives using D2CorX and points    2    3    4
 DE= -6.30D-04 DEPred=-4.20D-04 R= 1.50D+00
 TightC=F SS=  1.41D+00  RLast= 3.43D-01 DXNew= 9.8391D-01 1.0293D+00
 Trust test= 1.50D+00 RLast= 3.43D-01 DXMaxT set to 9.84D-01
 The second derivative matrix:
                          R1        R2        R3        R4        R5
           R1           0.07254
           R2           0.02165   0.70788
           R3          -0.01770  -0.15317   0.69745
           R4          -0.00772  -0.07813   0.05736   0.35952
           R5          -0.00782  -0.07887   0.05780   0.03307   0.35996
           R6          -0.00757  -0.07814   0.05785   0.03321   0.03343
           A1          -0.00033  -0.00612   0.00409   0.00094   0.00098
           A2          -0.00035  -0.00544   0.00322   0.00028   0.00032
           A3          -0.00089  -0.01199   0.00870   0.00383   0.00389
           A4          -0.00343  -0.02267   0.01377   0.00845   0.00849
           A5           0.00265   0.02339  -0.01486  -0.00684  -0.00692
           A6           0.00239   0.02210  -0.01430  -0.00657  -0.00665
           A7           0.01424   0.06590  -0.02738  -0.01477  -0.01496
           A8           0.00273   0.01178  -0.00425  -0.00205  -0.00210
           A9          -0.00580  -0.02545   0.00991   0.00548   0.00555
           A10          0.00165   0.00764  -0.00312  -0.00161  -0.00164
           D1          -0.01059  -0.07849   0.04813   0.02558   0.02580
                          R6        A1        A2        A3        A4
           R6           0.36025
           A1           0.00082   0.15899
           A2           0.00014  -0.00092   0.15921
           A3           0.00378  -0.00113  -0.00110   0.15931
           A4           0.00861   0.00366   0.00346   0.00423   0.15579
           A5          -0.00677  -0.00033  -0.00035  -0.00069  -0.00351
           A6          -0.00650  -0.00022  -0.00024  -0.00056  -0.00352
           A7          -0.01505  -0.00527  -0.00542  -0.00691   0.00115
           A8          -0.00209  -0.00103  -0.00112  -0.00149   0.00048
           A9           0.00560   0.00213   0.00219   0.00277  -0.00071
           A10         -0.00164  -0.00061  -0.00064  -0.00086   0.00017
           D1           0.02573   0.00691   0.00667   0.00857  -0.00147
                          A5        A6        A7        A8        A9
           A5           0.16244
           A6           0.00228   0.16213
           A7           0.00766   0.00756   0.01507
           A8           0.00146   0.00142   0.00077   0.01581
           A9          -0.00294  -0.00292   0.00169  -0.00013   0.01559
           A10          0.00091   0.00089   0.00027   0.00025   0.00000
           D1          -0.01021  -0.00995  -0.01130  -0.00185   0.00387
                          A10       D1
           A10          0.01532
           D1          -0.00132   0.01691
 ITU=  1  1  1  0
 Use linear search instead of GDIIS.
     Eigenvalues ---    0.00257   0.01522   0.01562   0.01674   0.06861
     Eigenvalues ---    0.08065   0.16000   0.16001   0.16032   0.16429
     Eigenvalues ---    0.32667   0.32668   0.36691   0.55379   0.93333
 RFO step:  Lambda=-3.89419709D-04 EMin= 2.56517609D-03
 Quartic linear search produced a step of  0.40918.
 Iteration  1 RMS(Cart)=  0.14734291 RMS(Int)=  0.02374829
 Iteration  2 RMS(Cart)=  0.07153091 RMS(Int)=  0.00139151
 Iteration  3 RMS(Cart)=  0.00187966 RMS(Int)=  0.00007338
 Iteration  4 RMS(Cart)=  0.00000066 RMS(Int)=  0.00007338
 Variable       Old X    -DE/DX   Delta X   Delta X   Delta X     New X
                                 (Linear)    (Quad)   (Total)
    R1        3.43424  -0.00083   0.03194   0.01567   0.04761   3.48185
    R2        2.72200  -0.00792   0.01391   0.00345   0.01736   2.73936
    R3        1.75162   0.00534  -0.00148   0.00223   0.00074   1.75237
    R4        2.06411   0.00272  -0.00199   0.00159  -0.00040   2.06371
    R5        2.06366   0.00275  -0.00206   0.00162  -0.00045   2.06321
    R6        2.06294   0.00273  -0.00221   0.00151  -0.00070   2.06223
    A1        1.86604   0.00065  -0.00468  -0.00089  -0.00555   1.86049
    A2        1.86498   0.00063  -0.00506  -0.00101  -0.00606   1.85892
    A3        1.85601   0.00091  -0.00652  -0.00000  -0.00650   1.84951
    A4        1.95615  -0.00003   0.00506   0.00034   0.00520   1.96135
    A5        1.95639  -0.00099   0.00480   0.00054   0.00522   1.96161
    A6        1.95651  -0.00094   0.00487   0.00083   0.00558   1.96209
    A7        2.51694  -0.00246  -0.12073  -0.16487  -0.28560   2.23134
    A8        3.15031  -0.00049  -0.00201  -0.03774  -0.03975   3.11056
    A9        3.69521   0.00096   0.05905   0.07149   0.13054   3.82575
   A10        3.19736  -0.00030  -0.00687  -0.02142  -0.02829   3.16907
    D1       -2.21763   0.00161  -0.01433  -0.00157  -0.01606  -2.23369
         Item               Value     Threshold  Converged?
 Maximum Force            0.007923     0.000450     NO 
 RMS     Force            0.002743     0.000300     NO 
 Maximum Displacement     0.428941     0.001800     NO 
 RMS     Displacement     0.213500     0.001200     NO 
 Predicted change in Energy=-4.156226D-04
 GradGradGradGradGradGradGradGradGradGradGradGradGradGradGradGradGradGrad

                          Input orientation:                          
 ---------------------------------------------------------------------
 Center     Atomic      Atomic             Coordinates (Angstroms)
 Number     Number       Type             X           Y           Z
 ---------------------------------------------------------------------
      1          9           0        1.412837   -0.193352    0.528546
      2          1           0       -0.311362   -0.000673   -0.091844
      3          9           0       -1.170879    0.127160   -0.415567
      4          6           0        2.531914   -0.011985   -0.374855
      5          1           0        2.334343    0.903605   -0.936348
      6          1           0        2.559202   -0.895160   -1.016177
      7          1           0        3.417643    0.070921    0.257220
 ---------------------------------------------------------------------
                    Distance matrix (angstroms):
                    1          2          3          4          5
     1  F    0.000000
     2  H    1.842518   0.000000
     3  F    2.769417   0.927312   0.000000
     4  C    1.449607   2.857349   3.705630   0.000000
     5  H    2.049000   2.920729   3.627763   1.092069   0.000000
     6  H    2.047647   3.145575   3.913998   1.091804   1.814521
     7  H    2.040271   3.745991   4.637925   1.091287   1.814251
                    6          7
     6  H    0.000000
     7  H    1.814324   0.000000
 Stoichiometry    CH4F2
 Framework group  C1[X(CH4F2)]
 Deg. of freedom    15
 Full point group                 C1      NOp   1
 Largest Abelian subgroup         C1      NOp   1
 Largest concise Abelian subgroup C1      NOp   1
                         Standard orientation:                         
 ---------------------------------------------------------------------
 Center     Atomic      Atomic             Coordinates (Angstroms)
 Number     Number       Type             X           Y           Z
 ---------------------------------------------------------------------
      1          9           0        0.557045    0.617437   -0.000642
      2          1           0       -1.212938    0.105859    0.017245
      3          9           0       -2.097883   -0.170613   -0.001266
      4          6           0        1.601370   -0.387921    0.000055
      5          1           0        1.319611   -1.130922   -0.749062
      6          1           0        1.629996   -0.804820    1.008723
      7          1           0        2.522654    0.135992   -0.260059
 ---------------------------------------------------------------------
 Rotational constants (GHZ):          38.7333924           3.7783433           3.5221610
 Standard basis: Aug-CC-pVDZ (5D, 7F)
 There are   111 symmetry adapted cartesian basis functions of A   symmetry.
 There are   105 symmetry adapted basis functions of A   symmetry.
   105 basis functions,   173 primitive gaussians,   111 cartesian basis functions
    14 alpha electrons       14 beta electrons
       nuclear repulsion energy        72.3649945375 Hartrees.
 NAtoms=    7 NActive=    7 NUniq=    7 SFac= 1.00D+00 NAtFMM=   60 NAOKFM=F Big=F
 Integral buffers will be    131072 words long.
 Raffenetti 1 integral format.
 Two-electron integral symmetry is turned on.
 One-electron integrals computed using PRISM.
 NBasis=   105 RedAO= T EigKep=  6.15D-04  NBF=   105
 NBsUse=   105 1.00D-06 EigRej= -1.00D+00 NBFU=   105
 Initial guess from the checkpoint file:  "/gscratch/scrubbed/gds001/Gau-19895.chk"
 B after Tr=    -0.000000    0.000000   -0.000000
         Rot=    0.999912   -0.001777    0.000135    0.013133 Ang=  -1.52 deg.
 ExpMin= 2.97D-02 ExpMax= 1.47D+04 ExpMxC= 5.03D+02 IAcc=3 IRadAn=         5 AccDes= 0.00D+00
 Harris functional with IExCor=  205 and IRadAn=       5 diagonalized for initial guess.
 HarFok:  IExCor=  205 AccDes= 0.00D+00 IRadAn=         5 IDoV= 1 UseB2=F ITyADJ=14
 ICtDFT=  3500011 ScaDFX=  1.000000  1.000000  1.000000  1.000000
 FoFCou: FMM=F IPFlag=           0 FMFlag=      100000 FMFlg1=           0
         NFxFlg=           0 DoJE=T BraDBF=F KetDBF=T FulRan=T
         wScrn=  0.000000 ICntrl=       500 IOpCl=  0 I1Cent=   200000004 NGrid=           0
         NMat0=    1 NMatS0=      1 NMatT0=    0 NMatD0=    1 NMtDS0=    0 NMtDT0=    0
 Petite list used in FoFCou.
 Keep R1 ints in memory in canonical form, NReq=21421075.
 Requested convergence on RMS density matrix=1.00D-08 within 128 cycles.
 Requested convergence on MAX density matrix=1.00D-06.
 Requested convergence on             energy=1.00D-06.
 No special actions if energy rises.
 SCF Done:  E(RHF) =  -239.096380292     A.U. after   12 cycles
            NFock= 12  Conv=0.60D-08     -V/T= 2.0016
 ExpMin= 2.97D-02 ExpMax= 1.47D+04 ExpMxC= 5.03D+02 IAcc=3 IRadAn=         5 AccDes= 0.00D+00
 HarFok:  IExCor=  205 AccDes= 0.00D+00 IRadAn=         5 IDoV=-2 UseB2=F ITyADJ=14
 ICtDFT= 12500011 ScaDFX=  1.000000  1.000000  1.000000  1.000000
 Range of M.O.s used for correlation:     4   105
 NBasis=   105 NAE=    14 NBE=    14 NFC=     3 NFV=     0
 NROrb=    102 NOA=    11 NOB=    11 NVA=    91 NVB=    91

 **** Warning!!: The largest alpha MO coefficient is  0.17214123D+02

 Fully direct method using O(ONN) memory.
 JobTyp=1 Pass  1:  I=   4 to  14 NPSUse= 28 ParTrn=T ParDer=T DoDerP=T.
 Spin components of T(2) and E(2):
     alpha-alpha T2 =       0.1822909430D-01 E2=     -0.7414322391D-01
     alpha-beta  T2 =       0.1075226944D+00 E2=     -0.4373543377D+00
     beta-beta   T2 =       0.1822909430D-01 E2=     -0.7414322391D-01
 ANorm=    0.1069570420D+01
 E2 =    -0.5856407855D+00 EUMP2 =    -0.23968202107720D+03
          IDoAtm=1111111
          Differentiating once with respect to electric field.
                with respect to dipole field.
          Differentiating once with respect to nuclear coordinates.
 Keep R1 ints in memory in canonical form, NReq=21424543.
          There are     1 degrees of freedom in the 1st order CPHF.  IDoFFX=0 NUNeed=     1.
 LinEq1:  Iter=  0 NonCon=     1 RMS=5.34D-03 Max=4.45D-02 NDo=     1
 AX will form     1 AO Fock derivatives at one time.
 LinEq1:  Iter=  1 NonCon=     1 RMS=1.46D-03 Max=1.02D-02 NDo=     1
 LinEq1:  Iter=  2 NonCon=     1 RMS=2.56D-04 Max=1.81D-03 NDo=     1
 LinEq1:  Iter=  3 NonCon=     1 RMS=7.11D-05 Max=5.73D-04 NDo=     1
 LinEq1:  Iter=  4 NonCon=     1 RMS=2.58D-05 Max=1.53D-04 NDo=     1
 LinEq1:  Iter=  5 NonCon=     1 RMS=6.96D-06 Max=5.71D-05 NDo=     1
 LinEq1:  Iter=  6 NonCon=     1 RMS=1.68D-06 Max=1.53D-05 NDo=     1
 LinEq1:  Iter=  7 NonCon=     1 RMS=3.16D-07 Max=2.49D-06 NDo=     1
 LinEq1:  Iter=  8 NonCon=     1 RMS=6.08D-08 Max=4.63D-07 NDo=     1
 LinEq1:  Iter=  9 NonCon=     1 RMS=9.60D-09 Max=6.31D-08 NDo=     1
 LinEq1:  Iter= 10 NonCon=     1 RMS=1.47D-09 Max=9.95D-09 NDo=     1
 LinEq1:  Iter= 11 NonCon=     1 RMS=2.72D-10 Max=1.47D-09 NDo=     1
 LinEq1:  Iter= 12 NonCon=     0 RMS=5.27D-11 Max=4.39D-10 NDo=     1
 Linear equations converged to 1.000D-10 1.000D-09 after    12 iterations.
 End of Minotr F.D. properties file   721 does not exist.
 End of Minotr F.D. properties file   722 does not exist.
 End of Minotr F.D. properties file   788 does not exist.
 Calling FoFJK, ICntrl=  10002127 FMM=F ISym2X=0 I1Cent= 0 IOpClX= 0 NMat=1 NMatS=1 NMatT=0.
 ***** Axes restored to original set *****
 -------------------------------------------------------------------
 Center     Atomic                   Forces (Hartrees/Bohr)
 Number     Number              X              Y              Z
 -------------------------------------------------------------------
      1        9           0.006577002    0.001379027   -0.007440016
      2        1           0.006461999   -0.000944103    0.003539910
      3        9          -0.004516175    0.000775991   -0.002676402
      4        6          -0.014549560   -0.002091192    0.011333249
      5        1           0.001120584    0.002026243   -0.002249603
      6        1           0.001516933   -0.001592048   -0.002445808
      7        1           0.003389217    0.000446082   -0.000061330
 -------------------------------------------------------------------
 Cartesian Forces:  Max     0.014549560 RMS     0.005169913

 GradGradGradGradGradGradGradGradGradGradGradGradGradGradGradGradGradGrad
 Berny optimization.
 Using GEDIIS/GDIIS optimizer.
 FormGI is forming the generalized inverse of G from B-inverse, IUseBI=4.
 Internal  Forces:  Max     0.010860254 RMS     0.003323068
 Search for a local minimum.
 Step number   5 out of a maximum of   27
 All quantities printed in internal units (Hartrees-Bohrs-Radians)
 Mixed Optimization -- RFO/linear search
 Update second derivatives using D2CorX and points    4    5
 DE= -3.92D-04 DEPred=-4.16D-04 R= 9.44D-01
 TightC=F SS=  1.41D+00  RLast= 3.23D-01 DXNew= 1.6547D+00 9.6753D-01
 Trust test= 9.44D-01 RLast= 3.23D-01 DXMaxT set to 9.84D-01
 The second derivative matrix:
                          R1        R2        R3        R4        R5
           R1           0.07331
           R2           0.01040   0.57473
           R3          -0.00547  -0.05332   0.63095
           R4          -0.00153  -0.02730   0.02342   0.34219
           R5          -0.00167  -0.02772   0.02348   0.01555   0.34226
           R6          -0.00149  -0.02745   0.02380   0.01583   0.01587
           A1           0.00087   0.00682  -0.00539  -0.00389  -0.00389
           A2           0.00080   0.00720  -0.00609  -0.00446  -0.00446
           A3           0.00047   0.00494  -0.00414  -0.00270  -0.00268
           A4          -0.00405  -0.02782   0.01723   0.01022   0.01028
           A5           0.00098   0.00463  -0.00098   0.00023   0.00019
           A6           0.00085   0.00427  -0.00102   0.00019   0.00016
           A7           0.00672   0.02297  -0.00376  -0.00265  -0.00260
           A8           0.00367   0.00760   0.00173   0.00097   0.00088
           A9          -0.00287  -0.00941   0.00136   0.00108   0.00106
           A10          0.00173   0.00424   0.00023   0.00009   0.00006
           D1          -0.00886  -0.05499   0.02994   0.01633   0.01650
                          R6        A1        A2        A3        A4
           R6           0.34283
           A1          -0.00400   0.15774
           A2          -0.00459  -0.00214   0.15801
           A3          -0.00273  -0.00278  -0.00271   0.15716
           A4           0.01038   0.00415   0.00394   0.00489   0.15561
           A5           0.00028   0.00149   0.00143   0.00170  -0.00423
           A6           0.00025   0.00151   0.00145   0.00171  -0.00421
           A7          -0.00277  -0.00133  -0.00152  -0.00130  -0.00010
           A8           0.00085  -0.00055  -0.00067  -0.00101   0.00019
           A9           0.00114   0.00066   0.00074   0.00067  -0.00026
           A10          0.00003  -0.00026  -0.00031  -0.00044   0.00000
           D1           0.01651   0.00461   0.00442   0.00559  -0.00053
                          A5        A6        A7        A8        A9
           A5           0.15980
           A6          -0.00023   0.15974
           A7           0.00180   0.00190   0.01001
           A8           0.00081   0.00083  -0.00350   0.01665
           A9          -0.00076  -0.00081   0.00330   0.00156   0.01510
           A10          0.00041   0.00042  -0.00165   0.00042   0.00075
           D1          -0.00689  -0.00680  -0.00313  -0.00131   0.00080
                          A10       D1
           A10          0.01531
           D1          -0.00078   0.01281
 ITU=  1  1  1  1  0
 Use linear search instead of GDIIS.
     Eigenvalues ---    0.00437   0.01522   0.01671   0.01846   0.06795
     Eigenvalues ---    0.07722   0.16000   0.16001   0.16032   0.16320
     Eigenvalues ---    0.32667   0.32668   0.36023   0.54630   0.67776
 RFO step:  Lambda=-5.45445844D-04 EMin= 4.36660538D-03
 Quartic linear search produced a step of  0.05749.
 Iteration  1 RMS(Cart)=  0.10333163 RMS(Int)=  0.00501369
 Iteration  2 RMS(Cart)=  0.00668105 RMS(Int)=  0.00003652
 Iteration  3 RMS(Cart)=  0.00001502 RMS(Int)=  0.00003348
[...]
 573,0.01382422,0.04942306,-0.00528135,-0.00622584,-0.00125000,0.003239
 39,-0.00174954,0.00138996,-0.03721104,-0.00614984,-0.00440912,-0.00190
 804,0.00060807,0.00011192,-0.00013565,0.00007606,-0.00007830,0.0000430
 1,-0.00003724,0.06686719,0.05363060,0.03923438,0.00588346,0.00461069,0
 .00167971,-0.00008772,-0.00487856,-0.00079862,-0.06828745,-0.05136205,
 -0.04076236,0.00835809,0.01212814,-0.00673862,-0.01833853,-0.00936757,
 0.00194633,0.00006250,0.00050876,-0.00055612,0.00108402,-0.00016431,0.
 00038638,-0.00022777,-0.00030375,-0.00045480,0.00020567,-0.00037178,0.
 00053466,-0.00006919,-0.00043116,-0.00037595,0.00011790,-0.00037020,0.
 00037135,-0.00025058,0.00044526,-0.00041138,-0.00042106,0.00012976,-0.
 00011412,-0.00002735,0.00031775,-0.00009707,0.00031582,-0.00018950,0.0
 0032435,-0.00019454,0.00007988,-0.00016283,-0.00026783,0.00028928,-0.0
 0004067,0.00032792,-0.00026786,0.00029744,-0.00387608,-0.01391026,0.02
 224751,0.00227610,-0.00055534,0.00016537,-0.00083065,0.00032784,-0.000
 17883,-0.13953046,-0.01516241,0.01743018,0.01286211,0.00098027,-0.0009
 6389,0.00100563,-0.00050434,0.00061144,-0.00049830,0.10105286,-0.28440
 888,0.02366674,0.01258833,0.00641703,-0.00158620,0.00133640,-0.0010737
 9,0.00076945,-0.00067745,0.00068394,-0.15971455,-0.09285446,-0.2067257
 5,0.00007038,0.00671736,-0.00789192,-0.00146902,-0.00035585,0.00082179
 ,0.00085314,-0.00004349,-0.00019724,0.00226472,-0.06547267,0.07310054,
 0.00041244,-0.00285071,-0.00423206,0.00415482,-0.00071108,0.00063215,-
 0.00003170,0.00011611,-0.00043108,0.00013108,-0.06838579,0.09793116,-0
 .10080603,0.06582985,-0.08786623,0.00298100,0.00207876,-0.00412887,0.0
 0122734,-0.00010761,0.00032894,-0.00037863,0.00016561,-0.00040053,0.07
 640394,-0.10143893,0.09493781,-0.07297051,0.09576090,-0.08409908,-0.00
 111934,-0.00296557,0.00061729,-0.00085500,0.00048824,-0.00034582,0.000
 26052,-0.00029323,0.00024565,0.03380819,-0.10416150,-0.05298202,-0.000
 30734,0.00511570,-0.00138959,-0.02549300,0.00998292,-0.00311238,-0.009
 17829,-0.00043763,0.00022394,-0.00031311,0.00024840,-0.00013420,0.0001
 9675,-0.09870963,0.11640712,0.10547419,-0.00121709,-0.00172463,0.00489
 384,0.09639417,-0.11053289,0.00273683,0.00149300,-0.00380119,0.0006083
 7,-0.00035017,0.00034099,-0.00035552,0.00018449,-0.00019608,-0.0501302
 1,0.10804056,0.05722230,0.00439264,-0.00392672,-0.00536975,0.04726789,
 -0.10040708,-0.04749400,-0.00361343,-0.00210824,0.00355042,-0.00084801
 ,0.00044574,-0.00036644,0.00027075,-0.00024914,0.00026488,0.10588819,0
 .08326780,0.11674604,-0.00182430,0.00088591,-0.00587354,-0.00629402,-0
 .00626115,-0.00452000,-0.09357918,-0.00406341,-0.00361938,0.00178405,-
 0.00035432,0.00027328,-0.00017369,0.00025427,-0.00015931,0.00006917,0.
 08018031,0.05299287,0.07493902,-0.00545811,-0.00430931,-0.00135256,0.0
 0542219,-0.00112696,-0.00503408,-0.07598093,-0.04405120,-0.01105716,-0
 .00650060,-0.00080512,0.00064363,-0.00050898,0.00028583,-0.00032318,0.
 00030674,-0.00018127,0.11120678,0.07288340,0.04853846,0.00274469,0.004
 71764,-0.00126852,0.00658660,-0.00066628,-0.00070227,-0.10980136,-0.07
 023192,-0.04586711,-0.01302693,-0.00087187,-0.00204671,0.00269078,-0.0
 0321229,-0.00194121,0.00095762,0.00036837,-0.00060346,-0.00008270,-0.0
 0071109,-0.00009197,0.00036014,0.00064123,-0.00040686,0.00062086,0.000
 12912,-0.00018856,-0.00076244,-0.00000012,-0.00010885,-0.00040817,-0.0
 0011275,0.00020587,0.00030385,-0.00017624,0.00014157,-0.00051396,0.000
 46168,0.00004143,-0.00020242,-0.00030657,0.00018726,-0.00005369,0.0001
 2696,-0.00000356,-0.00044505,-0.00007934,0.00013638,0.00028859,-0.0000
 8112,0.00010133,-0.00001220,0.00003201,0.00002503,0.01104378,-0.000036
 19,0.00177268,0.00036343,0.00111217,-0.00138820,-0.00002681,-0.0004905
 3,0.00061570,-0.16216862,-0.00382940,0.01237318,0.00825125,-0.00043573
 ,-0.00085037,0.00080958,0.00021614,0.00045374,-0.00027823,0.02833400,-
 0.27909891,0.00611079,0.00744139,0.00913432,0.00036587,0.00047715,-0.0
 0084072,-0.00018554,-0.00012704,0.00043433,-0.08749156,-0.15978273,-0.
 21410718,0.00385000,0.00249956,-0.00362236,-0.00044492,-0.00023151,0.0
 0045043,0.00044443,0.00000623,-0.00017068,-0.00247252,-0.01284722,0.01
 955408,-0.00594916,-0.00220805,-0.00097602,0.00184684,-0.00021305,0.00
 041293,0.00004679,-0.00009153,-0.00030430,0.00001536,-0.01609359,0.048
 89799,-0.02874590,0.01848503,-0.03372224,0.00172326,0.00081400,-0.0010
 9759,0.00042791,0.00005280,0.00026208,-0.00005823,-0.00000597,-0.00028
 851,0.02314960,-0.02932194,0.04890858,-0.01969241,0.03386047,-0.034513
 23,-0.00012394,0.00123605,0.00113193,-0.00058102,-0.00022661,0.0006026
 7,0.00012358,0.00009281,-0.00016788,0.03542644,-0.11896501,-0.07799813
 ,0.00238111,-0.00341913,-0.00426497,-0.03412879,0.00703733,-0.00472763
 ,-0.00648075,-0.00031250,0.00023314,-0.00030191,0.00016512,-0.00010723
 ,0.00014638,-0.09456572,0.18494395,0.10903265,-0.00049947,-0.01008500,
 0.00280392,0.10264113,-0.16137224,-0.00195100,-0.00077765,-0.00400211,
 -0.00010378,-0.00049548,0.00055870,0.00007001,0.00018053,-0.00030699,-
 0.05703489,0.09833722,0.04322194,0.00433254,-0.00837144,-0.00378187,0.
 07216749,-0.09221371,-0.02935804,-0.00229234,-0.00308318,-0.00157545,-
 0.00051626,-0.00040795,0.00033511,0.00007710,0.00010941,-0.00010849,0.
 11783431,0.10752723,0.13964449,0.00219107,0.00354032,-0.00128518,-0.00
 309737,-0.01446590,-0.01748038,-0.11419650,0.00012139,-0.00457226,-0.0
 0056278,0.00025825,0.00051587,-0.00062977,-0.00012770,-0.00026734,0.00
 024495,0.08173986,0.03328043,0.07170447,-0.00741264,-0.00422336,-0.008
 20329,0.01864076,-0.00888499,0.00334052,-0.09321993,-0.01584835,-0.008
 74965,-0.00431524,-0.00204121,0.00038730,-0.00031338,0.00021602,-0.000
 16148,0.00017659,-0.00010158,0.12037666,0.08198484,0.11324873,-0.00085
 161,0.00134788,-0.00948946,0.00852889,-0.01298659,-0.00633162,-0.11953
 010,-0.06589410,-0.09550090,-0.00075886,-0.00176446,-0.00704512,0.0015
 6727,0.00515129,-0.00904299,0.00036180,0.00067235,-0.00079997,-0.00007
 130,-0.00042396,0.00014995,0.00014922,-0.00038380,0.00002112,0.0004530
 3,-0.00008813,0.00020196,0.00058242,0.00064073,-0.00032408,0.00007303,
 -0.00039728,0.00041461,0.00005816,0.00005700,-0.00012980,0.00018592,0.
 00020745,0.00000118,-0.00015613,0.00005259,0.00002188,-0.00021781,0.00
 014103,-0.00018991,-0.00027259,-0.00002543,-0.00000830,-0.00012725,-0.
 00021752,0.00009705,-0.00020736,0.00004978,-0.00011257,0.00577813,-0.0
 0792939,0.00968346,0.00007620,0.00039331,-0.00068817,-0.00031384,-0.00
 018037,0.00043113,-0.16592143,-0.00296263,0.01365719,-0.00469094,-0.00
 028093,-0.00099680,0.00006444,0.00029569,0.00061119,0.00006350,0.12408
 805,-0.26601466,0.00401243,-0.00361946,0.01221434,0.00009273,-0.000085
 72,-0.00091880,-0.00011693,0.00016876,0.00055872,-0.14502291,0.0615607
 6,-0.22643261,-0.00075663,0.00682880,-0.00836504,-0.00019669,0.0003809
 4,-0.00036044,-0.00011344,-0.00015547,0.00018385,0.07368250,-0.1175684
 0,0.10853460,-0.05541683,0.00095764,-0.00666689,0.00335068,0.00009011,
 0.00023859,-0.00015558,-0.00011881,-0.00012461,0.00007533,-0.12857750,
 0.13594572,-0.17459151,0.10732458,-0.11889058,-0.00169173,0.00209520,-
 0.00553182,-0.00003520,-0.00022019,0.00037329,0.00014398,0.00008408,-0
 .00020684,0.12114741,-0.17708837,0.13282980,-0.09881098,0.17106394,-0.
 12106077,-0.00185314,0.00057038,-0.00224474,-0.00008769,0.00012022,0.0
 0019142,0.00004521,-0.00014362,-0.00009363,0.02730717,-0.03351726,-0.0
 1504256,-0.00850026,0.00319683,-0.01415750,-0.01394630,0.00538112,-0.0
 0013691,-0.00384232,-0.00008960,0.00018699,-0.00019678,0.00007787,-0.0
 0011739,0.00011019,-0.04412026,0.07267109,0.05317300,0.00953965,-0.002
 70753,0.01676212,0.02859940,-0.06720882,0.00123194,-0.00037963,0.00064
 581,0.00015749,-0.00006595,0.00035473,-0.00001456,-0.00004674,-0.00019
 645,-0.03552477,0.08030401,0.04304859,0.00302739,-0.01538052,-0.005882
 59,0.03187351,-0.06657126,-0.03530521,-0.00284432,0.00201959,-0.000255
 60,-0.00014048,-0.00014370,-0.00004845,0.00006499,0.00007838,0.0000858
 5,0.05939126,0.02994547,0.04754263,-0.00869866,0.01712715,-0.00659597,
 -0.00296499,0.00061181,-0.00075100,-0.04480780,-0.00139517,0.00004061,
 0.00003819,-0.00006073,0.00037826,-0.00004688,-0.00005551,-0.00020230,
 -0.00005585,0.05632615,0.04412627,0.06339417,-0.00635009,-0.00779471,-
 0.01269678,0.00117405,-0.00268743,0.00214010,-0.04963870,-0.03386070,-
 0.00530036,-0.00313384,0.00152102,0.00012978,-0.00020058,0.00021585,-0
 .00008994,0.00011807,-0.00013157,0.04997385,0.03978660,0.03869997,-0.0
 0420938,0.01563766,-0.00052107,-0.00052649,0.00056505,-0.00266487,-0.0
 3997746,-0.05277296,-0.03711933,-0.00573962,-0.00267799,-0.00217769,0.
 00409548,0.00205847,-0.00410224,-0.00017650,0.00073260,-0.00072434,0.0
 0102808,0.00019549,-0.00002578,0.00034292,-0.00109190,0.00008109,-0.00
 011799,0.00022865,0.00008019,0.00094920,-0.00028430,-0.00024621,0.0002
 5228,-0.00022772,0.00018245,-0.00060666,0.00054406,-0.00047254,0.00057
 195,-0.00009303,0.00011827,-0.00023004,0.00047054,-0.00014901,0.000205
 80,-0.00030158,0.00004872,0.00003235,-0.00020173,0.00011984,-0.0003905
 6,0.00019098,-0.00002220,0.00020896,-0.00010293,-0.00001628,0.00710822
 ,0.00320306,-0.00471462,0.00026088,0.00002501,-0.00017021,-0.00046160,
 -0.00004642,0.00019280,0.33459495,0.00237633,0.00348442,-0.00202712,-0
 .00001100,-0.00053352,0.00015196,0.00001359,0.00023036,-0.00004581,-0.
 38988713,0.87531624,-0.00377653,-0.00220861,0.00547043,-0.00013159,0.0
 0014401,-0.00053852,0.00012604,-0.00003239,0.00020414,0.59158003,0.249
 47452,0.60893778,-0.00301513,-0.00562554,0.00647874,-0.00002771,0.0001
 5932,-0.00017668,-0.00018704,0.00003435,-0.00000084,-0.03388717,0.3489
 0134,-0.34653719,0.03689638,0.00446660,0.00027889,-0.00426348,0.000052
 93,0.00032784,-0.00039356,0.00004813,-0.00013690,0.00013643,0.35547766
 ,-0.31188983,0.50127012,-0.35638884,0.30008711,-0.00499128,-0.00208260
 ,0.00082399,-0.00005509,-0.00041535,0.00047753,-0.00001585,0.00013917,
 -0.00016278,-0.35401797,0.50269308,-0.29772795,0.35219309,-0.49923126,
 0.28399970,-0.00015061,0.00285093,-0.00133779,-0.00024172,-0.00002547,
 -0.00003094,0.00019415,-0.00003471,-0.00006036,-0.01015006,0.37687984,
 0.22223700,0.00004137,0.00341547,0.00714475,-0.00214683,-0.00757486,-0
 .00071270,0.00656633,-0.00001440,-0.00003763,0.00025262,-0.00012689,0.
 00005441,-0.00008298,0.36922682,-0.50790360,-0.42379624,-0.00053642,-0
 .00166909,-0.01181220,-0.36881139,0.51041029,-0.00309353,-0.00237408,-
 0.00038408,0.00023228,-0.00014554,0.00031403,-0.00009384,0.00010075,-0
 .00015007,0.22166163,-0.43131733,-0.07725085,-0.00838841,0.01445720,0.
 01370021,-0.21961451,0.42573798,0.06420579,0.00172136,0.00174466,-0.00
 397991,-0.00023636,0.00019349,0.00001915,0.00023692,-0.00002916,0.0000
 1765,-0.29746522,-0.33827297,-0.46349776,0.00017930,-0.00707195,-0.000
 25765,0.01245370,0.00783713,0.00929638,0.28311030,0.00330746,-0.000965
 40,-0.00244709,-0.00013878,0.00033701,-0.00016116,0.00005040,-0.000165
 84,0.00010605,-0.33799900,-0.05870407,-0.32485142,0.01345579,0.0130019
 8,0.01070916,-0.01427468,-0.00014167,-0.00645899,0.33559881,0.04663798
 ,0.00785149,0.00457990,-0.00200813,0.00012010,0.00016728,-0.00006483,0
 .00006479,-0.00008035,0.00002736,-0.45453166,-0.31892930,-0.23909502,-
 0.00356871,-0.01197544,-0.00111070,-0.00833814,0.00313448,-0.00043504,
 0.45840213,0.32310344,0.24268637,-0.00916704,-0.00776454,-0.00205875,0
 .01187125,0.00957331,-0.00856523,-0.00027731,0.00113264,-0.00108054,0.
 00135941,0.00021757,0.00013822,0.00056277,-0.00131844,-0.00018964,-0.0
 0004374,0.00036681,0.00026790,0.00110557,-0.00008641,-0.00064458,0.000
 51744,-0.00045126,0.00035577,-0.00042810,0.00047098,-0.00045799,0.0002
 7140,-0.00004843,0.00012616,-0.00037355,0.00024903,-0.00006310,-0.0000
 0374,0.00005988,-0.00005716,-0.00009903,-0.00028743,0.00013607,-0.0002
 0740,-0.00005043,0.00007268,-0.00009745,0.00015010,-0.00005290,0.01223
 369,0.01638771,-0.02314172,-0.00096014,0.00055984,-0.00039426,0.000042
 74,-0.00035900,0.00038398,0.13759163,0.00356608,-0.00171260,-0.0085802
 8,-0.00103676,0.00002203,0.00037823,0.00032448,-0.00019648,0.00008011,
 -0.68489040,0.96760570,-0.00855704,-0.01135184,0.00616861,0.00141980,0
 .00003295,-0.00018590,-0.00039153,0.00022842,-0.00023826,0.81510577,-0
 .59584784,0.81320906,-0.00680798,-0.00963135,0.01257712,0.00090152,-0.
 00012896,-0.00015007,-0.00077042,0.00023901,-0.00004587,0.01586097,0.6
 9883952,-0.69510001,-0.01087728,0.00730653,0.00351784,-0.00475893,0.00
 037935,0.00023734,-0.00089097,-0.00024826,0.00001123,0.00035746,0.6936
 3302,-0.62628716,1.09992154,-0.68753385,0.62346696,-0.00667121,-0.0010
 9674,0.00341045,-0.00072812,-0.00077979,0.00057006,0.00050878,0.000252
 07,-0.00011741,-0.68919437,1.09879813,-0.62586560,0.68354908,-1.085631
 26,0.62305179,0.00154669,0.00149562,0.00130041,-0.00034809,0.00000392,
 -0.00013492,0.00016828,-0.00007942,0.00005575,0.00364450,0.20730151,0.
 14599271,0.00104178,-0.00323211,0.00744053,-0.01301547,-0.00421855,-0.
 00091425,0.00321518,0.00015442,0.00005625,0.00011855,-0.00016539,0.000
 00387,-0.00003717,0.20306581,-0.27817952,-0.27647700,-0.00253095,0.004
 06795,-0.01197243,-0.19975040,0.27207727,-0.00054826,0.00043818,0.0004
 0653,-0.00039761,0.00018405,-0.00011938,-0.00003070,-0.00017524,0.0002
 0122,0.14882939,-0.28810871,-0.07450774,-0.00170217,0.00031219,-0.0052
 6544,-0.15027685,0.28882434,0.07593210,0.00195453,-0.00116884,-0.00188
 230,-0.00024729,0.00019510,0.00007541,0.00019867,-0.00006107,0.0000100
 1,-0.16841340,-0.22410443,-0.25846969,0.00065141,-0.01030468,0.0050953
 0,0.00696231,0.00344505,0.00412621,0.15889377,0.00094134,0.00090339,0.
 00036151,0.00043976,-0.00020111,0.00011753,0.00000956,0.00017549,-0.00
 021263,-0.22839698,-0.06125196,-0.21650622,0.00074658,-0.00501417,0.00
 043001,-0.00573911,0.00288842,-0.00147482,0.23199886,0.06249993,0.0040
 4804,0.00235772,-0.00182433,-0.00011170,0.00013687,0.00003922,0.000113
 11,-0.00007805,-0.00000141,-0.25158879,-0.20671964,-0.11858017,0.00087
 191,-0.00931002,0.00421614,-0.00437763,-0.00367148,0.00335270,0.251045
 07,0.21728461,0.11279785,-0.01516973,-0.00879847,0.00051363,0.01355359
 ,0.00277088,-0.00480466,-0.00024149,0.00103915,-0.00102521,0.00112267,
 0.00053615,0.00003254,0.00037794,-0.00084650,-0.00000692,-0.00045792,0
 .00027110,0.00025953,0.00061195,-0.00043358,-0.00017723,0.00010224,-0.
 00040972,0.00041191,-0.00040389,0.00021506,-0.00016727,-0.00002390,-0.
 00027155,0.00009225,-0.00021379,0.00026248,-0.00016672,0.00013617,0.00
 002575,0.00016747,0.00025767,-0.00018478,0.00000617,-0.00022290,0.0001
 4745,-0.00012690,0.00002404,0.00000357,0.00017675,0.01425695,0.0040579
 9,-0.00910033,-0.00098158,0.00048469,-0.00040178,0.00032302,-0.0003108
 5,0.00031623,0.59876372,0.01810683,-0.00277301,-0.00817791,-0.00046112
 ,0.00012851,-0.00038105,0.00018218,-0.00002747,0.00016811,-0.06790403,
 0.87194502,-0.02508716,-0.00514820,0.00473930,0.00067106,-0.00058521,0
 .00022480,-0.00024377,0.00027457,-0.00010317,0.37757761,1.27417064,0.4
 5070868,-0.00057515,0.00063524,-0.00031986,-0.00005992,-0.00010105,0.0
 0011840,0.00009157,0.00005242,-0.00007629,-0.00985770,-0.00819569,0.00
 846761,0.00161535,0.00006474,0.00087197,0.00045581,-0.00014640,0.00007
 902,-0.00010853,0.00002136,-0.00007274,0.00009470,0.00287318,-0.005630
 16,-0.01002508,-0.00075804,-0.00049228,0.00032681,0.00032954,0.0008396
 1,0.00017171,-0.00011722,0.00005435,-0.00004107,0.00008807,-0.00007667
 ,-0.00411262,-0.00763867,-0.00428955,0.00018533,-0.00078328,-0.0005471
 8,-0.00040483,0.00207619,0.00013575,0.00027081,-0.00037508,-0.00001026
 ,-0.00007765,0.00020642,-0.00008929,-0.03887562,0.68331792,0.43883503,
 0.00365325,-0.00200230,-0.00023060,0.04525505,-0.01185121,-0.00096737,
 0.00937756,0.00023408,-0.00011632,0.00041695,-0.00026657,0.00005419,-0
 .00014983,0.68046407,-0.81050523,-0.73241490,0.00149338,0.00372300,-0.
 00079513,-0.68018598,0.80483836,-0.00121119,-0.00421382,0.00229923,0.0
 0002590,0.00017957,-0.00002315,-0.00020852,-0.00008422,0.00004423,0.43
 489215,-0.72623720,-0.10891136,-0.00571157,0.01059054,0.00165387,-0.43
 323650,0.71577857,0.10280613,0.00203201,0.00139961,-0.00365586,0.00029
 339,0.00008673,0.00030689,-0.00001138,0.00003532,-0.00020946,-0.563628
 79,-0.62504608,-0.80022038,0.00513260,-0.00005253,0.00370044,-0.009821
 02,0.01011222,0.00544972,0.56600319,0.00221351,0.00223000,-0.00459049,
 -0.00008170,0.00004989,0.00009894,0.00023194,-0.00004698,-0.00007919,-
 0.61966506,-0.05313766,-0.52627182,0.00687375,0.00152120,0.00891668,-0
 .00303717,0.00297337,0.00398657,0.61346472,0.04641018,0.01261820,0.006
 17529,-0.00333917,-0.00023251,0.00043105,-0.00021140,0.00022468,-0.000
 20437,0.00007960,-0.79917125,-0.53190393,-0.34236870,-0.00266362,-0.00
 022416,0.00236557,-0.00540414,0.00778679,0.00213105,0.79462864,0.51793
 932,0.34134306,-0.01760891,-0.00272919,0.01394278,0.00684675,-0.015560
 97,0.01597901,0.00564941,0.00443554,-0.00848020,4.10842305,0.00338630,
 -0.02032558,0.01072498,-3.89349399,0.95004808,-0.00728502,0.01049780,-
 0.02062851,3.18201969,-2.14384855,0.07952145,0.01062872,-0.00426809,0.
 00299774,-4.10680427,3.89349677,-3.17970475,4.09551590,-0.00540022,0.0
 0514079,-0.00238984,3.89595386,-0.93300098,2.13798563,-3.89017389,0.92
 940041,0.00428816,-0.00263461,0.00408771,-3.18250172,2.13851698,-0.060
 99054,3.17801755,-2.13694133,0.05857983,0.00835661,-0.00096060,0.00133
 436,-0.01494723,0.00081282,0.00176425,0.00163576,-0.00202770,0.0019355
 4,0.00525455,0.00628187,0.00135581,0.00786699,-0.01045804,0.00415927,-
 0.00529511,0.00105258,-0.00149366,0.00138049,0.00286727,0.00035457,-0.
 00691308,0.00943155,0.00021001,0.01459199,-0.00773231,0.00316736,-0.00
 157041,0.00204695,-0.00206892,-0.00493178,-0.00389419,0.00299209,-0.00
 336257,0.00000892,0.00050252,0.00308845,-0.00137285,0.00093977,-0.0000
 9118,0.00078144,-0.00094300,0.00050671,0.00167733,-0.00199778,-0.00097
 389,0.00054358,-0.00022598,-0.00098323,0.00125876,0.00008418,-0.000133
 64,-0.00000570,-0.00028133,-0.00006943,-0.00107560,-0.00166740,0.00219
 603,-0.00034713,0.00141757,-0.00010546,-0.00087048,0.00002485,-0.00205
 344,0.00043528,0.00015442,-0.00004663,-0.00023920,-0.00006119,0.001125
 77,0.00159842,-0.00200016,0.00078180,-0.00058499,0.00132648,-0.0022168
 0,0.00107501,-0.00208241,0.00243039,-0.00103850,0.00157608,-0.00050494
 ,0.00047181,-0.00043817,-0.00010550,-0.00058329,0.00061475,0.00038062,
 -0.00037674,-0.00001271,0.00003958,-0.00247611,-0.00042939,0.00036319,
 0.00147570,-0.00056455,0.00091728,-0.00036393,0.00040291,-0.00026142,0
 .00140304,-0.00238767,-0.00146276,-0.00037747,0.00026076,-0.00022463,0
 .00033377,0.00240204,0.00047127,-0.00006179,0.00103525,-0.00161211,0.0
 0029759,-0.00066443,-0.00014476,-0.00009827,0.00000297,0.00069745,-0.0
 0045353,-0.00041470,0.00038642,-0.00010253,0.00038958,0.00025902,0.000
 49442,-0.00065771,-0.00144646,0.00243841,-0.00111876,0.00216020,-0.001
 79055,0.00068998,-0.00037998,0.00039469,-0.00035835,-0.00070090,-0.000
 83773,0.00020630,0.00045186,0.00000283,0.00031068,-0.00002335,0.000005
 00,-0.00005729,-0.00006137,0.00039377,0.00054158,-0.00002112,0.0008281
 7,-0.00040041,-0.00012341,0.00026226,-0.00016815,0.00000932,-0.0010192
 4,-0.00032092,-0.00058526,-0.00037024,0.00041220,-0.00011440,0.0001179
 4,0.00031590,-0.00007589,-0.00021265,-0.00038020,0.00269738,-0.0008014
 8,-0.00070832,-0.00196421,0.00160602,-0.00055974,0.00045127,-0.0003639
 3,0.00045013,-0.00192558,-0.00120307,-0.00188566,0.00033026,-0.0003222
 0,0.00016602,0.00008345,0.00017390,0.00030905,0.00032743,0.00091075,0.
 00222852\\@


 BE NOT THE FIRST BY WHOM THE NEW ARE TRIED,
 NOR YET THE THE LAST TO LAY THE OLD ASIDE.

                          -- ALEXANDER POPE
 Job cpu time:       0 days 10 hours 27 minutes 29.1 seconds.
 Elapsed time:       0 days  0 hours 23 minutes  8.8 seconds.
 File lengths (MBytes):  RWF=    812 Int=      0 D2E=      0 Chk=     44 Scr=      8
 Normal termination of Gaussian 16 at Wed Nov 24 22:43:14 2021.
