 Entering Gaussian System, Link 0=g16
 Input=hf_fme_mp2_avtz_opt_anharm.gjf
 Output=hf_fme_mp2_avtz_opt_anharm.log
 Initial command:
 /sw/contrib/gaussian/g16/A03/g16/l1.exe "/gscratch/scrubbed/gds001/Gau-26132.inp" -scrdir="/gscratch/scrubbed/gds001/"
 Entering Link 1 = /sw/contrib/gaussian/g16/A03/g16/l1.exe PID=     26133.
  
 Copyright (c) 1988,1990,1992,1993,1995,1998,2003,2009,2016,
            Gaussian, Inc.  All Rights Reserved.
  
 This is part of the Gaussian(R) 16 program.  It is based on
 the Gaussian(R) 09 system (copyright 2009, Gaussian, Inc.),
 the Gaussian(R) 03 system (copyright 2003, Gaussian, Inc.),
 the Gaussian(R) 98 system (copyright 1998, Gaussian, Inc.),
 the Gaussian(R) 94 system (copyright 1995, Gaussian, Inc.),
 the Gaussian 92(TM) system (copyright 1992, Gaussian, Inc.),
 the Gaussian 90(TM) system (copyright 1990, Gaussian, Inc.),
 the Gaussian 88(TM) system (copyright 1988, Gaussian, Inc.),
 the Gaussian 86(TM) system (copyright 1986, Carnegie Mellon
 University), and the Gaussian 82(TM) system (copyright 1983,
 Carnegie Mellon University). Gaussian is a federally registered
 trademark of Gaussian, Inc.
  
 This software contains proprietary and confidential information,
 including trade secrets, belonging to Gaussian, Inc.
  
 This software is provided under written license and may be
 used, copied, transmitted, or stored only in accord with that
 written license.
  
 The following legend is applicable only to US Government
 contracts under FAR:
  
                    RESTRICTED RIGHTS LEGEND
  
 Use, reproduction and disclosure by the US Government is
 subject to restrictions as set forth in subparagraphs (a)
 and (c) of the Commercial Computer Software - Restricted
 Rights clause in FAR 52.227-19.
  
 Gaussian, Inc.
 340 Quinnipiac St., Bldg. 40, Wallingford CT 06492
  
  
 ---------------------------------------------------------------
 Warning -- This program may not be used in any manner that
 competes with the business of Gaussian, Inc. or will provide
 assistance to any competitor of Gaussian, Inc.  The licensee
 of this program is prohibited from giving any competitor of
 Gaussian, Inc. access to this program.  By using this program,
 the user acknowledges that Gaussian, Inc. is engaged in the
 business of creating and licensing software in the field of
 computational chemistry and represents and warrants to the
 licensee that it is not a competitor of Gaussian, Inc. and that
 it will not use this program in any manner prohibited above.
 ---------------------------------------------------------------
  

 Cite this work as:
 Gaussian 16, Revision A.03,
 M. J. Frisch, G. W. Trucks, H. B. Schlegel, G. E. Scuseria, 
 M. A. Robb, J. R. Cheeseman, G. Scalmani, V. Barone, 
 G. A. Petersson, H. Nakatsuji, X. Li, M. Caricato, A. V. Marenich, 
 J. Bloino, B. G. Janesko, R. Gomperts, B. Mennucci, H. P. Hratchian, 
 J. V. Ortiz, A. F. Izmaylov, J. L. Sonnenberg, D. Williams-Young, 
 F. Ding, F. Lipparini, F. Egidi, J. Goings, B. Peng, A. Petrone, 
 T. Henderson, D. Ranasinghe, V. G. Zakrzewski, J. Gao, N. Rega, 
 G. Zheng, W. Liang, M. Hada, M. Ehara, K. Toyota, R. Fukuda, 
 J. Hasegawa, M. Ishida, T. Nakajima, Y. Honda, O. Kitao, H. Nakai, 
 T. Vreven, K. Throssell, J. A. Montgomery, Jr., J. E. Peralta, 
 F. Ogliaro, M. J. Bearpark, J. J. Heyd, E. N. Brothers, K. N. Kudin, 
 V. N. Staroverov, T. A. Keith, R. Kobayashi, J. Normand, 
 K. Raghavachari, A. P. Rendell, J. C. Burant, S. S. Iyengar, 
 J. Tomasi, M. Cossi, J. M. Millam, M. Klene, C. Adamo, R. Cammi, 
 J. W. Ochterski, R. L. Martin, K. Morokuma, O. Farkas, 
 J. B. Foresman, and D. J. Fox, Gaussian, Inc., Wallingford CT, 2016.
 
 ******************************************
 Gaussian 16:  ES64L-G16RevA.03 25-Dec-2016
                20-Dec-2021 
 ******************************************
 %nprocshared=28
 Will use up to   28 processors via shared memory.
 %mem=41GB
 ----------------------------------------------
 # MP2/aug-cc-pVTZ opt freq=(vibrot,anharmonic)
 ----------------------------------------------
 1/18=20,19=15,38=1,80=1/1,3;
 2/9=110,12=2,17=6,18=5,40=1/2;
 3/5=16,6=1,7=10,11=9,25=1,30=1,71=1/1,2,3;
 4//1;
 5/5=2,38=5/2;
 8/6=4,10=1/1;
 9/15=2,16=-3/6;
 10/5=1/2;
 6/7=2,8=2,9=2,10=2/1;
 7/12=2/1,2,3,16;
 1/18=20,19=15,80=1/3(2);
 2/9=110/2;
 99//99;
 2/9=110/2;
 3/5=16,6=1,7=10,11=9,25=1,30=1,71=1/1,2,3;
 4/5=5,16=3,69=1/1;
 5/5=2,38=5/2;
 8/6=4,10=1/1;
 9/15=2,16=-3/6;
 10/5=1/2;
 7/12=2/1,2,3,16;
 1/18=20,19=15,80=1/3(-8);
 2/9=110/2;
 6/7=2,8=2,9=2,10=2/1;
 99//99;
 ----
 bleh
 ----
 Symbolic Z-matrix:
 Charge =  0 Multiplicity = 1
 F                     0.58091   0.70681   0. 
 H                    -1.10223   0.26592   0.00001 
 F                    -1.92148  -0.18458  0. 
 C                     1.39976  -0.46201   0. 
 H                     0.7363   -1.33555  -0.00082 
 H                     2.01565  -0.42961   0.90643 
 H                     2.01681  -0.42879  -0.9056 
 
 Add virtual bond connecting atoms H2         and F1         Dist= 3.29D+00.

 GradGradGradGradGradGradGradGradGradGradGradGradGradGradGradGradGradGrad
 Berny optimization.
 Initialization pass.
                           ----------------------------
                           !    Initial Parameters    !
                           ! (Angstroms and Degrees)  !
 --------------------------                            --------------------------
 ! Name  Definition              Value          Derivative Info.                !
 --------------------------------------------------------------------------------
 ! R1    R(1,2)                  1.7399         estimate D2E/DX2                !
 ! R2    R(1,4)                  1.4271         estimate D2E/DX2                !
 ! R3    R(2,3)                  0.9349         estimate D2E/DX2                !
 ! R4    R(4,5)                  1.0969         estimate D2E/DX2                !
 ! R5    R(4,6)                  1.0963         estimate D2E/DX2                !
 ! R6    R(4,7)                  1.0963         estimate D2E/DX2                !
 ! A1    A(2,1,4)              110.3357         estimate D2E/DX2                !
 ! A2    A(1,4,5)              107.7687         estimate D2E/DX2                !
 ! A3    A(1,4,6)              107.3451         estimate D2E/DX2                !
 ! A4    A(1,4,7)              107.3449         estimate D2E/DX2                !
 ! A5    A(5,4,6)              111.3416         estimate D2E/DX2                !
 ! A6    A(5,4,7)              111.3418         estimate D2E/DX2                !
 ! A7    A(6,4,7)              111.4602         estimate D2E/DX2                !
 ! A8    L(1,2,3,5,-1)         165.8725         estimate D2E/DX2                !
 ! A9    L(1,2,3,5,-2)         179.995          estimate D2E/DX2                !
 ! D1    D(2,1,4,5)              0.0453         estimate D2E/DX2                !
 ! D2    D(2,1,4,6)           -119.9847         estimate D2E/DX2                !
 ! D3    D(2,1,4,7)            120.0754         estimate D2E/DX2                !
 --------------------------------------------------------------------------------
 Trust Radius=3.00D-01 FncErr=1.00D-07 GrdErr=1.00D-07 EigMax=2.50D+02 EigMin=1.00D-04
 Number of steps in this run=     28 maximum allowed number of steps=    100.
 GradGradGradGradGradGradGradGradGradGradGradGradGradGradGradGradGradGrad

                          Input orientation:                          
 ---------------------------------------------------------------------
 Center     Atomic      Atomic             Coordinates (Angstroms)
 Number     Number       Type             X           Y           Z
 ---------------------------------------------------------------------
      1          9           0        0.580913    0.706809    0.000000
      2          1           0       -1.102234    0.265916    0.000010
      3          9           0       -1.921480   -0.184581   -0.000001
      4          6           0        1.399761   -0.462006    0.000000
      5          1           0        0.736299   -1.335546   -0.000819
      6          1           0        2.015651   -0.429606    0.906427
      7          1           0        2.016815   -0.428786   -0.905604
 ---------------------------------------------------------------------
                    Distance matrix (angstroms):
                    1          2          3          4          5
     1  F    0.000000
     2  H    1.739934   0.000000
     3  F    2.656416   0.934939   0.000000
     4  C    1.427109   2.605734   3.332808   0.000000
     5  H    2.048258   2.438213   2.896293   1.096930   0.000000
     6  H    2.042430   3.320625   4.047549   1.096349   1.811233
     7  H    2.042427   3.321327   4.048447   1.096347   1.811235
                    6          7
     6  H    0.000000
     7  H    1.812032   0.000000
 Stoichiometry    CH4F2
 Framework group  C1[X(CH4F2)]
 Deg. of freedom    15
 Full point group                 C1      NOp   1
 Largest Abelian subgroup         C1      NOp   1
 Largest concise Abelian subgroup C1      NOp   1
                         Standard orientation:                         
 ---------------------------------------------------------------------
 Center     Atomic      Atomic             Coordinates (Angstroms)
 Number     Number       Type             X           Y           Z
 ---------------------------------------------------------------------
      1          9           0        0.580913    0.706809   -0.000000
      2          1           0       -1.102234    0.265916    0.000010
      3          9           0       -1.921480   -0.184581   -0.000001
      4          6           0        1.399761   -0.462006   -0.000000
      5          1           0        0.736299   -1.335546   -0.000819
      6          1           0        2.015651   -0.429606    0.906427
      7          1           0        2.016815   -0.428786   -0.905604
 ---------------------------------------------------------------------
 Rotational constants (GHZ):          30.9692158           4.5368533           4.0624090
 Standard basis: Aug-CC-pVTZ (5D, 7F)
 There are   265 symmetry adapted cartesian basis functions of A   symmetry.
 There are   230 symmetry adapted basis functions of A   symmetry.
   230 basis functions,   324 primitive gaussians,   265 cartesian basis functions
    14 alpha electrons       14 beta electrons
       nuclear repulsion energy        74.8678811795 Hartrees.
 NAtoms=    7 NActive=    7 NUniq=    7 SFac= 1.00D+00 NAtFMM=   60 NAOKFM=F Big=F
 Integral buffers will be    131072 words long.
 Raffenetti 1 integral format.
 Two-electron integral symmetry is turned on.
 One-electron integrals computed using PRISM.
 NBasis=   230 RedAO= T EigKep=  7.42D-05  NBF=   230
 NBsUse=   230 1.00D-06 EigRej= -1.00D+00 NBFU=   230
 ExpMin= 2.53D-02 ExpMax= 1.95D+04 ExpMxC= 6.65D+02 IAcc=3 IRadAn=         5 AccDes= 0.00D+00
 Harris functional with IExCor=  205 and IRadAn=       5 diagonalized for initial guess.
 HarFok:  IExCor=  205 AccDes= 0.00D+00 IRadAn=         5 IDoV= 1 UseB2=F ITyADJ=14
 ICtDFT=  3500011 ScaDFX=  1.000000  1.000000  1.000000  1.000000
 FoFCou: FMM=F IPFlag=           0 FMFlag=      100000 FMFlg1=           0
         NFxFlg=           0 DoJE=T BraDBF=F KetDBF=T FulRan=T
         wScrn=  0.000000 ICntrl=       500 IOpCl=  0 I1Cent=   200000004 NGrid=           0
         NMat0=    1 NMatS0=      1 NMatT0=    0 NMatD0=    1 NMtDS0=    0 NMtDT0=    0
 Petite list used in FoFCou.
 Keep R1 ints in memory in canonical form, NReq=366793659.
 Requested convergence on RMS density matrix=1.00D-08 within 128 cycles.
 Requested convergence on MAX density matrix=1.00D-06.
 Requested convergence on             energy=1.00D-06.
 No special actions if energy rises.
 SCF Done:  E(RHF) =  -239.162910316     A.U. after   10 cycles
            NFock= 10  Conv=0.85D-08     -V/T= 2.0014
 ExpMin= 2.53D-02 ExpMax= 1.95D+04 ExpMxC= 6.65D+02 IAcc=3 IRadAn=         5 AccDes= 0.00D+00
 HarFok:  IExCor=  205 AccDes= 0.00D+00 IRadAn=         5 IDoV=-2 UseB2=F ITyADJ=14
 ICtDFT= 12500011 ScaDFX=  1.000000  1.000000  1.000000  1.000000
 Range of M.O.s used for correlation:     4   230
 NBasis=   230 NAE=    14 NBE=    14 NFC=     3 NFV=     0
 NROrb=    227 NOA=    11 NOB=    11 NVA=   216 NVB=   216

 **** Warning!!: The largest alpha MO coefficient is  0.31409334D+02

 Fully direct method using O(ONN) memory.
 JobTyp=1 Pass  1:  I=   4 to  14 NPSUse= 28 ParTrn=T ParDer=T DoDerP=T.
 Spin components of T(2) and E(2):
     alpha-alpha T2 =       0.1930356814D-01 E2=     -0.8843575605D-01
     alpha-beta  T2 =       0.1163798488D+00 E2=     -0.5518402001D+00
     beta-beta   T2 =       0.1930356814D-01 E2=     -0.8843575605D-01
 ANorm=    0.1074703208D+01
 E2 =    -0.7287117122D+00 EUMP2 =    -0.23989162202862D+03
          IDoAtm=1111111
          Differentiating once with respect to electric field.
                with respect to dipole field.
          Differentiating once with respect to nuclear coordinates.
 Keep R1 ints in memory in canonical form, NReq=366798556.
          There are     1 degrees of freedom in the 1st order CPHF.  IDoFFX=0 NUNeed=     1.
 LinEq1:  Iter=  0 NonCon=     1 RMS=3.16D-03 Max=3.27D-02 NDo=     1
 AX will form     1 AO Fock derivatives at one time.
 LinEq1:  Iter=  1 NonCon=     1 RMS=7.01D-04 Max=6.43D-03 NDo=     1
 LinEq1:  Iter=  2 NonCon=     1 RMS=1.79D-04 Max=1.54D-03 NDo=     1
 LinEq1:  Iter=  3 NonCon=     1 RMS=6.86D-05 Max=8.92D-04 NDo=     1
 LinEq1:  Iter=  4 NonCon=     1 RMS=1.81D-05 Max=1.77D-04 NDo=     1
 LinEq1:  Iter=  5 NonCon=     1 RMS=4.35D-06 Max=4.80D-05 NDo=     1
 LinEq1:  Iter=  6 NonCon=     1 RMS=1.62D-06 Max=2.17D-05 NDo=     1
 LinEq1:  Iter=  7 NonCon=     1 RMS=3.48D-07 Max=2.68D-06 NDo=     1
 LinEq1:  Iter=  8 NonCon=     1 RMS=6.52D-08 Max=7.24D-07 NDo=     1
 LinEq1:  Iter=  9 NonCon=     1 RMS=1.00D-08 Max=9.06D-08 NDo=     1
 LinEq1:  Iter= 10 NonCon=     1 RMS=1.83D-09 Max=2.12D-08 NDo=     1
 LinEq1:  Iter= 11 NonCon=     1 RMS=2.99D-10 Max=2.37D-09 NDo=     1
 LinEq1:  Iter= 12 NonCon=     0 RMS=6.07D-11 Max=8.05D-10 NDo=     1
 Linear equations converged to 1.000D-10 1.000D-09 after    12 iterations.
 End of Minotr F.D. properties file   721 does not exist.
 End of Minotr F.D. properties file   722 does not exist.
 End of Minotr F.D. properties file   788 does not exist.

 **********************************************************************

            Population analysis using the SCF density.

 **********************************************************************

 Orbital symmetries:
       Occupied  (A) (A) (A) (A) (A) (A) (A) (A) (A) (A) (A) (A)
                 (A) (A)
       Virtual   (A) (A) (A) (A) (A) (A) (A) (A) (A) (A) (A) (A)
                 (A) (A) (A) (A) (A) (A) (A) (A) (A) (A) (A) (A)
                 (A) (A) (A) (A) (A) (A) (A) (A) (A) (A) (A) (A)
                 (A) (A) (A) (A) (A) (A) (A) (A) (A) (A) (A) (A)
                 (A) (A) (A) (A) (A) (A) (A) (A) (A) (A) (A) (A)
                 (A) (A) (A) (A) (A) (A) (A) (A) (A) (A) (A) (A)
                 (A) (A) (A) (A) (A) (A) (A) (A) (A) (A) (A) (A)
                 (A) (A) (A) (A) (A) (A) (A) (A) (A) (A) (A) (A)
                 (A) (A) (A) (A) (A) (A) (A) (A) (A) (A) (A) (A)
                 (A) (A) (A) (A) (A) (A) (A) (A) (A) (A) (A) (A)
                 (A) (A) (A) (A) (A) (A) (A) (A) (A) (A) (A) (A)
                 (A) (A) (A) (A) (A) (A) (A) (A) (A) (A) (A) (A)
                 (A) (A) (A) (A) (A) (A) (A) (A) (A) (A) (A) (A)
                 (A) (A) (A) (A) (A) (A) (A) (A) (A) (A) (A) (A)
                 (A) (A) (A) (A) (A) (A) (A) (A) (A) (A) (A) (A)
                 (A) (A) (A) (A) (A) (A) (A) (A) (A) (A) (A) (A)
                 (A) (A) (A) (A) (A) (A) (A) (A) (A) (A) (A) (A)
                 (A) (A) (A) (A) (A) (A) (A) (A) (A) (A) (A) (A)
 The electronic state is 1-A.
 Alpha  occ. eigenvalues --  -26.31415 -26.26579 -11.33638  -1.61410  -1.56690
 Alpha  occ. eigenvalues --   -0.98002  -0.76291  -0.72036  -0.70406  -0.68964
 Alpha  occ. eigenvalues --   -0.61940  -0.61933  -0.56555  -0.56518
 Alpha virt. eigenvalues --    0.02408   0.04096   0.04851   0.05982   0.09010
 Alpha virt. eigenvalues --    0.11553   0.12062   0.13261   0.16838   0.19010
 Alpha virt. eigenvalues --    0.19957   0.20240   0.20332   0.22651   0.24796
 Alpha virt. eigenvalues --    0.24803   0.26917   0.30470   0.30832   0.31122
 Alpha virt. eigenvalues --    0.32380   0.32674   0.34264   0.34664   0.37275
 Alpha virt. eigenvalues --    0.37518   0.38251   0.42001   0.42847   0.43013
 Alpha virt. eigenvalues --    0.44005   0.44643   0.46578   0.50094   0.50261
 Alpha virt. eigenvalues --    0.50349   0.54571   0.61899   0.66479   0.68151
 Alpha virt. eigenvalues --    0.70058   0.74444   0.75389   0.78357   0.80123
 Alpha virt. eigenvalues --    0.84200   0.85769   0.86465   0.88426   0.90355
 Alpha virt. eigenvalues --    0.90566   0.93807   0.94660   0.95144   0.98300
 Alpha virt. eigenvalues --    0.99452   1.00503   1.03090   1.05011   1.05361
 Alpha virt. eigenvalues --    1.07079   1.08667   1.10957   1.12039   1.14847
 Alpha virt. eigenvalues --    1.15613   1.16703   1.18281   1.18541   1.19823
 Alpha virt. eigenvalues --    1.22508   1.23068   1.25283   1.26150   1.29086
 Alpha virt. eigenvalues --    1.31687   1.35972   1.37176   1.42950   1.50770
 Alpha virt. eigenvalues --    1.51253   1.53954   1.57563   1.58309   1.58453
 Alpha virt. eigenvalues --    1.59319   1.62137   1.64847   1.68042   1.69923
 Alpha virt. eigenvalues --    1.72519   1.73788   1.80639   1.85796   1.86004
 Alpha virt. eigenvalues --    1.89793   1.90175   1.97578   2.00158   2.02817
 Alpha virt. eigenvalues --    2.05284   2.10409   2.14128   2.16007   2.48734
 Alpha virt. eigenvalues --    2.49781   2.63542   2.84278   2.86241   2.89881
 Alpha virt. eigenvalues --    2.92807   2.94502   2.96605   2.96901   2.99879
 Alpha virt. eigenvalues --    3.01646   3.03356   3.07950   3.08198   3.10042
 Alpha virt. eigenvalues --    3.13524   3.20266   3.24601   3.25191   3.32424
 Alpha virt. eigenvalues --    3.36426   3.36729   3.39314   3.40754   3.46876
 Alpha virt. eigenvalues --    3.49769   3.51329   3.55381   3.55748   3.57070
 Alpha virt. eigenvalues --    3.61648   3.67015   3.72341   3.77301   3.78397
 Alpha virt. eigenvalues --    3.84963   3.85184   3.90286   3.98674   4.00196
 Alpha virt. eigenvalues --    4.01184   4.03676   4.07909   4.13342   4.20328
 Alpha virt. eigenvalues --    4.23800   4.27137   4.34149   4.35749   4.37950
 Alpha virt. eigenvalues --    4.47311   4.47730   4.60526   4.65278   4.67489
 Alpha virt. eigenvalues --    4.70218   4.71528   4.75906   4.84688   4.86926
 Alpha virt. eigenvalues --    4.93827   4.94704   4.99062   5.01909   5.15042
 Alpha virt. eigenvalues --    5.21180   5.25423   5.51364   5.53991   5.56906
 Alpha virt. eigenvalues --    5.60524   5.66051   5.70712   5.85630   5.94302
 Alpha virt. eigenvalues --    5.98167   6.03011   6.06918   6.10650   6.22922
 Alpha virt. eigenvalues --    6.53652   6.58021   7.07083   7.79183   8.86268
 Alpha virt. eigenvalues --    8.87218   8.96993   9.00556   9.06802   9.10615
 Alpha virt. eigenvalues --    9.18973   9.24936   9.32628   9.35599   9.37594
 Alpha virt. eigenvalues --    9.41550   9.41908   9.42431   9.47508   9.50563
 Alpha virt. eigenvalues --    9.56718   9.59238   9.66088   9.68040   9.78094
 Alpha virt. eigenvalues --    9.86435   9.94183  10.01769  14.86090  16.12989
 Alpha virt. eigenvalues --   17.21789
          Condensed to atoms (all electrons):
               1          2          3          4          5          6
     1  F    9.530757  -0.054643  -0.034522  -0.031714   0.020169   0.036506
     2  H   -0.054643   0.469696   0.137942  -0.017866   0.003517   0.001355
     3  F   -0.034522   0.137942   9.333704   0.001631  -0.000604   0.000947
     4  C   -0.031714  -0.017866   0.001631   5.503117   0.349093   0.348852
     5  H    0.020169   0.003517  -0.000604   0.349093   0.256907   0.005806
     6  H    0.036506   0.001355   0.000947   0.348852   0.005806   0.303494
     7  H    0.036447   0.001361   0.000950   0.348921   0.005837  -0.010548
               7
     1  F    0.036447
     2  H    0.001361
     3  F    0.000950
     4  C    0.348921
     5  H    0.005837
     6  H   -0.010548
     7  H    0.303456
 Mulliken charges:
               1
     1  F   -0.503000
     2  H    0.458638
     3  F   -0.440047
     4  C   -0.502033
     5  H    0.359276
     6  H    0.313589
     7  H    0.313577
 Sum of Mulliken charges =  -0.00000
 Mulliken charges with hydrogens summed into heavy atoms:
               1
     1  F   -0.503000
     3  F    0.018591
     4  C    0.484409
 Electronic spatial extent (au):  <R**2>=            283.0739
 Charge=             -0.0000 electrons
 Dipole moment (field-independent basis, Debye):
    X=              3.6492    Y=             -0.9595    Z=              0.0000  Tot=              3.7733
 Quadrupole moment (field-independent basis, Debye-Ang):
   XX=            -19.7678   YY=            -17.8054   ZZ=            -17.2379
   XY=             -2.6865   XZ=             -0.0000   YZ=              0.0000
 Traceless Quadrupole moment (field-independent basis, Debye-Ang):
   XX=             -1.4974   YY=              0.4649   ZZ=              1.0325
   XY=             -2.6865   XZ=             -0.0000   YZ=              0.0000
 Octapole moment (field-independent basis, Debye-Ang**2):
  XXX=              9.4634  YYY=              2.2259  ZZZ=              0.0019  XYY=             -3.0551
  XXY=              1.0249  XXZ=             -0.0013  XZZ=             -0.7578  YZZ=              1.1826
  YYZ=             -0.0007  XYZ=             -0.0009
 Hexadecapole moment (field-independent basis, Debye-Ang**3):
 XXXX=           -248.7428 YYYY=            -43.9948 ZZZZ=            -19.7730 XXXY=              0.6367
 XXXZ=             -0.0065 YYYX=              3.4057 YYYZ=              0.0017 ZZZX=              0.0032
 ZZZY=             -0.0016 XXYY=            -47.0779 XXZZ=            -39.4852 YYZZ=            -11.4830
 XXYZ=             -0.0019 YYXZ=              0.0004 ZZXY=              1.0616
 N-N= 7.486788117946D+01 E-N=-7.202426280603D+02  KE= 2.388285894733D+02
 Calling FoFJK, ICntrl=  10002127 FMM=F ISym2X=0 I1Cent= 0 IOpClX= 0 NMat=1 NMatS=1 NMatT=0.
 ***** Axes restored to original set *****
 -------------------------------------------------------------------
 Center     Atomic                   Forces (Hartrees/Bohr)
 Number     Number              X              Y              Z
 -------------------------------------------------------------------
      1        9           0.006731789   -0.010380832   -0.000000393
      2        1          -0.002612421   -0.001464732    0.000000228
      3        9           0.002885780    0.001593034   -0.000000215
      4        6          -0.002826757    0.004486961    0.000000858
      5        1           0.004718288    0.006308768    0.000005945
      6        1          -0.004443982   -0.000268770   -0.006685140
      7        1          -0.004452697   -0.000274431    0.006678718
 -------------------------------------------------------------------
 Cartesian Forces:  Max     0.010380832 RMS     0.004321155

 GradGradGradGradGradGradGradGradGradGradGradGradGradGradGradGradGradGrad
 Berny optimization.
 FormGI is forming the generalized inverse of G from B-inverse, IUseBI=4.
 Internal  Forces:  Max     0.012416321 RMS     0.004448851
 Search for a local minimum.
 Step number   1 out of a maximum of   28
 All quantities printed in internal units (Hartrees-Bohrs-Radians)
 Mixed Optimization -- RFO/linear search
 Second derivative matrix not updated -- first step.
 The second derivative matrix:
                          R1        R2        R3        R4        R5
           R1           0.06851
           R2           0.00000   0.41407
           R3           0.00000   0.00000   0.61233
           R4           0.00000   0.00000   0.00000   0.34024
           R5           0.00000   0.00000   0.00000   0.00000   0.34089
           R6           0.00000   0.00000   0.00000   0.00000   0.00000
           A1           0.00000   0.00000   0.00000   0.00000   0.00000
           A2           0.00000   0.00000   0.00000   0.00000   0.00000
           A3           0.00000   0.00000   0.00000   0.00000   0.00000
           A4           0.00000   0.00000   0.00000   0.00000   0.00000
           A5           0.00000   0.00000   0.00000   0.00000   0.00000
           A6           0.00000   0.00000   0.00000   0.00000   0.00000
           A7           0.00000   0.00000   0.00000   0.00000   0.00000
           A8           0.00000   0.00000   0.00000   0.00000   0.00000
           A9           0.00000   0.00000   0.00000   0.00000   0.00000
           D1           0.00000   0.00000   0.00000   0.00000   0.00000
           D2           0.00000   0.00000   0.00000   0.00000   0.00000
           D3           0.00000   0.00000   0.00000   0.00000   0.00000
                          R6        A1        A2        A3        A4
           R6           0.34089
           A1           0.00000   0.16000
           A2           0.00000   0.00000   0.16000
           A3           0.00000   0.00000   0.00000   0.16000
           A4           0.00000   0.00000   0.00000   0.00000   0.16000
           A5           0.00000   0.00000   0.00000   0.00000   0.00000
           A6           0.00000   0.00000   0.00000   0.00000   0.00000
           A7           0.00000   0.00000   0.00000   0.00000   0.00000
           A8           0.00000   0.00000   0.00000   0.00000   0.00000
           A9           0.00000   0.00000   0.00000   0.00000   0.00000
           D1           0.00000   0.00000   0.00000   0.00000   0.00000
           D2           0.00000   0.00000   0.00000   0.00000   0.00000
           D3           0.00000   0.00000   0.00000   0.00000   0.00000
                          A5        A6        A7        A8        A9
           A5           0.16000
           A6           0.00000   0.16000
           A7           0.00000   0.00000   0.16000
           A8           0.00000   0.00000   0.00000   0.01624
           A9           0.00000   0.00000   0.00000   0.00000   0.01624
           D1           0.00000   0.00000   0.00000   0.00000   0.00000
           D2           0.00000   0.00000   0.00000   0.00000   0.00000
           D3           0.00000   0.00000   0.00000   0.00000   0.00000
                          D1        D2        D3
           D1           0.01069
           D2           0.00000   0.01069
           D3           0.00000   0.00000   0.01069
 ITU=  0
     Eigenvalues ---    0.01069   0.01624   0.01624   0.06851   0.10591
     Eigenvalues ---    0.10629   0.16000   0.16000   0.16000   0.16000
     Eigenvalues ---    0.34024   0.34089   0.34089   0.41407   0.61233
 RFO step:  Lambda=-9.50205054D-04 EMin= 1.06852790D-02
 Linear search not attempted -- first point.
 Iteration  1 RMS(Cart)=  0.01368673 RMS(Int)=  0.00000646
 Iteration  2 RMS(Cart)=  0.00001112 RMS(Int)=  0.00000006
 Iteration  3 RMS(Cart)=  0.00000000 RMS(Int)=  0.00000006
 Variable       Old X    -DE/DX   Delta X   Delta X   Delta X     New X
                                 (Linear)    (Quad)   (Total)
    R1        3.28800  -0.00030   0.00000  -0.00427  -0.00427   3.28372
    R2        2.69685  -0.01242   0.00000  -0.02992  -0.02992   2.66693
    R3        1.76678  -0.00330   0.00000  -0.00537  -0.00537   1.76140
    R4        2.07290  -0.00788   0.00000  -0.02309  -0.02309   2.04981
    R5        2.07180  -0.00803   0.00000  -0.02349  -0.02349   2.04830
    R6        2.07180  -0.00803   0.00000  -0.02349  -0.02349   2.04830
    A1        1.92572   0.00019   0.00000   0.00118   0.00118   1.92690
    A2        1.88092  -0.00011   0.00000  -0.00066  -0.00066   1.88026
    A3        1.87353   0.00010   0.00000   0.00060   0.00060   1.87413
    A4        1.87352   0.00010   0.00000   0.00059   0.00059   1.87412
    A5        1.94328   0.00001   0.00000   0.00010   0.00010   1.94337
    A6        1.94328   0.00001   0.00000   0.00010   0.00010   1.94338
    A7        1.94535  -0.00010   0.00000  -0.00069  -0.00069   1.94466
    A8        2.89502   0.00001   0.00000   0.00056   0.00056   2.89558
    A9        3.14151   0.00000   0.00000   0.00002   0.00002   3.14153
    D1        0.00079   0.00000   0.00000  -0.00001  -0.00001   0.00078
    D2       -2.09413  -0.00001   0.00000  -0.00009  -0.00009  -2.09422
    D3        2.09571   0.00001   0.00000   0.00007   0.00007   2.09578
         Item               Value     Threshold  Converged?
 Maximum Force            0.012416     0.000450     NO 
 RMS     Force            0.004449     0.000300     NO 
 Maximum Displacement     0.024735     0.001800     NO 
 RMS     Displacement     0.013686     0.001200     NO 
 Predicted change in Energy=-4.763327D-04
 GradGradGradGradGradGradGradGradGradGradGradGradGradGradGradGradGradGrad

                          Input orientation:                          
 ---------------------------------------------------------------------
 Center     Atomic      Atomic             Coordinates (Angstroms)
 Number     Number       Type             X           Y           Z
 ---------------------------------------------------------------------
      1          9           0        0.587733    0.696992    0.000006
      2          1           0       -1.094390    0.261141    0.000016
      3          9           0       -1.912583   -0.185358   -0.000016
      4          6           0        1.395788   -0.460052    0.000003
      5          1           0        0.737871   -1.322457   -0.000800
      6          1           0        2.005087   -0.429438    0.895933
      7          1           0        2.006219   -0.428629   -0.895128
 ---------------------------------------------------------------------
                    Distance matrix (angstroms):
                    1          2          3          4          5
     1  F    0.000000
     2  H    1.737672   0.000000
     3  F    2.651438   0.932095   0.000000
     4  C    1.411278   2.592510   3.319756   0.000000
     5  H    2.025022   2.421769   2.884077   1.084711   0.000000
     6  H    2.020006   3.299443   4.026219   1.083916   1.790936
     7  H    2.019998   3.300128   4.027086   1.083915   1.790938
                    6          7
     6  H    0.000000
     7  H    1.791062   0.000000
 Stoichiometry    CH4F2
 Framework group  C1[X(CH4F2)]
 Deg. of freedom    15
 Full point group                 C1      NOp   1
 Largest Abelian subgroup         C1      NOp   1
 Largest concise Abelian subgroup C1      NOp   1
                         Standard orientation:                         
 ---------------------------------------------------------------------
 Center     Atomic      Atomic             Coordinates (Angstroms)
 Number     Number       Type             X           Y           Z
 ---------------------------------------------------------------------
      1          9           0        0.584551    0.699169    0.000008
      2          1           0       -1.097945    0.264760    0.000018
      3          9           0       -1.916520   -0.181037   -0.000014
      4          6           0        1.391615   -0.458567    0.000004
      5          1           0        0.732958   -1.320407   -0.000799
      6          1           0        2.000940   -0.428475    0.895935
      7          1           0        2.002073   -0.427667   -0.895126
 ---------------------------------------------------------------------
 Rotational constants (GHZ):          31.6334828           4.5664650           4.0949595
 Standard basis: Aug-CC-pVTZ (5D, 7F)
 There are   265 symmetry adapted cartesian basis functions of A   symmetry.
 There are   230 symmetry adapted basis functions of A   symmetry.
   230 basis functions,   324 primitive gaussians,   265 cartesian basis functions
    14 alpha electrons       14 beta electrons
       nuclear repulsion energy        75.3923265184 Hartrees.
 NAtoms=    7 NActive=    7 NUniq=    7 SFac= 1.00D+00 NAtFMM=   60 NAOKFM=F Big=F
 Integral buffers will be    131072 words long.
 Raffenetti 1 integral format.
 Two-electron integral symmetry is turned on.
 One-electron integrals computed using PRISM.
 NBasis=   230 RedAO= T EigKep=  7.01D-05  NBF=   230
 NBsUse=   230 1.00D-06 EigRej= -1.00D+00 NBFU=   230
 Initial guess from the checkpoint file:  "/gscratch/scrubbed/gds001/Gau-26133.chk"
 B after Tr=     0.000000    0.000000    0.000000
         Rot=    1.000000   -0.000003    0.000002    0.000843 Ang=  -0.10 deg.
 ExpMin= 2.53D-02 ExpMax= 1.95D+04 ExpMxC= 6.65D+02 IAcc=3 IRadAn=         5 AccDes= 0.00D+00
 Harris functional with IExCor=  205 and IRadAn=       5 diagonalized for initial guess.
 HarFok:  IExCor=  205 AccDes= 0.00D+00 IRadAn=         5 IDoV= 1 UseB2=F ITyADJ=14
 ICtDFT=  3500011 ScaDFX=  1.000000  1.000000  1.000000  1.000000
 FoFCou: FMM=F IPFlag=           0 FMFlag=      100000 FMFlg1=           0
         NFxFlg=           0 DoJE=T BraDBF=F KetDBF=T FulRan=T
         wScrn=  0.000000 ICntrl=       500 IOpCl=  0 I1Cent=   200000004 NGrid=           0
         NMat0=    1 NMatS0=      1 NMatT0=    0 NMatD0=    1 NMtDS0=    0 NMtDT0=    0
 Petite list used in FoFCou.
 Keep R1 ints in memory in canonical form, NReq=366794055.
 Requested convergence on RMS density matrix=1.00D-08 within 128 cycles.
 Requested convergence on MAX density matrix=1.00D-06.
 Requested convergence on             energy=1.00D-06.
 No special actions if energy rises.
 SCF Done:  E(RHF) =  -239.164459658     A.U. after    8 cycles
            NFock=  8  Conv=0.71D-08     -V/T= 2.0010
 ExpMin= 2.53D-02 ExpMax= 1.95D+04 ExpMxC= 6.65D+02 IAcc=3 IRadAn=         5 AccDes= 0.00D+00
 HarFok:  IExCor=  205 AccDes= 0.00D+00 IRadAn=         5 IDoV=-2 UseB2=F ITyADJ=14
 ICtDFT= 12500011 ScaDFX=  1.000000  1.000000  1.000000  1.000000
 Range of M.O.s used for correlation:     4   230
 NBasis=   230 NAE=    14 NBE=    14 NFC=     3 NFV=     0
 NROrb=    227 NOA=    11 NOB=    11 NVA=   216 NVB=   216

 **** Warning!!: The largest alpha MO coefficient is  0.33753896D+02

 Fully direct method using O(ONN) memory.
 JobTyp=1 Pass  1:  I=   4 to  14 NPSUse= 28 ParTrn=T ParDer=T DoDerP=T.
 Spin components of T(2) and E(2):
     alpha-alpha T2 =       0.1917603142D-01 E2=     -0.8836216787D-01
     alpha-beta  T2 =       0.1153066405D+00 E2=     -0.5509351502D+00
     beta-beta   T2 =       0.1917603142D-01 E2=     -0.8836216787D-01
 ANorm=    0.1074085054D+01
 E2 =    -0.7276594860D+00 EUMP2 =    -0.23989211914358D+03
          IDoAtm=1111111
          Differentiating once with respect to electric field.
                with respect to dipole field.
          Differentiating once with respect to nuclear coordinates.
 Keep R1 ints in memory in canonical form, NReq=366798820.
          There are     1 degrees of freedom in the 1st order CPHF.  IDoFFX=0 NUNeed=     1.
 LinEq1:  Iter=  0 NonCon=     1 RMS=3.12D-03 Max=3.25D-02 NDo=     1
 AX will form     1 AO Fock derivatives at one time.
 LinEq1:  Iter=  1 NonCon=     1 RMS=6.78D-04 Max=6.46D-03 NDo=     1
 LinEq1:  Iter=  2 NonCon=     1 RMS=1.74D-04 Max=1.49D-03 NDo=     1
 LinEq1:  Iter=  3 NonCon=     1 RMS=6.59D-05 Max=8.72D-04 NDo=     1
 LinEq1:  Iter=  4 NonCon=     1 RMS=1.75D-05 Max=1.61D-04 NDo=     1
 LinEq1:  Iter=  5 NonCon=     1 RMS=4.05D-06 Max=4.45D-05 NDo=     1
 LinEq1:  Iter=  6 NonCon=     1 RMS=1.52D-06 Max=2.02D-05 NDo=     1
 LinEq1:  Iter=  7 NonCon=     1 RMS=3.30D-07 Max=2.75D-06 NDo=     1
 LinEq1:  Iter=  8 NonCon=     1 RMS=6.09D-08 Max=6.50D-07 NDo=     1
 LinEq1:  Iter=  9 NonCon=     1 RMS=9.35D-09 Max=8.91D-08 NDo=     1
 LinEq1:  Iter= 10 NonCon=     1 RMS=1.74D-09 Max=2.18D-08 NDo=     1
 LinEq1:  Iter= 11 NonCon=     1 RMS=2.80D-10 Max=2.18D-09 NDo=     1
 LinEq1:  Iter= 12 NonCon=     0 RMS=5.45D-11 Max=6.86D-10 NDo=     1
 Linear equations converged to 1.000D-10 1.000D-09 after    12 iterations.
 End of Minotr F.D. properties file   721 does not exist.
 End of Minotr F.D. properties file   722 does not exist.
 End of Minotr F.D. properties file   788 does not exist.
 Calling FoFJK, ICntrl=  10002127 FMM=F ISym2X=0 I1Cent= 0 IOpClX= 0 NMat=1 NMatS=1 NMatT=0.
 ***** Axes restored to original set *****
 -------------------------------------------------------------------
 Center     Atomic                   Forces (Hartrees/Bohr)
 Number     Number              X              Y              Z
 -------------------------------------------------------------------
      1        9           0.001113264   -0.002001555    0.000000211
      2        1          -0.000308689   -0.000000971   -0.000000014
      3        9           0.000297780    0.000154120   -0.000000056
      4        6          -0.002681264    0.003997163   -0.000000163
      5        1           0.000338003   -0.000863481   -0.000000132
      6        1           0.000620320   -0.000642645    0.000223194
      7        1           0.000620586   -0.000642633   -0.000223040
 -------------------------------------------------------------------
 Cartesian Forces:  Max     0.003997163 RMS     0.001218412

 GradGradGradGradGradGradGradGradGradGradGradGradGradGradGradGradGradGrad
 Berny optimization.
 Using GEDIIS/GDIIS optimizer.
 FormGI is forming the generalized inverse of G from B-inverse, IUseBI=4.
 Internal  Forces:  Max     0.002146618 RMS     0.000737072
 Search for a local minimum.
 Step number   2 out of a maximum of   28
 All quantities printed in internal units (Hartrees-Bohrs-Radians)
 Mixed Optimization -- En-DIIS/RFO-DIIS
 Update second derivatives using D2CorX and points    1    2
 DE= -4.97D-04 DEPred=-4.76D-04 R= 1.04D+00
 TightC=F SS=  1.41D+00  RLast= 5.08D-02 DXNew= 5.0454D-01 1.5246D-01
 Trust test= 1.04D+00 RLast= 5.08D-02 DXMaxT set to 3.00D-01
 The second derivative matrix:
                          R1        R2        R3        R4        R5
           R1           0.06850
           R2          -0.00082   0.36704
           R3          -0.00015  -0.00989   0.61045
           R4           0.00002  -0.00917  -0.00032   0.35124
           R5           0.00003  -0.00908  -0.00025   0.01143   0.35277
           R6           0.00003  -0.00908  -0.00025   0.01143   0.01188
           A1           0.00014   0.00574   0.00160   0.00423   0.00432
           A2           0.00026   0.00987   0.00288   0.00828   0.00847
           A3           0.00025   0.00948   0.00271   0.00749   0.00766
           A4           0.00025   0.00948   0.00271   0.00749   0.00766
           A5          -0.00023  -0.00875  -0.00253  -0.00716  -0.00732
           A6          -0.00023  -0.00876  -0.00253  -0.00716  -0.00733
           A7          -0.00024  -0.00912  -0.00260  -0.00716  -0.00732
           A8          -0.00000  -0.00013  -0.00004  -0.00013  -0.00013
           A9           0.00000   0.00000   0.00000   0.00000   0.00000
           D1          -0.00000  -0.00000  -0.00000  -0.00000  -0.00000
           D2          -0.00000  -0.00008  -0.00002  -0.00006  -0.00007
           D3           0.00000   0.00008   0.00002   0.00006   0.00007
                          R6        A1        A2        A3        A4
           R6           0.35278
           A1           0.00432   0.16006
           A2           0.00847   0.00034   0.16109
           A3           0.00766   0.00022   0.00082   0.16058
           A4           0.00766   0.00022   0.00082   0.00058   0.16058
           A5          -0.00732  -0.00026  -0.00088  -0.00064  -0.00064
           A6          -0.00733  -0.00026  -0.00088  -0.00064  -0.00064
           A7          -0.00732  -0.00020  -0.00076  -0.00054  -0.00054
           A8          -0.00013  -0.00001  -0.00002  -0.00002  -0.00002
           A9           0.00000  -0.00000  -0.00000  -0.00000  -0.00000
           D1          -0.00000  -0.00000  -0.00000  -0.00000  -0.00000
           D2          -0.00007  -0.00000  -0.00001  -0.00000  -0.00000
           D3           0.00007   0.00000   0.00001   0.00001   0.00001
                          A5        A6        A7        A8        A9
           A5           0.16070
           A6           0.00070   0.16070
           A7           0.00060   0.00060   0.16050
           A8           0.00002   0.00002   0.00002   0.01624
           A9           0.00000   0.00000   0.00000   0.00000   0.01624
           D1           0.00000   0.00000   0.00000   0.00000   0.00000
           D2           0.00001   0.00001   0.00000   0.00000   0.00000
           D3          -0.00001  -0.00001  -0.00000  -0.00000  -0.00000
                          D1        D2        D3
           D1           0.01069
           D2           0.00000   0.01069
           D3          -0.00000  -0.00000   0.01069
 ITU=  1  0
 Use linear search instead of GDIIS.
     Eigenvalues ---    0.01069   0.01624   0.01624   0.06850   0.10592
     Eigenvalues ---    0.10624   0.15587   0.16000   0.16000   0.16008
     Eigenvalues ---    0.34044   0.34089   0.36206   0.38823   0.61093
 RFO step:  Lambda=-4.20486054D-05 EMin= 1.06852790D-02
 Quartic linear search produced a step of  0.03370.
 Iteration  1 RMS(Cart)=  0.00351649 RMS(Int)=  0.00001965
 Iteration  2 RMS(Cart)=  0.00001495 RMS(Int)=  0.00001046
 Iteration  3 RMS(Cart)=  0.00000000 RMS(Int)=  0.00001046
 Variable       Old X    -DE/DX   Delta X   Delta X   Delta X     New X
                                 (Linear)    (Quad)   (Total)
    R1        3.28372  -0.00003  -0.00014  -0.00043  -0.00058   3.28315
    R2        2.66693  -0.00215  -0.00101  -0.00564  -0.00665   2.66028
    R3        1.76140  -0.00034  -0.00018  -0.00062  -0.00080   1.76060
    R4        2.04981   0.00048  -0.00078   0.00125   0.00047   2.05028
    R5        2.04830   0.00052  -0.00079   0.00135   0.00056   2.04886
    R6        2.04830   0.00052  -0.00079   0.00135   0.00056   2.04886
    A1        1.92690   0.00048   0.00004   0.00313   0.00317   1.93007
    A2        1.88026   0.00090  -0.00002   0.00582   0.00578   1.88603
    A3        1.87413   0.00083   0.00002   0.00537   0.00537   1.87950
    A4        1.87412   0.00083   0.00002   0.00537   0.00538   1.87949
    A5        1.94337  -0.00079   0.00000  -0.00506  -0.00507   1.93830
    A6        1.94338  -0.00079   0.00000  -0.00506  -0.00507   1.93831
    A7        1.94466  -0.00079  -0.00002  -0.00518  -0.00523   1.93943
    A8        2.89558  -0.00001   0.00002  -0.00084  -0.00082   2.89476
    A9        3.14153   0.00000   0.00000   0.00001   0.00001   3.14154
    D1        0.00078  -0.00000  -0.00000  -0.00001  -0.00001   0.00077
    D2       -2.09422  -0.00002  -0.00000  -0.00016  -0.00016  -2.09439
    D3        2.09578   0.00002   0.00000   0.00014   0.00014   2.09593
         Item               Value     Threshold  Converged?
 Maximum Force            0.002147     0.000450     NO 
 RMS     Force            0.000737     0.000300     NO 
 Maximum Displacement     0.008899     0.001800     NO 
 RMS     Displacement     0.003517     0.001200     NO 
 Predicted change in Energy=-2.163087D-05
 GradGradGradGradGradGradGradGradGradGradGradGradGradGradGradGradGradGrad

                          Input orientation:                          
 ---------------------------------------------------------------------
 Center     Atomic      Atomic             Coordinates (Angstroms)
 Number     Number       Type             X           Y           Z
 ---------------------------------------------------------------------
      1          9           0        0.586175    0.695580    0.000013
      2          1           0       -1.096288    0.262269    0.000017
      3          9           0       -1.914399   -0.183498   -0.000024
      4          6           0        1.394180   -0.457207    0.000003
      5          1           0        0.742580   -1.324709   -0.000794
      6          1           0        2.006180   -0.430522    0.894573
      7          1           0        2.007297   -0.429714   -0.893776
 ---------------------------------------------------------------------
                    Distance matrix (angstroms):
                    1          2          3          4          5
     1  F    0.000000
     2  H    1.737366   0.000000
     3  F    2.650594   0.931672   0.000000
     4  C    1.407760   2.592312   3.319881   0.000000
     5  H    2.026334   2.428979   2.891695   1.084962   0.000000
     6  H    2.021078   3.302347   4.028928   1.084210   1.788278
     7  H    2.021072   3.303022   4.029779   1.084209   1.788280
                    6          7
     6  H    0.000000
     7  H    1.788350   0.000000
 Stoichiometry    CH4F2
 Framework group  C1[X(CH4F2)]
 Deg. of freedom    15
 Full point group                 C1      NOp   1
 Largest Abelian subgroup         C1      NOp   1
 Largest concise Abelian subgroup C1      NOp   1
                         Standard orientation:                         
 ---------------------------------------------------------------------
 Center     Atomic      Atomic             Coordinates (Angstroms)
 Number     Number       Type             X           Y           Z
 ---------------------------------------------------------------------
      1          9           0        0.583776    0.697513    0.000015
      2          1           0       -1.098769    0.264517    0.000019
      3          9           0       -1.916963   -0.181097   -0.000022
      4          6           0        1.391565   -0.455425    0.000005
      5          1           0        0.739802   -1.322806   -0.000792
      6          1           0        2.003569   -0.428855    0.894576
      7          1           0        2.004687   -0.428047   -0.893774
 ---------------------------------------------------------------------
 Rotational constants (GHZ):          31.7868419           4.5648027           4.0958553
 Standard basis: Aug-CC-pVTZ (5D, 7F)
 There are   265 symmetry adapted cartesian basis functions of A   symmetry.
 There are   230 symmetry adapted basis functions of A   symmetry.
   230 basis functions,   324 primitive gaussians,   265 cartesian basis functions
    14 alpha electrons       14 beta electrons
       nuclear repulsion energy        75.4388006887 Hartrees.
 NAtoms=    7 NActive=    7 NUniq=    7 SFac= 1.00D+00 NAtFMM=   60 NAOKFM=F Big=F
 Integral buffers will be    131072 words long.
 Raffenetti 1 integral format.
 Two-electron integral symmetry is turned on.
 One-electron integrals computed using PRISM.
 NBasis=   230 RedAO= T EigKep=  7.03D-05  NBF=   230
 NBsUse=   230 1.00D-06 EigRej= -1.00D+00 NBFU=   230
 Initial guess from the checkpoint file:  "/gscratch/scrubbed/gds001/Gau-26133.chk"
 B after Tr=    -0.000000   -0.000000   -0.000000
         Rot=    1.000000   -0.000002    0.000001   -0.000236 Ang=  -0.03 deg.
 Keep R1 ints in memory in canonical form, NReq=366794055.
 Requested convergence on RMS density matrix=1.00D-08 within 128 cycles.
 Requested convergence on MAX density matrix=1.00D-06.
 Requested convergence on             energy=1.00D-06.
 No special actions if energy rises.
 SCF Done:  E(RHF) =  -239.164600392     A.U. after    8 cycles
            NFock=  8  Conv=0.42D-08     -V/T= 2.0010
 ExpMin= 2.53D-02 ExpMax= 1.95D+04 ExpMxC= 6.65D+02 IAcc=3 IRadAn=         5 AccDes= 0.00D+00
 HarFok:  IExCor=  205 AccDes= 0.00D+00 IRadAn=         5 IDoV=-2 UseB2=F ITyADJ=14
 ICtDFT= 12500011 ScaDFX=  1.000000  1.000000  1.000000  1.000000
 Range of M.O.s used for correlation:     4   230
 NBasis=   230 NAE=    14 NBE=    14 NFC=     3 NFV=     0
 NROrb=    227 NOA=    11 NOB=    11 NVA=   216 NVB=   216

 **** Warning!!: The largest alpha MO coefficient is  0.33974793D+02

 Fully direct method using O(ONN) memory.
 JobTyp=1 Pass  1:  I=   4 to  14 NPSUse= 28 ParTrn=T ParDer=T DoDerP=T.
 Spin components of T(2) and E(2):
     alpha-alpha T2 =       0.1916316965D-01 E2=     -0.8835367633D-01
     alpha-beta  T2 =       0.1152231905D+00 E2=     -0.5508392258D+00
     beta-beta   T2 =       0.1916316965D-01 E2=     -0.8835367633D-01
 ANorm=    0.1074034231D+01
 E2 =    -0.7275465784D+00 EUMP2 =    -0.23989214697008D+03
          IDoAtm=1111111
          Differentiating once with respect to electric field.
                with respect to dipole field.
          Differentiating once with respect to nuclear coordinates.
 Keep R1 ints in memory in canonical form, NReq=366798820.
          There are     1 degrees of freedom in the 1st order CPHF.  IDoFFX=0 NUNeed=     1.
 LinEq1:  Iter=  0 NonCon=     1 RMS=3.11D-03 Max=3.27D-02 NDo=     1
 AX will form     1 AO Fock derivatives at one time.
 LinEq1:  Iter=  1 NonCon=     1 RMS=6.75D-04 Max=6.34D-03 NDo=     1
 LinEq1:  Iter=  2 NonCon=     1 RMS=1.74D-04 Max=1.47D-03 NDo=     1
 LinEq1:  Iter=  3 NonCon=     1 RMS=6.56D-05 Max=8.70D-04 NDo=     1
 LinEq1:  Iter=  4 NonCon=     1 RMS=1.75D-05 Max=1.63D-04 NDo=     1
 LinEq1:  Iter=  5 NonCon=     1 RMS=3.99D-06 Max=4.26D-05 NDo=     1
 LinEq1:  Iter=  6 NonCon=     1 RMS=1.51D-06 Max=1.93D-05 NDo=     1
 LinEq1:  Iter=  7 NonCon=     1 RMS=3.28D-07 Max=2.70D-06 NDo=     1
 LinEq1:  Iter=  8 NonCon=     1 RMS=6.03D-08 Max=6.32D-07 NDo=     1
 LinEq1:  Iter=  9 NonCon=     1 RMS=9.23D-09 Max=8.59D-08 NDo=     1
 LinEq1:  Iter= 10 NonCon=     1 RMS=1.72D-09 Max=2.17D-08 NDo=     1
 LinEq1:  Iter= 11 NonCon=     1 RMS=2.77D-10 Max=2.19D-09 NDo=     1
 LinEq1:  Iter= 12 NonCon=     0 RMS=5.34D-11 Max=6.70D-10 NDo=     1
 Linear equations converged to 1.000D-10 1.000D-09 after    12 iterations.
 End of Minotr F.D. properties file   721 does not exist.
 End of Minotr F.D. properties file   722 does not exist.
 End of Minotr F.D. properties file   788 does not exist.
 Calling FoFJK, ICntrl=  10002127 FMM=F ISym2X=0 I1Cent= 0 IOpClX= 0 NMat=1 NMatS=1 NMatT=0.
 ***** Axes restored to original set *****
 -------------------------------------------------------------------
 Center     Atomic                   Forces (Hartrees/Bohr)
 Number     Number              X              Y              Z
 -------------------------------------------------------------------
      1        9           0.000525447   -0.001043511    0.000000124
      2        1          -0.000023537    0.000114876   -0.000000090
      3        9          -0.000073600   -0.000012026   -0.000000011
      4        6          -0.000859729    0.001538480   -0.000000027
      5        1          -0.000193979   -0.000413964   -0.000000263
      6        1           0.000312526   -0.000092054    0.000355525
      7        1           0.000312873   -0.000091802   -0.000355258
 -------------------------------------------------------------------
 Cartesian Forces:  Max     0.001538480 RMS     0.000495909

 GradGradGradGradGradGradGradGradGradGradGradGradGradGradGradGradGradGrad
 Berny optimization.
 Using GEDIIS/GDIIS optimizer.
 FormGI is forming the generalized inverse of G from B-inverse, IUseBI=4.
 Internal  Forces:  Max     0.001016107 RMS     0.000330562
 Search for a local minimum.
 Step number   3 out of a maximum of   28
 All quantities printed in internal units (Hartrees-Bohrs-Radians)
 Mixed Optimization -- En-DIIS/RFO-DIIS
 Swapping is turned off.
 Update second derivatives using D2CorX and points    1    2    3
 DE= -2.78D-05 DEPred=-2.16D-05 R= 1.29D+00
 TightC=F SS=  1.41D+00  RLast= 1.51D-02 DXNew= 5.0454D-01 4.5164D-02
 Trust test= 1.29D+00 RLast= 1.51D-02 DXMaxT set to 3.00D-01
 The second derivative matrix:
                          R1        R2        R3        R4        R5
           R1           0.06883
           R2           0.00202   0.29692
           R3           0.00119  -0.01092   0.61423
           R4           0.00101   0.01367   0.00556   0.35171
           R5           0.00101   0.01495   0.00578   0.01171   0.35283
           R6           0.00101   0.01495   0.00578   0.01171   0.01194
           A1           0.00048   0.03080   0.00590   0.00180   0.00160
           A2          -0.00166   0.02257  -0.00106  -0.00201  -0.00219
           A3          -0.00137   0.02342  -0.00018  -0.00168  -0.00186
           A4          -0.00137   0.02342  -0.00018  -0.00168  -0.00186
           A5           0.00135  -0.02126   0.00044   0.00163   0.00179
           A6           0.00135  -0.02126   0.00044   0.00163   0.00179
           A7           0.00134  -0.02273   0.00019   0.00175   0.00193
           A8           0.00018   0.00170   0.00073   0.00037   0.00036
           A9          -0.00000   0.00000  -0.00000  -0.00000  -0.00000
           D1          -0.00000  -0.00001  -0.00000  -0.00000  -0.00000
           D2           0.00007   0.00086   0.00032   0.00012   0.00011
           D3          -0.00007  -0.00087  -0.00033  -0.00012  -0.00011
                          R6        A1        A2        A3        A4
           R6           0.35283
           A1           0.00160   0.15518
           A2          -0.00219  -0.00849   0.16315
           A3          -0.00186  -0.00798   0.00154   0.16024
           A4          -0.00186  -0.00798   0.00155   0.00024   0.16024
           A5           0.00179   0.00749  -0.00193  -0.00064  -0.00064
           A6           0.00179   0.00749  -0.00193  -0.00064  -0.00064
           A7           0.00193   0.00778  -0.00145  -0.00018  -0.00019
           A8           0.00036   0.00011  -0.00116  -0.00098  -0.00099
           A9          -0.00000  -0.00000  -0.00000  -0.00000  -0.00000
           D1          -0.00000   0.00000   0.00000   0.00000   0.00000
           D2           0.00011   0.00001  -0.00054  -0.00046  -0.00046
           D3          -0.00011  -0.00001   0.00054   0.00046   0.00046
                          A5        A6        A7        A8        A9
           A5           0.16100
           A6           0.00100   0.16100
           A7           0.00058   0.00058   0.16014
           A8           0.00096   0.00096   0.00096   0.01634
           A9           0.00000   0.00000   0.00000  -0.00000   0.01624
           D1          -0.00000  -0.00000  -0.00000   0.00000   0.00000
           D2           0.00045   0.00045   0.00045   0.00004  -0.00000
           D3          -0.00045  -0.00045  -0.00045  -0.00004   0.00000
                          D1        D2        D3
           D1           0.01069
           D2           0.00000   0.01070
           D3          -0.00000  -0.00002   0.01070
 ITU=  1  1  0
     Eigenvalues ---    0.01069   0.01624   0.01627   0.06861   0.10536
     Eigenvalues ---    0.10573   0.11970   0.16000   0.16000   0.17723
     Eigenvalues ---    0.31235   0.34045   0.34089   0.38413   0.61503
 En-DIIS/RFO-DIIS/Sim-DIIS IScMMF=       -3 using points:     3    2
 RFO step:  Lambda=-1.02762024D-05.
 DidBck=F Rises=F RFO-DIIS coefs:    1.42880   -0.42880
 Iteration  1 RMS(Cart)=  0.00399516 RMS(Int)=  0.00000967
 Iteration  2 RMS(Cart)=  0.00000848 RMS(Int)=  0.00000542
 Iteration  3 RMS(Cart)=  0.00000000 RMS(Int)=  0.00000542
 Variable       Old X    -DE/DX   Delta X   Delta X   Delta X     New X
                                 (Linear)    (Quad)   (Total)
    R1        3.28315   0.00007  -0.00025   0.00148   0.00124   3.28438
    R2        2.66028  -0.00102  -0.00285  -0.00201  -0.00486   2.65542
    R3        1.76060   0.00007  -0.00034   0.00029  -0.00005   1.76055
    R4        2.05028   0.00045   0.00020   0.00118   0.00138   2.05167
    R5        2.04886   0.00047   0.00024   0.00122   0.00146   2.05032
    R6        2.04886   0.00047   0.00024   0.00122   0.00146   2.05032
    A1        1.93007   0.00045   0.00136   0.00296   0.00432   1.93438
    A2        1.88603   0.00009   0.00248  -0.00106   0.00141   1.88745
    A3        1.87950   0.00014   0.00230  -0.00045   0.00185   1.88135
    A4        1.87949   0.00014   0.00230  -0.00045   0.00185   1.88134
    A5        1.93830  -0.00011  -0.00218   0.00059  -0.00160   1.93670
    A6        1.93831  -0.00011  -0.00218   0.00059  -0.00160   1.93671
    A7        1.93943  -0.00011  -0.00224   0.00065  -0.00160   1.93784
    A8        2.89476   0.00004  -0.00035   0.00398   0.00363   2.89839
    A9        3.14154   0.00000   0.00000   0.00000   0.00000   3.14154
    D1        0.00077  -0.00000  -0.00000  -0.00001  -0.00002   0.00076
    D2       -2.09439   0.00001  -0.00007   0.00013   0.00006  -2.09433
    D3        2.09593  -0.00001   0.00006  -0.00015  -0.00009   2.09584
         Item               Value     Threshold  Converged?
 Maximum Force            0.001016     0.000450     NO 
 RMS     Force            0.000331     0.000300     NO 
 Maximum Displacement     0.008726     0.001800     NO 
 RMS     Displacement     0.003992     0.001200     NO 
 Predicted change in Energy=-5.138446D-06
 GradGradGradGradGradGradGradGradGradGradGradGradGradGradGradGradGradGrad

                          Input orientation:                          
 ---------------------------------------------------------------------
 Center     Atomic      Atomic             Coordinates (Angstroms)
 Number     Number       Type             X           Y           Z
 ---------------------------------------------------------------------
      1          9           0        0.585328    0.692269    0.000021
      2          1           0       -1.098536    0.261782    0.000016
      3          9           0       -1.919017   -0.179547   -0.000032
      4          6           0        1.394778   -0.456357    0.000005
      5          1           0        0.746175   -1.327016   -0.000787
      6          1           0        2.007948   -0.429872    0.894718
      7          1           0        2.009048   -0.429060   -0.893928
 ---------------------------------------------------------------------
                    Distance matrix (angstroms):
                    1          2          3          4          5
     1  F    0.000000
     2  H    1.738021   0.000000
     3  F    2.651755   0.931643   0.000000
     4  C    1.405187   2.594675   3.325336   0.000000
     5  H    2.025681   2.434592   2.901712   1.085695   0.000000
     6  H    2.020775   3.305922   4.035380   1.084984   1.788537
     7  H    2.020769   3.306581   4.036211   1.084983   1.788539
                    6          7
     6  H    0.000000
     7  H    1.788646   0.000000
 Stoichiometry    CH4F2
 Framework group  C1[X(CH4F2)]
 Deg. of freedom    15
 Full point group                 C1      NOp   1
 Largest Abelian subgroup         C1      NOp   1
 Largest concise Abelian subgroup C1      NOp   1
                         Standard orientation:                         
 ---------------------------------------------------------------------
 Center     Atomic      Atomic             Coordinates (Angstroms)
 Number     Number       Type             X           Y           Z
 ---------------------------------------------------------------------
      1          9           0        0.583216    0.694848    0.000023
      2          1           0       -1.100003    0.261848    0.000018
      3          9           0       -1.919824   -0.180705   -0.000030
      4          6           0        1.394380   -0.452569    0.000007
      5          1           0        0.747078   -1.324195   -0.000785
      6          1           0        2.007510   -0.425168    0.894720
      7          1           0        2.008609   -0.424355   -0.893926
 ---------------------------------------------------------------------
 Rotational constants (GHZ):          32.0004721           4.5511593           4.0884105
 Standard basis: Aug-CC-pVTZ (5D, 7F)
 There are   265 symmetry adapted cartesian basis functions of A   symmetry.
 There are   230 symmetry adapted basis functions of A   symmetry.
   230 basis functions,   324 primitive gaussians,   265 cartesian basis functions
    14 alpha electrons       14 beta electrons
       nuclear repulsion energy        75.4376488953 Hartrees.
 NAtoms=    7 NActive=    7 NUniq=    7 SFac= 1.00D+00 NAtFMM=   60 NAOKFM=F Big=F
 Integral buffers will be    131072 words long.
 Raffenetti 1 integral format.
 Two-electron integral symmetry is turned on.
 One-electron integrals computed using PRISM.
 NBasis=   230 RedAO= T EigKep=  7.05D-05  NBF=   230
 NBsUse=   230 1.00D-06 EigRej= -1.00D+00 NBFU=   230
 Initial guess from the checkpoint file:  "/gscratch/scrubbed/gds001/Gau-26133.chk"
 B after Tr=    -0.000000    0.000000    0.000000
         Rot=    1.000000   -0.000003    0.000002   -0.000302 Ang=  -0.03 deg.
 Keep R1 ints in memory in canonical form, NReq=366793879.
 Requested convergence on RMS density matrix=1.00D-08 within 128 cycles.
 Requested convergence on MAX density matrix=1.00D-06.
 Requested convergence on             energy=1.00D-06.
 No special actions if energy rises.
 SCF Done:  E(RHF) =  -239.164676802     A.U. after    8 cycles
            NFock=  8  Conv=0.41D-08     -V/T= 2.0010
 ExpMin= 2.53D-02 ExpMax= 1.95D+04 ExpMxC= 6.65D+02 IAcc=3 IRadAn=         5 AccDes= 0.00D+00
 HarFok:  IExCor=  205 AccDes= 0.00D+00 IRadAn=         5 IDoV=-2 UseB2=F ITyADJ=14
 ICtDFT= 12500011 ScaDFX=  1.000000  1.000000  1.000000  1.000000
 Range of M.O.s used for correlation:     4   230
 NBasis=   230 NAE=    14 NBE=    14 NFC=     3 NFV=     0
 NROrb=    227 NOA=    11 NOB=    11 NVA=   216 NVB=   216

 **** Warning!!: The largest alpha MO coefficient is  0.33748255D+02

 Fully direct method using O(ONN) memory.
 JobTyp=1 Pass  1:  I=   4 to  14 NPSUse= 28 ParTrn=T ParDer=T DoDerP=T.
 Spin components of T(2) and E(2):
     alpha-alpha T2 =       0.1915517166D-01 E2=     -0.8834564595D-01
     alpha-beta  T2 =       0.1151887017D+00 E2=     -0.5507844652D+00
     beta-beta   T2 =       0.1915517166D-01 E2=     -0.8834564595D-01
 ANorm=    0.1074010729D+01
 E2 =    -0.7274757571D+00 EUMP2 =    -0.23989215255939D+03
          IDoAtm=1111111
          Differentiating once with respect to electric field.
                with respect to dipole field.
          Differentiating once with respect to nuclear coordinates.
 Keep R1 ints in memory in canonical form, NReq=366798776.
          There are     1 degrees of freedom in the 1st order CPHF.  IDoFFX=0 NUNeed=     1.
 LinEq1:  Iter=  0 NonCon=     1 RMS=3.11D-03 Max=3.34D-02 NDo=     1
 AX will form     1 AO Fock derivatives at one time.
 LinEq1:  Iter=  1 NonCon=     1 RMS=6.73D-04 Max=6.24D-03 NDo=     1
 LinEq1:  Iter=  2 NonCon=     1 RMS=1.73D-04 Max=1.47D-03 NDo=     1
 LinEq1:  Iter=  3 NonCon=     1 RMS=6.54D-05 Max=8.67D-04 NDo=     1
 LinEq1:  Iter=  4 NonCon=     1 RMS=1.75D-05 Max=1.69D-04 NDo=     1
 LinEq1:  Iter=  5 NonCon=     1 RMS=3.94D-06 Max=4.31D-05 NDo=     1
 LinEq1:  Iter=  6 NonCon=     1 RMS=1.50D-06 Max=1.87D-05 NDo=     1
 LinEq1:  Iter=  7 NonCon=     1 RMS=3.27D-07 Max=2.65D-06 NDo=     1
 LinEq1:  Iter=  8 NonCon=     1 RMS=5.99D-08 Max=6.30D-07 NDo=     1
 LinEq1:  Iter=  9 NonCon=     1 RMS=9.15D-09 Max=9.05D-08 NDo=     1
 LinEq1:  Iter= 10 NonCon=     1 RMS=1.71D-09 Max=2.13D-08 NDo=     1
 LinEq1:  Iter= 11 NonCon=     1 RMS=2.75D-10 Max=2.21D-09 NDo=     1
 LinEq1:  Iter= 12 NonCon=     0 RMS=5.26D-11 Max=6.58D-10 NDo=     1
 Linear equations converged to 1.000D-10 1.000D-09 after    12 iterations.
 End of Minotr F.D. properties file   721 does not exist.
 End of Minotr F.D. properties file   722 does not exist.
 End of Minotr F.D. properties file   788 does not exist.
 Calling FoFJK, ICntrl=  10002127 FMM=F ISym2X=0 I1Cent= 0 IOpClX= 0 NMat=1 NMatS=1 NMatT=0.
 ***** Axes restored to original set *****
 -------------------------------------------------------------------
 Center     Atomic                   Forces (Hartrees/Bohr)
 Number     Number              X              Y              Z
 -------------------------------------------------------------------
      1        9          -0.000158127    0.000018266    0.000000168
      2        1          -0.000077661    0.000101188   -0.000000104
      3        9          -0.000024540   -0.000001816    0.000000002
      4        6           0.000247350   -0.000083683   -0.000000048
      5        1          -0.000000536   -0.000030592    0.000000032
      6        1           0.000006784   -0.000001650    0.000011714
      7        1           0.000006730   -0.000001713   -0.000011765
 -------------------------------------------------------------------
 Cartesian Forces:  Max     0.000247350 RMS     0.000072934

 GradGradGradGradGradGradGradGradGradGradGradGradGradGradGradGradGradGrad
 Berny optimization.
 Using GEDIIS/GDIIS optimizer.
 FormGI is forming the generalized inverse of G from B-inverse, IUseBI=4.
 Internal  Forces:  Max     0.000417077 RMS     0.000116153
 Search for a local minimum.
 Step number   4 out of a maximum of   28
 All quantities printed in internal units (Hartrees-Bohrs-Radians)
 Mixed Optimization -- En-DIIS/RFO-DIIS
 Swapping is turned off.
 Update second derivatives using D2CorX and points    1    2    3    4
 DE= -5.59D-06 DEPred=-5.14D-06 R= 1.09D+00
 TightC=F SS=  1.41D+00  RLast= 8.92D-03 DXNew= 5.0454D-01 2.6772D-02
 Trust test= 1.09D+00 RLast= 8.92D-03 DXMaxT set to 3.00D-01
 The second derivative matrix:
                          R1        R2        R3        R4        R5
           R1           0.06875
           R2           0.00997   0.37142
           R3           0.00101  -0.01015   0.61247
           R4          -0.00237   0.00234   0.00099   0.34470
           R5          -0.00256   0.00130   0.00103   0.00491   0.34631
           R6          -0.00256   0.00130   0.00103   0.00491   0.00542
           A1          -0.00086   0.07340   0.00582  -0.01383  -0.01487
           A2          -0.00291   0.02386  -0.00049   0.00064   0.00071
           A3          -0.00295   0.01933   0.00001   0.00098   0.00114
           A4          -0.00296   0.01934   0.00001   0.00098   0.00114
           A5           0.00271  -0.02006   0.00013  -0.00059  -0.00070
           A6           0.00271  -0.02007   0.00013  -0.00059  -0.00070
           A7           0.00271  -0.01806   0.00004  -0.00099  -0.00114
           A8           0.00002   0.00250   0.00055  -0.00075  -0.00078
           A9          -0.00000   0.00000   0.00000  -0.00000  -0.00000
           D1           0.00000  -0.00002  -0.00000   0.00000   0.00000
           D2           0.00006  -0.00171   0.00013   0.00025   0.00028
           D3          -0.00006   0.00167  -0.00013  -0.00025  -0.00027
                          R6        A1        A2        A3        A4
           R6           0.34631
           A1          -0.01487   0.14224
           A2           0.00071  -0.01572   0.16364
           A3           0.00114  -0.01668   0.00214   0.16122
           A4           0.00114  -0.01668   0.00214   0.00122   0.16122
           A5          -0.00070   0.01519  -0.00234  -0.00128  -0.00128
           A6          -0.00070   0.01519  -0.00234  -0.00128  -0.00128
           A7          -0.00114   0.01519  -0.00219  -0.00130  -0.00130
           A8          -0.00078  -0.00095  -0.00155  -0.00139  -0.00139
           A9          -0.00000  -0.00000  -0.00000  -0.00000  -0.00000
           D1           0.00000   0.00000   0.00000   0.00000   0.00000
           D2           0.00028   0.00025  -0.00030  -0.00013  -0.00013
           D3          -0.00027  -0.00024   0.00031   0.00014   0.00014
                          A5        A6        A7        A8        A9
           A5           0.16140
           A6           0.00140   0.16140
           A7           0.00137   0.00137   0.16133
           A8           0.00135   0.00135   0.00129   0.01628
           A9           0.00000   0.00000   0.00000  -0.00000   0.01624
           D1          -0.00000  -0.00000  -0.00000   0.00000   0.00000
           D2           0.00017   0.00017   0.00016   0.00007   0.00000
           D3          -0.00018  -0.00018  -0.00017  -0.00007  -0.00000
                          D1        D2        D3
           D1           0.01069
           D2          -0.00000   0.01070
           D3           0.00000  -0.00002   0.01070
 ITU=  1  1  1  0
     Eigenvalues ---    0.01069   0.01607   0.01624   0.06550   0.08903
     Eigenvalues ---    0.10520   0.10559   0.16000   0.16027   0.19544
     Eigenvalues ---    0.34042   0.34089   0.35897   0.39918   0.61294
 En-DIIS/RFO-DIIS/Sim-DIIS IScMMF=       -3 using points:     4    3    2
 RFO step:  Lambda=-1.51589105D-06.
 DidBck=F Rises=F RFO-DIIS coefs:    1.34501   -0.34493   -0.00008
 Iteration  1 RMS(Cart)=  0.00317562 RMS(Int)=  0.00000280
 Iteration  2 RMS(Cart)=  0.00000293 RMS(Int)=  0.00000040
 Iteration  3 RMS(Cart)=  0.00000000 RMS(Int)=  0.00000040
 Variable       Old X    -DE/DX   Delta X   Delta X   Delta X     New X
                                 (Linear)    (Quad)   (Total)
    R1        3.28438   0.00007   0.00043   0.00085   0.00127   3.28566
    R2        2.65542   0.00025  -0.00168   0.00149  -0.00019   2.65523
    R3        1.76055   0.00002  -0.00002   0.00002  -0.00000   1.76055
    R4        2.05167   0.00002   0.00048  -0.00027   0.00021   2.05188
    R5        2.05032   0.00001   0.00050  -0.00032   0.00019   2.05051
    R6        2.05032   0.00001   0.00050  -0.00032   0.00019   2.05051
    A1        1.93438   0.00042   0.00149   0.00189   0.00338   1.93776
    A2        1.88745   0.00003   0.00049   0.00005   0.00054   1.88798
    A3        1.88135  -0.00000   0.00064  -0.00028   0.00036   1.88171
    A4        1.88134  -0.00000   0.00064  -0.00027   0.00036   1.88170
    A5        1.93670  -0.00001  -0.00055   0.00015  -0.00040   1.93630
    A6        1.93671  -0.00001  -0.00055   0.00015  -0.00040   1.93630
    A7        1.93784  -0.00000  -0.00055   0.00017  -0.00038   1.93746
    A8        2.89839   0.00002   0.00125   0.00030   0.00155   2.89993
    A9        3.14154   0.00000   0.00000  -0.00000   0.00000   3.14154
    D1        0.00076  -0.00000  -0.00001  -0.00001  -0.00001   0.00074
    D2       -2.09433  -0.00000   0.00002  -0.00006  -0.00004  -2.09436
    D3        2.09584   0.00000  -0.00003   0.00004   0.00001   2.09585
         Item               Value     Threshold  Converged?
 Maximum Force            0.000417     0.000450     YES
 RMS     Force            0.000116     0.000300     YES
 Maximum Displacement     0.006844     0.001800     NO 
 RMS     Displacement     0.003175     0.001200     NO 
 Predicted change in Energy=-7.579549D-07
 GradGradGradGradGradGradGradGradGradGradGradGradGradGradGradGradGradGrad

                          Input orientation:                          
 ---------------------------------------------------------------------
 Center     Atomic      Atomic             Coordinates (Angstroms)
 Number     Number       Type             X           Y           Z
 ---------------------------------------------------------------------
      1          9           0        0.584300    0.690325    0.000028
      2          1           0       -1.100839    0.262116    0.000014
      3          9           0       -1.922638   -0.176751   -0.000038
      4          6           0        1.395903   -0.456660    0.000006
      5          1           0        0.749379   -1.329002   -0.000781
      6          1           0        2.009267   -0.429320    0.894679
      7          1           0        2.010353   -0.428507   -0.893896
 ---------------------------------------------------------------------
                    Distance matrix (angstroms):
                    1          2          3          4          5
     1  F    0.000000
     2  H    1.738694   0.000000
     3  F    2.652651   0.931642   0.000000
     4  C    1.405089   2.598146   3.330325   0.000000
     5  H    2.026064   2.440280   2.909873   1.085806   0.000000
     6  H    2.021024   3.309270   4.040321   1.085082   1.788461
     7  H    2.021018   3.309917   4.041136   1.085081   1.788463
                    6          7
     6  H    0.000000
     7  H    1.788576   0.000000
 Stoichiometry    CH4F2
 Framework group  C1[X(CH4F2)]
 Deg. of freedom    15
 Full point group                 C1      NOp   1
 Largest Abelian subgroup         C1      NOp   1
 Largest concise Abelian subgroup C1      NOp   1
                         Standard orientation:                         
 ---------------------------------------------------------------------
 Center     Atomic      Atomic             Coordinates (Angstroms)
 Number     Number       Type             X           Y           Z
 ---------------------------------------------------------------------
      1          9           0        0.582343    0.693535    0.000029
      2          1           0       -1.101547    0.260440    0.000016
      3          9           0       -1.922070   -0.180808   -0.000037
      4          6           0        1.397270   -0.451092    0.000007
      5          1           0        0.753279   -1.325305   -0.000780
      6          1           0        2.010552   -0.421973    0.894681
      7          1           0        2.011635   -0.421157   -0.893894
 ---------------------------------------------------------------------
 Rotational constants (GHZ):          32.1062492           4.5399042           4.0810312
 Standard basis: Aug-CC-pVTZ (5D, 7F)
 There are   265 symmetry adapted cartesian basis functions of A   symmetry.
 There are   230 symmetry adapted basis functions of A   symmetry.
   230 basis functions,   324 primitive gaussians,   265 cartesian basis functions
    14 alpha electrons       14 beta electrons
       nuclear repulsion energy        75.4079183515 Hartrees.
 NAtoms=    7 NActive=    7 NUniq=    7 SFac= 1.00D+00 NAtFMM=   60 NAOKFM=F Big=F
 Integral buffers will be    131072 words long.
 Raffenetti 1 integral format.
 Two-electron integral symmetry is turned on.
 One-electron integrals computed using PRISM.
 NBasis=   230 RedAO= T EigKep=  7.06D-05  NBF=   230
 NBsUse=   230 1.00D-06 EigRej= -1.00D+00 NBFU=   230
 Initial guess from the checkpoint file:  "/gscratch/scrubbed/gds001/Gau-26133.chk"
 B after Tr=     0.000000   -0.000000    0.000000
         Rot=    1.000000   -0.000002    0.000001   -0.000316 Ang=  -0.04 deg.
 Keep R1 ints in memory in canonical form, NReq=366793835.
 Requested convergence on RMS density matrix=1.00D-08 within 128 cycles.
 Requested convergence on MAX density matrix=1.00D-06.
 Requested convergence on             energy=1.00D-06.
 No special actions if energy rises.
 SCF Done:  E(RHF) =  -239.164689478     A.U. after    7 cycles
            NFock=  7  Conv=0.77D-08     -V/T= 2.0010
 ExpMin= 2.53D-02 ExpMax= 1.95D+04 ExpMxC= 6.65D+02 IAcc=3 IRadAn=         5 AccDes= 0.00D+00
 HarFok:  IExCor=  205 AccDes= 0.00D+00 IRadAn=         5 IDoV=-2 UseB2=F ITyADJ=14
 ICtDFT= 12500011 ScaDFX=  1.000000  1.000000  1.000000  1.000000
 Range of M.O.s used for correlation:     4   230
 NBasis=   230 NAE=    14 NBE=    14 NFC=     3 NFV=     0
 NROrb=    227 NOA=    11 NOB=    11 NVA=   216 NVB=   216

 **** Warning!!: The largest alpha MO coefficient is  0.33441424D+02

 Fully direct method using O(ONN) memory.
 JobTyp=1 Pass  1:  I=   4 to  14 NPSUse= 28 ParTrn=T ParDer=T DoDerP=T.
 Spin components of T(2) and E(2):
     alpha-alpha T2 =       0.1915464345D-01 E2=     -0.8834258431D-01
     alpha-beta  T2 =       0.1151912271D+00 E2=     -0.5507792093D+00
     beta-beta   T2 =       0.1915464345D-01 E2=     -0.8834258431D-01
 ANorm=    0.1074011412D+01
 E2 =    -0.7274643779D+00 EUMP2 =    -0.23989215385631D+03
          IDoAtm=1111111
          Differentiating once with respect to electric field.
                with respect to dipole field.
          Differentiating once with respect to nuclear coordinates.
 Keep R1 ints in memory in canonical form, NReq=366798732.
          There are     1 degrees of freedom in the 1st order CPHF.  IDoFFX=0 NUNeed=     1.
 LinEq1:  Iter=  0 NonCon=     1 RMS=3.10D-03 Max=3.36D-02 NDo=     1
 AX will form     1 AO Fock derivatives at one time.
 LinEq1:  Iter=  1 NonCon=     1 RMS=6.73D-04 Max=6.21D-03 NDo=     1
 LinEq1:  Iter=  2 NonCon=     1 RMS=1.73D-04 Max=1.47D-03 NDo=     1
 LinEq1:  Iter=  3 NonCon=     1 RMS=6.54D-05 Max=8.64D-04 NDo=     1
 LinEq1:  Iter=  4 NonCon=     1 RMS=1.75D-05 Max=1.72D-04 NDo=     1
 LinEq1:  Iter=  5 NonCon=     1 RMS=3.94D-06 Max=4.30D-05 NDo=     1
 LinEq1:  Iter=  6 NonCon=     1 RMS=1.49D-06 Max=1.86D-05 NDo=     1
 LinEq1:  Iter=  7 NonCon=     1 RMS=3.27D-07 Max=2.63D-06 NDo=     1
 LinEq1:  Iter=  8 NonCon=     1 RMS=5.99D-08 Max=6.33D-07 NDo=     1
 LinEq1:  Iter=  9 NonCon=     1 RMS=9.15D-09 Max=9.13D-08 NDo=     1
 LinEq1:  Iter= 10 NonCon=     1 RMS=1.71D-09 Max=2.12D-08 NDo=     1
 LinEq1:  Iter= 11 NonCon=     1 RMS=2.74D-10 Max=2.21D-09 NDo=     1
 LinEq1:  Iter= 12 NonCon=     0 RMS=5.26D-11 Max=6.58D-10 NDo=     1
 Linear equations converged to 1.000D-10 1.000D-09 after    12 iterations.
 End of Minotr F.D. properties file   721 does not exist.
 End of Minotr F.D. properties file   722 does not exist.
 End of Minotr F.D. properties file   788 does not exist.
 Calling FoFJK, ICntrl=  10002127 FMM=F ISym2X=0 I1Cent= 0 IOpClX= 0 NMat=1 NMatS=1 NMatT=0.
 ***** Axes restored to original set *****
 -------------------------------------------------------------------
 Center     Atomic                   Forces (Hartrees/Bohr)
 Number     Number              X              Y              Z
 -------------------------------------------------------------------
      1        9          -0.000140082   -0.000012810    0.000000144
      2        1          -0.000086165    0.000072554   -0.000000099
      3        9           0.000007338    0.000013632    0.000000001
      4        6           0.000335100   -0.000224431   -0.000000033
      5        1          -0.000017832    0.000066917    0.000000066
      6        1          -0.000049130    0.000042109   -0.000021868
      7        1          -0.000049228    0.000042028    0.000021789
 -------------------------------------------------------------------
 Cartesian Forces:  Max     0.000335100 RMS     0.000099881

 GradGradGradGradGradGradGradGradGradGradGradGradGradGradGradGradGradGrad
 Berny optimization.
 Using GEDIIS/GDIIS optimizer.
 FormGI is forming the generalized inverse of G from B-inverse, IUseBI=4.
 Internal  Forces:  Max     0.000353450 RMS     0.000102033
 Search for a local minimum.
 Step number   5 out of a maximum of   28
 All quantities printed in internal units (Hartrees-Bohrs-Radians)
 Mixed Optimization -- En-DIIS/RFO-DIIS
 Swapping is turned off.
 Update second derivatives using D2CorX and points    1    2    3    4    5
 DE= -1.30D-06 DEPred=-7.58D-07 R= 1.71D+00
 TightC=F SS=  1.41D+00  RLast= 4.07D-03 DXNew= 5.0454D-01 1.2216D-02
 Trust test= 1.71D+00 RLast= 4.07D-03 DXMaxT set to 3.00D-01
 The second derivative matrix:
                          R1        R2        R3        R4        R5
           R1           0.06596
           R2           0.00048   0.34252
           R3           0.00119  -0.01447   0.61532
           R4          -0.00112  -0.00293   0.00895   0.36541
           R5          -0.00116  -0.00270   0.00857   0.02455   0.36499
           R6          -0.00116  -0.00270   0.00857   0.02455   0.02409
           A1          -0.01812   0.02154   0.00370  -0.01517  -0.01459
           A2          -0.00070   0.02286   0.00710   0.01811   0.01644
           A3          -0.00072   0.02130   0.00524   0.01276   0.01171
           A4          -0.00072   0.02130   0.00524   0.01277   0.01172
           A5           0.00065  -0.02061  -0.00551  -0.01351  -0.01229
           A6           0.00065  -0.02061  -0.00551  -0.01351  -0.01229
           A7           0.00060  -0.01956  -0.00569  -0.01382  -0.01272
           A8          -0.00073   0.00002   0.00052  -0.00059  -0.00055
           A9          -0.00000   0.00000  -0.00000  -0.00000  -0.00000
           D1           0.00001  -0.00001   0.00000   0.00001   0.00001
           D2          -0.00013  -0.00144   0.00002  -0.00018  -0.00003
[...]
 308150,-0.04314467,-0.00185767,-0.00079933,0.00226219,0.00033280,0.000
 25687,-0.00002200,-0.00018998,-0.00010113,-0.00000339,0.00607008,-0.02
 626209,-0.01012744,0.00633953,-0.00503434,-0.00831148,-0.00068353,0.00
 118833,0.00261216,-0.01001124,0.03075172,0.00388524,-0.00380369,-0.000
 26373,0.00010131,0.00005942,-0.00003516,-0.00005189,-0.00003872,0.0000
 1982,-0.07225570,-0.00568273,0.09643577,-0.00020262,-0.00151555,-0.001
 17921,-0.00308298,-0.00260869,-0.00337805,0.07160662,0.01358996,-0.091
 59945,0.00153994,-0.02368780,0.01930564,-0.00000203,0.00000201,-0.0137
 5285,0.00006097,-0.00047712,0.00000017,0.00147018,0.00028018,0.0005059
 4,0.00000034,-0.00011416,0.00014373,0.,0.00000018,0.00027701,-0.000000
 43,0.00000061,-0.00087513,0.00006145,0.00033402,-0.00000020,-0.0005954
 9,-0.00046770,-0.00000010,0.00017028,-0.00024658,-0.00016214,-0.000000
 18,-0.00043249,-0.00016926,-0.00000003,0.00042689,0.00044854,-0.000000
 07,-0.00000003,-0.00016788,-0.00000017,-0.00000011,0.00023033,0.000000
 33,-0.00000002,0.00003388,0.00695643,0.02680705,0.00000035,0.00149353,
 0.00033723,-0.00000061,-0.00072766,-0.00014543,0.00000021,-0.22221045,
 0.02861282,-0.01218095,-0.00000407,-0.00277263,-0.00166674,0.00000031,
 0.00127435,0.00087442,0.,-0.16438526,-0.09969449,0.00000010,-0.0000034
 9,0.02828421,0.00000048,-0.00000012,-0.00005965,0.00000024,-0.00000027
 ,0.00018370,-0.00000444,0.00002347,-0.34933779,-0.00201662,-0.01296726
 ,-0.00000660,-0.00079243,0.00075259,0.00000092,0.00040703,-0.00004589,
 -0.00000050,0.04969829,0.12001982,0.00008251,-0.04345407,0.00413895,-0
 .00745002,-0.00000064,0.00171601,0.00001347,-0.00000083,-0.00053509,-0
 .00040783,0.00000030,0.12665860,0.15919270,0.00014379,-0.12063255,-0.1
 3994340,0.00000142,-0.00000998,-0.00087339,0.00000073,-0.00000066,0.00
 054513,-0.00000049,0.00000020,-0.00029969,0.00008615,0.00014127,-0.000
 94806,-0.00008337,-0.00013416,0.00596337,-0.00329547,0.00499037,0.0001
 1387,-0.00081842,-0.00039398,-0.00011492,0.00034222,0.00022176,0.00008
 802,0.08225364,0.00857194,0.13018682,-0.00191845,-0.00567022,-0.001876
 51,-0.06938499,-0.00454158,-0.00001122,-0.00462139,0.00103997,0.000586
 47,-0.00007409,-0.00051608,-0.00029192,0.00002397,0.00531615,-0.023250
 47,-0.01723211,0.00643395,-0.00570428,0.00743031,-0.01088002,0.0282446
 5,-0.00992359,0.00830513,-0.00688720,0.00002943,0.00011612,-0.00005897
 ,-0.00001581,-0.00005072,0.00000985,0.12334038,-0.01278634,0.16106509,
 -0.00310667,-0.00240192,-0.00219367,-0.11936024,0.01064170,-0.14768356
 ,-0.00330671,0.00500075,-0.00010556,-0.00081831,-0.00039414,0.00011514
 ,0.00034211,0.00022173,-0.00008782,0.08253624,0.00867891,-0.13026574,-
 0.00192373,-0.00567570,0.00187206,-0.00717856,0.00314765,0.00903653,-0
 .06965107,-0.00455599,-0.00000723,0.00462392,0.00104042,0.00058638,0.0
 0007385,-0.00051639,-0.00029182,-0.00002413,0.00541167,-0.02327447,0.0
 1706875,0.00643934,-0.00570063,-0.00742698,0.00316017,0.00042674,-0.00
 382395,-0.01097920,0.02826103,0.00992416,-0.00829382,-0.00687987,-0.00
 003022,-0.00011618,-0.00005873,0.00001603,0.00005100,0.00000979,-0.123
 42203,0.01262535,0.16081250,0.00311370,0.00239349,-0.00219371,-0.00903
 706,0.00383162,-0.00425153,0.11943541,-0.01049148,-0.14743846,-0.00132
 473,0.00045874,-0.01578481,0.00000663,-0.00001033,-0.00329526,0.000218
 89,-0.00109846,0.00000006,0.00042567,0.00058000,0.00010128,-0.00000012
 ,0.00054405,-0.00089586,0.00000039,-0.00000012,0.00023707,0.00000036,-
 0.00000118,0.00022564,0.00016066,0.00067240,-0.00000010,-0.00008327,-0
 .00012560,0.00000010,0.00012661,-0.00033139,0.00012044,0.00000010,-0.0
 0014040,0.00021411,0.00000022,-0.00029078,0.00002319,-0.00000013,0.000
 00005,-0.00014314,-0.00000014,0.00000015,0.00003430,-0.00000044,0.0000
 0025,-0.00020889,0.01155488,0.01362541,0.00000061,0.00002819,-0.000906
 11,-0.00000044,-0.00029477,0.00061159,0.00000014,-0.24678948,0.0065170
 1,0.01543220,0.00000497,0.00000896,-0.00049162,0.00000028,-0.00001875,
 0.00022128,-0.00000030,-0.20135039,-0.24921648,-0.00000680,0.00001420,
 0.01007313,0.00000036,0.00000072,-0.00088830,0.00000019,-0.00000055,0.
 00062086,0.00000081,-0.00011525,-0.21242501,-0.00390856,-0.01266907,-0
 .00000614,-0.00039502,-0.00028101,-0.00000083,-0.00006721,0.00023573,0
 .00000062,0.14463757,0.18357820,0.00017927,-0.11726604,-0.00282050,-0.
 00602143,0.00000021,0.00008383,0.00064602,0.00000074,0.00001291,-0.000
 33738,-0.00000014,0.20623798,0.24148525,0.00022918,-0.17320481,-0.2288
 2614,-0.00000174,-0.00000678,-0.00371980,-0.00000019,0.00000088,0.0000
 4050,0.00000029,-0.00000051,-0.00006442,0.00021484,0.00024895,-0.02590
 693,-0.00018464,-0.00023265,0.03933385,-0.00334559,-0.00049574,0.00086
 806,-0.00009730,0.00009414,-0.00018347,0.00007895,-0.00004223,0.000105
 82,0.04534808,0.00561036,0.04201331,-0.01150233,-0.01514651,0.01263717
 ,-0.02611555,-0.00219724,0.00307538,-0.00215330,0.00030075,0.00021304,
 -0.00011363,-0.00012497,-0.00012076,0.00008887,-0.00912289,-0.00369886
 ,-0.02406613,0.00116190,-0.00347558,0.02098648,0.01132166,0.00801216,-
 0.00440714,0.00256775,-0.00157464,0.00003283,0.00000214,0.00017516,-0.
 00007913,0.00001158,-0.00011925,0.07058642,0.00257717,0.11422519,-0.01
 205710,-0.01180087,-0.00483167,-0.05475901,0.00594644,-0.10683636,-0.0
 0335555,-0.00049327,-0.00086912,-0.00009713,0.00009454,0.00018391,0.00
 007897,-0.00004252,-0.00010587,0.04551554,0.00565459,-0.04218715,-0.01
 149842,-0.01516289,-0.01266570,-0.00436626,-0.00133919,0.00068314,-0.0
 2627717,-0.00220660,0.00307693,0.00215846,0.00030128,0.00021302,0.0001
 1368,-0.00012521,-0.00012088,-0.00008887,-0.00909557,-0.00373176,0.023
 93785,0.00117905,-0.00347075,-0.02099638,-0.00134167,-0.00400540,0.000
 69580,0.01128872,0.00803887,0.00440880,-0.00256477,-0.00157735,-0.0000
 3328,-0.00000259,0.00017564,0.00007909,-0.00001109,-0.00011945,-0.0708
 0236,-0.00271583,0.11430103,0.01206883,0.01180353,-0.00485151,-0.00068
 187,-0.00068873,-0.00103841,0.05496078,-0.00582054,-0.10688996,-0.0131
 5001,0.00603047,-0.00140205,-0.00000525,0.00001005,-0.00629664,0.00097
 104,-0.00090882,0.00000032,-0.00028528,0.00042250,-0.00050080,0.,-0.00
 082608,0.00007001,-0.00000027,-0.00000032,0.00015392,-0.00000056,0.000
 00030,-0.00026952,-0.00050300,0.00038813,-0.00000021,0.00034171,0.0001
 8783,0.00000012,-0.00033182,-0.00031405,0.00033855,0.,0.00028852,0.000
 14615,0.00000013,-0.00004476,-0.00003172,0.00000009,0.00000019,-0.0000
 7968,0.00000003,0.,0.00002801,0.00000005,-0.00000011,0.00009119,0.0135
 1403,-0.00053834,-0.00000003,-0.00056894,-0.00101638,-0.00000005,0.000
 00488,0.00058812,0.00000002,-0.21273759,0.00427369,0.00339276,-0.00000
 366,-0.00015676,-0.00043252,0.00000024,-0.00010261,0.00021250,0.,-0.06
 766201,-0.07188642,0.00000616,-0.00001093,0.02116152,0.00000003,-0.000
 00023,-0.00030159,0.00000014,-0.00000015,0.00024479,-0.00002518,0.0001
 1047,-0.42257253,0.00279903,-0.00568530,-0.00000065,-0.00025349,0.0004
 6561,0.00000049,0.00022956,-0.00009759,-0.00000042,0.01106788,0.032868
 08,0.00000541,-0.01983105,0.00203239,-0.00199355,-0.00000325,0.0005965
 5,-0.00007904,-0.00000043,-0.00007502,-0.00019059,0.00000011,0.0416869
 7,0.07067132,0.00005037,-0.03539769,-0.05848990,0.00000234,-0.00000510
 ,0.00009051,0.00000034,-0.00000072,0.00047050,-0.00000032,0.00000025,-
 0.00026390,-0.00001477,0.00001501,0.02626099,-0.00000725,-0.00003111,-
 0.00379914,-0.00181400,0.00035467,-0.00255619,-0.00010249,0.00038381,-
 0.00015939,0.00012945,-0.00021038,0.00008280,0.09421286,0.01530160,0.1
 6931252,0.00299653,-0.00442675,0.00491427,-0.08664269,-0.00622074,0.00
 008189,-0.00192164,0.00050333,0.00039814,0.00003284,-0.00017659,-0.000
 23754,-0.00000631,0.01339113,-0.00100805,0.02375877,0.00392727,-0.0049
 5875,0.00315355,-0.00590248,0.00597487,-0.00480831,0.00391049,-0.00752
 096,0.00008627,0.00009038,-0.00004066,-0.00004216,-0.00004499,-0.00001
 027,0.13013413,0.01902906,0.18787839,-0.00685820,-0.00706035,-0.011386
 96,-0.14504943,-0.02046823,-0.15593611,-0.00181708,0.00035921,0.002562
 01,-0.00010253,0.00038271,0.00015965,0.00012918,-0.00020987,-0.0000825
 9,0.09450689,0.01547800,-0.16929910,0.00299154,-0.00441646,-0.00489460
 ,-0.00877970,-0.00552189,0.02653773,-0.08692830,-0.00622425,0.00008321
 ,0.00191849,0.00050327,0.00039807,-0.00003276,-0.00017699,-0.00023737,
 0.00000612,0.01355054,-0.00094958,-0.02390829,0.00391961,-0.00495951,-
 0.00313187,-0.00550047,-0.00025057,0.00454365,-0.00607171,0.00591578,0
 .00480523,-0.00390439,-0.00750864,-0.00008643,-0.00008972,-0.00004066,
 0.00004236,0.00004487,-0.00001014,-0.13009412,-0.01915113,0.18732845,0
 .00686063,0.00704467,-0.01137201,-0.02654459,-0.00454896,-0.01298342,0
 .14501690,0.02060465,-0.15541359,-0.00391690,0.00450886,-0.00704384,0.
 00000005,0.00000031,-0.00101366,-0.00047040,-0.00092317,-0.00000016,0.
 00164067,-0.00021315,-0.00010120,-0.00000010,0.00114410,-0.00043747,0.
 00000001,-0.00000021,0.00028958,0.00000035,-0.00000024,-0.00034204,0.0
 0039775,0.00030067,0.00000005,-0.00082605,-0.00052615,-0.00000016,0.00
 069157,0.00010758,0.00022264,0.00000011,-0.00049398,-0.00001117,0.0000
 0007,0.00010405,0.00003236,-0.00000004,0.00000016,-0.00009960,-0.00000
 010,0.00000005,0.00011226,-0.00000004,-0.00000003,-0.00008497,0.003695
 33,-0.00735494,-0.00000136,0.00007216,0.00008360,0.00000010,-0.0001502
 6,0.00003683,-0.00000003,0.61528594,-0.00570626,0.00873557,0.00000051,
 -0.00025912,-0.00042250,0.00000028,0.00023955,0.00008874,-0.00000024,0
 .69913707,0.25288413,-0.00000137,0.00000089,-0.00055189,-0.00000019,0.
 00000024,-0.00021881,0.00000024,-0.00000037,0.00013449,0.00013771,0.00
 003603,1.02250090,-0.00090391,0.01014841,0.00000521,0.00001112,-0.0004
 7421,-0.00000035,-0.00030082,0.00023118,0.00000017,-0.25831173,-0.6129
 4578,-0.00053402,0.25495320,-0.00436064,0.00260430,-0.00000050,0.00014
 674,0.00073049,0.00000013,-0.00000233,-0.00021235,0.00000011,-0.629193
 82,-0.61835485,-0.00072385,0.61723515,0.59864978,-0.00000130,0.0000078
 9,-0.00200446,0.00000017,0.00000021,-0.00002702,-0.00000012,-0.0000000
 9,0.00003048,-0.00054104,-0.00071383,0.19561861,0.00054138,0.00071370,
 -0.20934776,0.00059582,-0.00333801,-0.00020849,-0.00021355,-0.00000691
 ,-0.00000372,0.00009381,0.00000719,-0.00001241,-0.17971541,-0.03996147
 ,-0.53172920,0.00227594,0.00808866,-0.01001084,0.16382631,0.00282649,-
 0.00220834,0.00387477,0.00019273,0.00012111,-0.00003483,-0.00005798,-0
 .00006016,0.00002107,-0.03109355,0.17857962,-0.03592225,-0.00709169,0.
 00829718,-0.01875465,0.03496953,-0.18622776,0.00632803,-0.00484058,0.0
 0169295,-0.00023972,-0.00024346,0.00009302,0.00010804,0.00011618,-0.00
 004632,-0.52424057,-0.04841457,-0.60939442,0.01047948,0.00704706,0.007
 86035,0.52475872,0.04857600,0.59696452,0.00060230,-0.00334183,0.000204
 71,-0.00021393,-0.00000728,0.00000376,0.00009395,0.00000714,0.00001246
 ,-0.18087600,-0.04050405,0.53212677,0.00227620,0.00808625,0.01001176,0
 .01313705,0.00025450,-0.01719393,0.16498040,0.00283712,-0.00220912,-0.
 00387510,0.00019270,0.00012073,0.00003479,-0.00005782,-0.00006005,-0.0
 0002111,-0.03161520,0.17848927,0.03660932,-0.00710305,0.00828544,0.018
 74676,0.00024102,0.00149835,-0.00224061,0.03550525,-0.18612459,-0.0063
 2538,0.00483154,0.00168711,0.00023966,0.00024329,0.00009302,-0.0001080
 1,-0.00011587,-0.00004634,0.52464519,0.04909181,-0.60808894,-0.0104918
 6,-0.00703664,0.00786978,0.01720594,0.00223991,0.00282995,-0.52516554,
 -0.04925406,0.59565543,-0.00497563,0.01337489,-0.02162907,-0.00000339,
 -0.00000307,0.00509167,-0.00042901,-0.00142462,0.00000028,0.00197651,-
 0.00006910,-0.00002140,0.00000001,0.00108495,-0.00064447,0.00000004,-0
 .00000009,0.00062556,0.00000002,-0.00000008,-0.00051376,0.00058252,0.0
 0046230,-0.00000011,-0.00064360,-0.00027242,-0.00000004,0.00029121,-0.
 00005518,0.00030605,0.00000004,-0.00018999,-0.00011345,-0.00000003,-0.
 00033584,0.00015581,-0.00000012,0.00000014,-0.00022084,0.00000001,-0.0
 0000003,-0.00001396,-0.00000005,-0.00000002,0.00012127,0.00253920,-0.0
 2999440,-0.00000083,-0.00089611,0.00005537,0.00000015,0.00017879,0.000
 17121,0.00000012,0.58721043,-0.01232980,0.02074318,-0.00000044,0.00215
 319,-0.00001834,-0.00000015,-0.00061962,-0.00050331,-0.00000022,1.2337
 0468,1.03873526,-0.00000231,0.00000316,-0.01114073,-0.00000013,-0.0000
 0065,0.00025238,0.00000008,0.00000018,-0.00012959,0.00163802,0.0010024
 8,0.34037495,-0.00181212,0.01899269,0.00000689,0.00084280,-0.00059825,
 -0.00000047,-0.00079677,0.00019966,0.00000008,-0.41257786,-1.23277164,
 -0.00102855,0.40902010,-0.00456576,0.00470310,0.00000024,-0.00076558,0
 .00097561,0.00000058,0.00051329,-0.00019447,-0.00000010,-1.22108832,-1
 .30656766,-0.00146729,1.20898700,1.29396134,-0.00000564,0.00001229,0.0
 0114914,0.00000058,0.00000075,-0.00047256,-0.00000019,-0.00000036,0.00
 031321,-0.00102143,-0.00147294,0.46640784,0.00100304,0.00144300,-0.456
 17143,0.00204775,-0.00070534,-0.00175567,-0.00042519,-0.00010035,0.000
 13223,0.00019364,0.00010519,-0.00006490,-0.08801558,0.00508518,-0.3231
 6074,0.00266225,0.00845624,-0.00281167,0.07572752,0.00182394,-0.002052
 61,0.00060732,-0.00042969,-0.00008951,0.00008481,0.00012647,0.00017511
 ,-0.00003146,0.00871614,0.12398717,0.00461480,0.00259531,0.00355194,0.
 00148579,-0.01318768,-0.13131438,0.00292415,-0.00220956,0.00225021,0.0
 0020576,0.00010622,0.00006146,0.00001821,-0.00015519,-0.00003526,-0.31
 708174,-0.00330324,-0.39876873,0.00143500,0.00701799,-0.00561083,0.320
 07033,-0.00410999,0.39865290,0.00204730,-0.00070552,0.00175284,-0.0004
 2539,-0.00010019,-0.00013193,0.00019415,0.00010494,0.00006486,-0.08843
 884,0.00477796,0.32255359,0.00266163,0.00846311,0.00283533,0.00780958,
 0.00035552,-0.00757168,0.07615154,0.00182101,-0.00204923,-0.00060409,-
 0.00042828,-0.00008845,-0.00008505,0.00012581,0.00017425,0.00003169,0.
 00843533,0.12362370,-0.00415268,0.00259521,0.00357013,-0.00146854,0.00
 034675,0.00574226,0.00265377,-0.01289582,-0.13097265,-0.00291273,0.002
 19712,0.00224503,-0.00020652,-0.00010623,0.00006088,-0.00001789,0.0001
 5539,-0.00003483,0.31646571,0.00377449,-0.39699618,-0.00141600,-0.0069
 9442,-0.00561535,0.00759042,-0.00265126,0.00345028,-0.31950302,0.00362
 489,0.39689020,-0.00996002,0.01804700,-0.01259559,0.00000512,0.0000020
 2,0.00164419,-0.00054196,-0.00136142,-0.00000040,0.00157821,-0.0005919
 7,0.00016318,-0.00000029,0.00073146,0.00001932,-0.00000017,-0.00000052
 ,0.00041695,0.00000050,-0.00000003,-0.00043139,0.00031377,0.00055834,0
 .00000012,-0.00057238,-0.00024541,-0.00000020,-0.00000350,0.00036581,0
 .00005300,0.00000016,-0.00028638,-0.00023253,0.00000005,0.00004173,0.0
 0022302,0.00000010,0.00000018,-0.00016212,-0.00000015,0.00000004,-0.00
 002068,0.00000006,-0.00000007,0.00019148,0.00751741,-0.01283923,-0.000
 00181,-0.00117227,-0.00017746,-0.00000010,0.00056614,0.00015446,-0.000
 00005,0.67881579,-0.03342386,0.01670348,0.00000364,0.00125560,0.000492
 83,0.00000101,-0.00044051,-0.00031334,-0.00000037,0.07349180,-0.706936
 49,-0.00000067,0.00000080,-0.01179706,0.00000039,0.00000072,-0.0003326
 7,0.00000014,-0.00000068,0.00013862,-0.00168786,-0.00120774,2.00163149
 ,-0.00052963,-0.00067082,-0.00000114,0.00002346,0.00010426,0.00000012,
 0.00003510,-0.00010952,-0.00000013,-0.00703926,0.01807336,-0.00001091,
 -0.00108759,0.00043203,0.00047856,-0.00000151,0.00018420,0.00020337,0.
 00000009,-0.00004684,-0.00015590,-0.00000001,0.00029363,0.00715792,-0.
 00001418,-0.00321592,-0.00495080,0.00000095,-0.00000036,0.00157246,-0.
 00000052,0.00000021,-0.00005777,0.00000026,-0.00000016,0.00000552,-0.0
 0002072,-0.00000400,-0.01600238,0.00002961,0.00002629,-0.00257113,0.00
 159465,-0.00186110,0.00044451,0.00034264,0.00008952,0.00022753,-0.0001
 6982,-0.00008294,-0.00013587,-0.33810887,-0.02900671,-0.97224807,0.004
 29558,0.00117425,0.00237032,0.34137414,0.00757512,-0.00239702,0.004906
 76,-0.00026117,-0.00032275,-0.00002693,0.00006623,0.00021262,0.0000120
 4,-0.02998217,0.34129636,-0.04796844,-0.00709119,-0.00136124,-0.004513
 43,0.03000283,-0.33499939,0.00826992,-0.00861316,0.00416313,-0.0003749
 1,-0.00009071,0.00021286,0.00022656,0.00001664,-0.00007649,-0.97349950
 ,-0.04411127,-0.98739481,0.00464965,0.00531136,0.00853183,0.96505115,0
 .04754366,0.96684639,0.00160577,-0.00187277,-0.00044640,0.00034234,0.0
 0008960,-0.00022769,-0.00016936,-0.00008317,0.00013605,-0.34057891,-0.
 02994973,0.97394693,0.00430234,0.00117868,-0.00237990,-0.00932834,-0.0
 0030962,-0.00432284,0.34382614,0.00759588,-0.00240562,-0.00491078,-0.0
 0026228,-0.00032342,0.00002633,0.00006645,0.00021313,-0.00001181,-0.03
 094101,0.34159928,0.04918952,-0.00709018,-0.00137192,0.00449145,-0.000
 31584,-0.00242862,-0.00005651,0.03094698,-0.33528283,-0.00827526,0.008
 61103,0.00416246,0.00037509,0.00009007,0.00021270,-0.00022695,-0.00001
 595,-0.00007634,0.97521005,0.04531873,-0.98624317,-0.00466720,-0.00532
 203,0.00852145,0.00429042,0.00004635,0.00771711,-0.96670615,-0.0487282
 1,0.96570579,-0.02490882,0.01500204,0.02598562,0.00000221,0.00000097,-
 0.00071997,0.04161024,-0.01030643,0.00000382,5.94476702,0.00159292,-0.
 02286566,0.00000007,3.90548369,0.33234674,0.00000005,-0.00000123,-0.00
 938861,0.00076455,0.00039121,-1.67219179,-0.01359112,-0.00037990,-0.00
 000199,-5.98496408,-3.91612009,-0.00076740,5.99922496,-0.00850606,0.00
 193673,-0.00000107,-3.90863433,-0.31251691,-0.00039058,3.91753399,0.31
 220290,-0.00000148,-0.00000012,0.00136285,-0.00076683,-0.00039096,1.68
 389891,0.00076849,0.00039125,-1.68499872,0.00391503,-0.00163579,-0.000
 00262,-0.00765048,0.00673048,0.00000178,-0.00005471,0.00054280,0.00000
 007,0.00503871,-0.01275553,-0.00631479,-0.00000078,0.02072508,0.003535
 01,0.00000106,-0.00108577,-0.00168047,-0.00000024,-0.00527669,0.009346
 02,0.00000055,0.00000269,0.00958461,-0.00000284,-0.00000280,-0.0025343
 3,0.00000272,0.00000131,-0.00003698,-0.00000110,0.00000067,-0.00253075
 ,-0.00299223,0.00144777,0.00000012,0.00196306,0.00008653,-0.00000006,-
 0.00008112,-0.00028267,-0.00000009,-0.00011882,-0.00339503,-0.00000251
 ,-0.00001274,-0.00002583,0.00087993,0.00000010,-0.00217588,0.00095055,
 0.00000036,-0.00023237,-0.00034922,-0.00000005,0.00092883,-0.00365868,
 -0.00000270,0.00119441,0.00148502,-0.00000044,0.00000142,-0.00102601,0
 .00000078,0.00000092,0.00021258,-0.00000122,-0.00000055,-0.00026475,-0
 .00000025,-0.00000339,0.00000928,0.00000053,0.00000035,0.00080265,-0.0
 0201672,-0.00206260,0.00069457,0.00213686,0.00111299,-0.00050509,-0.00
 026692,-0.00032689,0.00011188,-0.00056422,0.00089359,-0.00059964,0.000
 62103,0.00015613,0.00018996,0.00004913,0.00234444,0.00018890,-0.001009
 33,-0.00254440,-0.00072411,0.00073215,0.00014158,0.00020306,0.00010136
 ,-0.00064350,-0.00061421,-0.00112268,0.00047493,0.00034688,-0.00027925
 ,0.00020396,0.00025672,0.00176037,-0.00105390,0.00009388,-0.00049804,-
 0.00063849,0.00000147,0.00047719,0.00038419,0.00001952,-0.00190145,0.0
 0015477,-0.00224850,-0.00003258,-0.00004837,0.00013286,0.00015194,0.00
 138973,0.00164603,-0.00201637,-0.00206508,-0.00069611,0.00213740,0.001
 11349,0.00050618,-0.00026708,-0.00032684,-0.00011204,-0.00056547,0.000
 89431,0.00060281,0.00062080,0.00015472,-0.00018936,0.00004083,0.000023
 01,0.00004258,0.00004985,0.00234803,0.00018926,0.00101003,-0.00254772,
 -0.00072562,-0.00073297,0.00014255,0.00020392,-0.00010123,-0.00064609,
 -0.00061289,0.00112352,0.00047404,0.00034552,0.00028050,0.00002282,0.0
 0034274,-0.00018791,0.00020637,0.00025709,-0.00176126,0.00105017,0.000
 09325,0.00049856,0.00064006,0.00000179,-0.00047778,-0.00038453,0.00001
 916,0.00190357,-0.00015210,-0.00224336,0.00003460,0.00005032,0.0001333
 9,-0.00004362,0.00018804,0.00035476,-0.00015407,-0.00139196,0.00164101
 \\@


 Mondays are the potholes in the road of life.
                                -- Tom Wilson
 Job cpu time:       4 days 10 hours 34 minutes 53.5 seconds.
 Elapsed time:       0 days  3 hours 52 minutes 17.2 seconds.
 File lengths (MBytes):  RWF=   8440 Int=      0 D2E=      0 Chk=     52 Scr=      8
 Normal termination of Gaussian 16 at Mon Dec 20 17:28:10 2021.
