 Entering Gaussian System, Link 0=g16
 Input=hf_h2o_mp2_avtz_opt_anharm.gjf
 Output=hf_h2o_mp2_avtz_opt_anharm.log
 Initial command:
 /sw/contrib/gaussian/g16/A03/g16/l1.exe "/gscratch/scrubbed/gds001/Gau-7462.inp" -scrdir="/gscratch/scrubbed/gds001/"
 Entering Link 1 = /sw/contrib/gaussian/g16/A03/g16/l1.exe PID=      7463.
  
 Copyright (c) 1988,1990,1992,1993,1995,1998,2003,2009,2016,
            Gaussian, Inc.  All Rights Reserved.
  
 This is part of the Gaussian(R) 16 program.  It is based on
 the Gaussian(R) 09 system (copyright 2009, Gaussian, Inc.),
 the Gaussian(R) 03 system (copyright 2003, Gaussian, Inc.),
 the Gaussian(R) 98 system (copyright 1998, Gaussian, Inc.),
 the Gaussian(R) 94 system (copyright 1995, Gaussian, Inc.),
 the Gaussian 92(TM) system (copyright 1992, Gaussian, Inc.),
 the Gaussian 90(TM) system (copyright 1990, Gaussian, Inc.),
 the Gaussian 88(TM) system (copyright 1988, Gaussian, Inc.),
 the Gaussian 86(TM) system (copyright 1986, Carnegie Mellon
 University), and the Gaussian 82(TM) system (copyright 1983,
 Carnegie Mellon University). Gaussian is a federally registered
 trademark of Gaussian, Inc.
  
 This software contains proprietary and confidential information,
 including trade secrets, belonging to Gaussian, Inc.
  
 This software is provided under written license and may be
 used, copied, transmitted, or stored only in accord with that
 written license.
  
 The following legend is applicable only to US Government
 contracts under FAR:
  
                    RESTRICTED RIGHTS LEGEND
  
 Use, reproduction and disclosure by the US Government is
 subject to restrictions as set forth in subparagraphs (a)
 and (c) of the Commercial Computer Software - Restricted
 Rights clause in FAR 52.227-19.
  
 Gaussian, Inc.
 340 Quinnipiac St., Bldg. 40, Wallingford CT 06492
  
  
 ---------------------------------------------------------------
 Warning -- This program may not be used in any manner that
 competes with the business of Gaussian, Inc. or will provide
 assistance to any competitor of Gaussian, Inc.  The licensee
 of this program is prohibited from giving any competitor of
 Gaussian, Inc. access to this program.  By using this program,
 the user acknowledges that Gaussian, Inc. is engaged in the
 business of creating and licensing software in the field of
 computational chemistry and represents and warrants to the
 licensee that it is not a competitor of Gaussian, Inc. and that
 it will not use this program in any manner prohibited above.
 ---------------------------------------------------------------
  

 Cite this work as:
 Gaussian 16, Revision A.03,
 M. J. Frisch, G. W. Trucks, H. B. Schlegel, G. E. Scuseria, 
 M. A. Robb, J. R. Cheeseman, G. Scalmani, V. Barone, 
 G. A. Petersson, H. Nakatsuji, X. Li, M. Caricato, A. V. Marenich, 
 J. Bloino, B. G. Janesko, R. Gomperts, B. Mennucci, H. P. Hratchian, 
 J. V. Ortiz, A. F. Izmaylov, J. L. Sonnenberg, D. Williams-Young, 
 F. Ding, F. Lipparini, F. Egidi, J. Goings, B. Peng, A. Petrone, 
 T. Henderson, D. Ranasinghe, V. G. Zakrzewski, J. Gao, N. Rega, 
 G. Zheng, W. Liang, M. Hada, M. Ehara, K. Toyota, R. Fukuda, 
 J. Hasegawa, M. Ishida, T. Nakajima, Y. Honda, O. Kitao, H. Nakai, 
 T. Vreven, K. Throssell, J. A. Montgomery, Jr., J. E. Peralta, 
 F. Ogliaro, M. J. Bearpark, J. J. Heyd, E. N. Brothers, K. N. Kudin, 
 V. N. Staroverov, T. A. Keith, R. Kobayashi, J. Normand, 
 K. Raghavachari, A. P. Rendell, J. C. Burant, S. S. Iyengar, 
 J. Tomasi, M. Cossi, J. M. Millam, M. Klene, C. Adamo, R. Cammi, 
 J. W. Ochterski, R. L. Martin, K. Morokuma, O. Farkas, 
 J. B. Foresman, and D. J. Fox, Gaussian, Inc., Wallingford CT, 2016.
 
 ******************************************
 Gaussian 16:  ES64L-G16RevA.03 25-Dec-2016
                25-Jun-2021 
 ******************************************
 %nprocshared=28
 Will use up to   28 processors via shared memory.
 %mem=41GB
 %chk=hf_h2o_mp2_avtz_opt_anharm.chk
 ----------------------------------------------
 # mp2/aug-cc-pVTZ opt freq=(vibrot,anharmonic)
 ----------------------------------------------
 1/18=20,19=15,38=1,80=1/1,3;
 2/9=110,12=2,17=6,18=5,40=1/2;
 3/5=16,6=1,7=10,11=9,25=1,30=1,71=1/1,2,3;
 4//1;
 5/5=2,38=5/2;
 8/6=4,10=1/1;
 9/15=2,16=-3/6;
 10/5=1/2;
 6/7=2,8=2,9=2,10=2/1;
 7/12=2/1,2,3,16;
 1/18=20,19=15,80=1/3(2);
 2/9=110/2;
 99//99;
 2/9=110/2;
 3/5=16,6=1,7=10,11=9,25=1,30=1,71=1/1,2,3;
 4/5=5,16=3,69=1/1;
 5/5=2,38=5/2;
 8/6=4,10=1/1;
 9/15=2,16=-3/6;
 10/5=1/2;
 7/12=2/1,2,3,16;
 1/18=20,19=15,80=1/3(-8);
 2/9=110/2;
 6/7=2,8=2,9=2,10=2/1;
 99//99;
 ----------
 FH --- OH2
 ----------
 Symbolic Z-matrix:
 Charge =  0 Multiplicity = 1
 O                     1.24113  0.        -0.09643 
 H                     1.63552   0.76538   0.34322 
 H                     1.63557  -0.76535   0.34323 
 H                    -0.47344  -0.00003  -0.04793 
 F                    -1.41408   0.        0.01477 
 
 Add virtual bond connecting atoms H4         and O1         Dist= 3.24D+00.

 GradGradGradGradGradGradGradGradGradGradGradGradGradGradGradGradGradGrad
 Berny optimization.
 Initialization pass.
                           ----------------------------
                           !    Initial Parameters    !
                           ! (Angstroms and Degrees)  !
 --------------------------                            --------------------------
 ! Name  Definition              Value          Derivative Info.                !
 --------------------------------------------------------------------------------
 ! R1    R(1,2)                  0.9668         estimate D2E/DX2                !
 ! R2    R(1,3)                  0.9668         estimate D2E/DX2                !
 ! R3    R(1,4)                  1.7153         estimate D2E/DX2                !
 ! R4    R(4,5)                  0.9427         estimate D2E/DX2                !
 ! A1    A(2,1,3)              104.6844         estimate D2E/DX2                !
 ! A2    A(2,1,4)              113.2621         estimate D2E/DX2                !
 ! A3    A(3,1,4)              113.2634         estimate D2E/DX2                !
 ! A4    L(1,4,5,2,-1)         178.815          estimate D2E/DX2                !
 ! A5    L(1,4,5,2,-2)         184.6206         estimate D2E/DX2                !
 ! D1    D(2,1,4,3)           -119.0226         estimate D2E/DX2                !
 --------------------------------------------------------------------------------
 Trust Radius=3.00D-01 FncErr=1.00D-07 GrdErr=1.00D-07 EigMax=2.50D+02 EigMin=1.00D-04
 Number of steps in this run=     20 maximum allowed number of steps=    100.
 GradGradGradGradGradGradGradGradGradGradGradGradGradGradGradGradGradGrad

                          Input orientation:                          
 ---------------------------------------------------------------------
 Center     Atomic      Atomic             Coordinates (Angstroms)
 Number     Number       Type             X           Y           Z
 ---------------------------------------------------------------------
      1          8           0        1.241132   -0.000002   -0.096430
      2          1           0        1.635523    0.765382    0.343215
      3          1           0        1.635569   -0.765350    0.343233
      4          1           0       -0.473439   -0.000032   -0.047926
      5          9           0       -1.414079    0.000001    0.014768
 ---------------------------------------------------------------------
                    Distance matrix (angstroms):
                    1          2          3          4          5
     1  O    0.000000
     2  H    0.966770   0.000000
     3  H    0.966769   1.530732   0.000000
     4  H    1.715257   2.277404   2.277418   0.000000
     5  F    2.657538   3.161291   3.161330   0.942727   0.000000
 Stoichiometry    FH3O
 Framework group  C1[X(FH3O)]
 Deg. of freedom     9
 Full point group                 C1      NOp   1
 Largest Abelian subgroup         C1      NOp   1
 Largest concise Abelian subgroup C1      NOp   1
                         Standard orientation:                         
 ---------------------------------------------------------------------
 Center     Atomic      Atomic             Coordinates (Angstroms)
 Number     Number       Type             X           Y           Z
 ---------------------------------------------------------------------
      1          8           0        1.241132   -0.000002   -0.096430
      2          1           0        1.635523    0.765382    0.343215
      3          1           0        1.635569   -0.765350    0.343233
      4          1           0       -0.473439   -0.000032   -0.047926
      5          9           0       -1.414079    0.000001    0.014768
 ---------------------------------------------------------------------
 Rotational constants (GHZ):         327.9405963           7.4139465           7.3257777
 Standard basis: Aug-CC-pVTZ (5D, 7F)
 There are   185 symmetry adapted cartesian basis functions of A   symmetry.
 There are   161 symmetry adapted basis functions of A   symmetry.
   161 basis functions,   225 primitive gaussians,   185 cartesian basis functions
    10 alpha electrons       10 beta electrons
       nuclear repulsion energy        34.4382267450 Hartrees.
 NAtoms=    5 NActive=    5 NUniq=    5 SFac= 1.00D+00 NAtFMM=   60 NAOKFM=F Big=F
 Integral buffers will be    131072 words long.
 Raffenetti 1 integral format.
 Two-electron integral symmetry is turned on.
 One-electron integrals computed using PRISM.
 NBasis=   161 RedAO= T EigKep=  1.53D-04  NBF=   161
 NBsUse=   161 1.00D-06 EigRej= -1.00D+00 NBFU=   161
 ExpMin= 2.53D-02 ExpMax= 1.95D+04 ExpMxC= 6.65D+02 IAcc=3 IRadAn=         5 AccDes= 0.00D+00
 Harris functional with IExCor=  205 and IRadAn=       5 diagonalized for initial guess.
 HarFok:  IExCor=  205 AccDes= 0.00D+00 IRadAn=         5 IDoV= 1 UseB2=F ITyADJ=14
 ICtDFT=  3500011 ScaDFX=  1.000000  1.000000  1.000000  1.000000
 FoFCou: FMM=F IPFlag=           0 FMFlag=      100000 FMFlg1=           0
         NFxFlg=           0 DoJE=T BraDBF=F KetDBF=T FulRan=T
         wScrn=  0.000000 ICntrl=       500 IOpCl=  0 I1Cent=   200000004 NGrid=           0
         NMat0=    1 NMatS0=      1 NMatT0=    0 NMatD0=    1 NMtDS0=    0 NMtDT0=    0
 Petite list used in FoFCou.
 Keep R1 ints in memory in canonical form, NReq=98800413.
 Requested convergence on RMS density matrix=1.00D-08 within 128 cycles.
 Requested convergence on MAX density matrix=1.00D-06.
 Requested convergence on             energy=1.00D-06.
 No special actions if energy rises.
 SCF Done:  E(RHF) =  -176.131652477     A.U. after   10 cycles
            NFock= 10  Conv=0.65D-08     -V/T= 2.0013
 ExpMin= 2.53D-02 ExpMax= 1.95D+04 ExpMxC= 6.65D+02 IAcc=3 IRadAn=         5 AccDes= 0.00D+00
 HarFok:  IExCor=  205 AccDes= 0.00D+00 IRadAn=         5 IDoV=-2 UseB2=F ITyADJ=14
 ICtDFT= 12500011 ScaDFX=  1.000000  1.000000  1.000000  1.000000
 Range of M.O.s used for correlation:     3   161
 NBasis=   161 NAE=    10 NBE=    10 NFC=     2 NFV=     0
 NROrb=    159 NOA=     8 NOB=     8 NVA=   151 NVB=   151

 **** Warning!!: The largest alpha MO coefficient is  0.20391589D+02

 Fully direct method using O(ONN) memory.
 JobTyp=1 Pass  1:  I=   3 to  10 NPSUse= 28 ParTrn=T ParDer=T DoDerP=T.
 Spin components of T(2) and E(2):
     alpha-alpha T2 =       0.1529310571D-01 E2=     -0.6919619360D-01
     alpha-beta  T2 =       0.8545208301D-01 E2=     -0.4140597589D+00
     beta-beta   T2 =       0.1529310571D-01 E2=     -0.6919619360D-01
 ANorm=    0.1056427136D+01
 E2 =    -0.5524521461D+00 EUMP2 =    -0.17668410462360D+03
          IDoAtm=11111
          Differentiating once with respect to electric field.
                with respect to dipole field.
          Differentiating once with respect to nuclear coordinates.
 Keep R1 ints in memory in canonical form, NReq=98803567.
          There are     1 degrees of freedom in the 1st order CPHF.  IDoFFX=0 NUNeed=     1.
 LinEq1:  Iter=  0 NonCon=     1 RMS=3.65D-03 Max=3.96D-02 NDo=     1
 AX will form     1 AO Fock derivatives at one time.
 LinEq1:  Iter=  1 NonCon=     1 RMS=5.66D-04 Max=5.78D-03 NDo=     1
 LinEq1:  Iter=  2 NonCon=     1 RMS=2.42D-04 Max=3.70D-03 NDo=     1
 LinEq1:  Iter=  3 NonCon=     1 RMS=4.58D-05 Max=3.94D-04 NDo=     1
 LinEq1:  Iter=  4 NonCon=     1 RMS=7.64D-06 Max=6.25D-05 NDo=     1
 LinEq1:  Iter=  5 NonCon=     1 RMS=2.55D-06 Max=2.49D-05 NDo=     1
 LinEq1:  Iter=  6 NonCon=     1 RMS=7.72D-07 Max=6.58D-06 NDo=     1
 LinEq1:  Iter=  7 NonCon=     1 RMS=1.39D-07 Max=1.13D-06 NDo=     1
 LinEq1:  Iter=  8 NonCon=     1 RMS=1.58D-08 Max=1.18D-07 NDo=     1
 LinEq1:  Iter=  9 NonCon=     1 RMS=2.87D-09 Max=2.72D-08 NDo=     1
 LinEq1:  Iter= 10 NonCon=     1 RMS=5.20D-10 Max=4.31D-09 NDo=     1
 LinEq1:  Iter= 11 NonCon=     0 RMS=7.09D-11 Max=6.83D-10 NDo=     1
 Linear equations converged to 1.000D-10 1.000D-09 after    11 iterations.
 End of Minotr F.D. properties file   721 does not exist.
 End of Minotr F.D. properties file   722 does not exist.
 End of Minotr F.D. properties file   788 does not exist.

 **********************************************************************

            Population analysis using the SCF density.

 **********************************************************************

 Orbital symmetries:
       Occupied  (A) (A) (A) (A) (A) (A) (A) (A) (A) (A)
       Virtual   (A) (A) (A) (A) (A) (A) (A) (A) (A) (A) (A) (A)
                 (A) (A) (A) (A) (A) (A) (A) (A) (A) (A) (A) (A)
                 (A) (A) (A) (A) (A) (A) (A) (A) (A) (A) (A) (A)
                 (A) (A) (A) (A) (A) (A) (A) (A) (A) (A) (A) (A)
                 (A) (A) (A) (A) (A) (A) (A) (A) (A) (A) (A) (A)
                 (A) (A) (A) (A) (A) (A) (A) (A) (A) (A) (A) (A)
                 (A) (A) (A) (A) (A) (A) (A) (A) (A) (A) (A) (A)
                 (A) (A) (A) (A) (A) (A) (A) (A) (A) (A) (A) (A)
                 (A) (A) (A) (A) (A) (A) (A) (A) (A) (A) (A) (A)
                 (A) (A) (A) (A) (A) (A) (A) (A) (A) (A) (A) (A)
                 (A) (A) (A) (A) (A) (A) (A) (A) (A) (A) (A) (A)
                 (A) (A) (A) (A) (A) (A) (A) (A) (A) (A) (A) (A)
                 (A) (A) (A) (A) (A) (A) (A)
 The electronic state is 1-A.
 Alpha  occ. eigenvalues --  -26.24766 -20.61605  -1.54963  -1.39965  -0.76082
 Alpha  occ. eigenvalues --   -0.73549  -0.62938  -0.60257  -0.60244  -0.55837
 Alpha virt. eigenvalues --    0.01768   0.04111   0.06678   0.11613   0.13926
 Alpha virt. eigenvalues --    0.16692   0.16795   0.19459   0.21874   0.22653
 Alpha virt. eigenvalues --    0.22684   0.24854   0.28104   0.28231   0.30305
 Alpha virt. eigenvalues --    0.36003   0.37899   0.40635   0.43507   0.43545
 Alpha virt. eigenvalues --    0.44111   0.46762   0.57387   0.59170   0.64214
 Alpha virt. eigenvalues --    0.67390   0.69810   0.71970   0.75522   0.77038
 Alpha virt. eigenvalues --    0.80372   0.84573   0.90300   0.90490   0.93974
 Alpha virt. eigenvalues --    0.94074   0.94594   0.95946   1.00061   1.01572
 Alpha virt. eigenvalues --    1.02402   1.04490   1.10945   1.14391   1.14876
 Alpha virt. eigenvalues --    1.17831   1.18936   1.20373   1.22010   1.25526
 Alpha virt. eigenvalues --    1.27397   1.29051   1.30886   1.35565   1.49274
 Alpha virt. eigenvalues --    1.53370   1.55161   1.57760   1.64875   1.73782
 Alpha virt. eigenvalues --    1.80471   1.84488   1.90610   1.94722   2.06017
 Alpha virt. eigenvalues --    2.09151   2.21988   2.33495   2.37895   2.40206
 Alpha virt. eigenvalues --    2.45212   2.46765   2.56535   2.65675   2.68345
 Alpha virt. eigenvalues --    2.73813   2.81929   2.83527   2.85763   2.85901
 Alpha virt. eigenvalues --    2.89027   2.97203   2.97214   3.03690   3.12610
 Alpha virt. eigenvalues --    3.12655   3.15822   3.27602   3.27727   3.47230
 Alpha virt. eigenvalues --    3.78208   3.81417   3.83553   3.85305   4.05685
 Alpha virt. eigenvalues --    4.15061   4.19558   4.20569   4.22577   4.24254
 Alpha virt. eigenvalues --    4.32170   4.43469   4.43532   4.46077   4.48590
 Alpha virt. eigenvalues --    4.54665   4.63865   4.67526   4.74076   4.87317
 Alpha virt. eigenvalues --    4.93820   4.95951   5.12554   5.23709   5.25941
 Alpha virt. eigenvalues --    5.27921   5.52138   5.56594   5.70121   5.89864
 Alpha virt. eigenvalues --    6.13502   6.13649   6.29054   6.53166   6.82025
 Alpha virt. eigenvalues --    6.90864   7.18165   7.25962   7.33267   7.34255
 Alpha virt. eigenvalues --    7.36383   7.48266   7.60026   7.84165   7.89243
 Alpha virt. eigenvalues --    8.13406   8.80462   8.87393   8.87397   9.00989
 Alpha virt. eigenvalues --    9.04975   9.40225   9.40507   9.41591   9.42760
 Alpha virt. eigenvalues --    9.64621   9.70422   9.71029   9.96347  15.16683
 Alpha virt. eigenvalues --   16.41825
          Condensed to atoms (all electrons):
               1          2          3          4          5
     1  O    7.911128   0.272401   0.272403   0.009303  -0.067482
     2  H    0.272401   0.478608   0.019535   0.004943   0.000297
     3  H    0.272403   0.019535   0.478610   0.004943   0.000296
     4  H    0.009303   0.004943   0.004943   0.470290   0.144945
     5  F   -0.067482   0.000297   0.000296   0.144945   9.338194
 Mulliken charges:
               1
     1  O   -0.397753
     2  H    0.224216
     3  H    0.224212
     4  H    0.365575
     5  F   -0.416250
 Sum of Mulliken charges =  -0.00000
 Mulliken charges with hydrogens summed into heavy atoms:
               1
     1  O    0.050675
     5  F   -0.050675
 Electronic spatial extent (au):  <R**2>=            158.8808
 Charge=             -0.0000 electrons
 Dipole moment (field-independent basis, Debye):
    X=              4.1330    Y=              0.0000    Z=              1.3703  Tot=              4.3543
 Quadrupole moment (field-independent basis, Debye-Ang):
   XX=            -11.9209   YY=             -9.7803   ZZ=            -12.4558
   XY=              0.0000   XZ=              2.7528   YZ=             -0.0000
 Traceless Quadrupole moment (field-independent basis, Debye-Ang):
   XX=             -0.5352   YY=              1.6054   ZZ=             -1.0702
   XY=              0.0000   XZ=              2.7528   YZ=             -0.0000
 Octapole moment (field-independent basis, Debye-Ang**2):
  XXX=             10.2007  YYY=              0.0001  ZZZ=              0.7171  XYY=              3.6669
  XXY=             -0.0001  XXZ=              4.6882  XZZ=             -0.5748  YZZ=             -0.0000
  YYZ=              1.0904  XYZ=             -0.0000
 Hexadecapole moment (field-independent basis, Debye-Ang**3):
 XXXX=           -131.0018 YYYY=             -9.4933 ZZZZ=            -10.6832 XXXY=             -0.0005
 XXXZ=              8.5438 YYYX=              0.0002 YYYZ=              0.0000 ZZZX=              1.3866
 ZZZY=             -0.0000 XXYY=            -18.3132 XXZZ=            -24.9279 YYZZ=             -3.3130
 XXYZ=             -0.0001 YYXZ=              1.9420 ZZXY=             -0.0000
 N-N= 3.443822674501D+01 E-N=-4.896339565733D+02  KE= 1.758983153750D+02
 Calling FoFJK, ICntrl=  10002127 FMM=F ISym2X=0 I1Cent= 0 IOpClX= 0 NMat=1 NMatS=1 NMatT=0.
 ***** Axes restored to original set *****
 -------------------------------------------------------------------
 Center     Atomic                   Forces (Hartrees/Bohr)
 Number     Number              X              Y              Z
 -------------------------------------------------------------------
      1        8           0.002922957    0.000000942    0.004046566
      2        1          -0.001758949   -0.002968651   -0.001992442
      3        1          -0.001758371    0.002967362   -0.001991844
      4        1          -0.002923647    0.000000940    0.000115921
      5        9           0.003518010   -0.000000593   -0.000178200
 -------------------------------------------------------------------
 Cartesian Forces:  Max     0.004046566 RMS     0.002274919

 GradGradGradGradGradGradGradGradGradGradGradGradGradGradGradGradGradGrad
 Berny optimization.
 FormGI is forming the generalized inverse of G from B-inverse, IUseBI=4.
 Internal  Forces:  Max     0.003972882 RMS     0.002108910
 Search for a local minimum.
 Step number   1 out of a maximum of   20
 All quantities printed in internal units (Hartrees-Bohrs-Radians)
 Mixed Optimization -- RFO/linear search
 Second derivative matrix not updated -- first step.
 The second derivative matrix:
                          R1        R2        R3        R4        A1
           R1           0.54042
           R2           0.00000   0.54043
           R3           0.00000   0.00000   0.07189
           R4           0.00000   0.00000   0.00000   0.59361
           A1           0.00000   0.00000   0.00000   0.00000   0.16000
           A2           0.00000   0.00000   0.00000   0.00000   0.00000
           A3           0.00000   0.00000   0.00000   0.00000   0.00000
           A4           0.00000   0.00000   0.00000   0.00000   0.00000
           A5           0.00000   0.00000   0.00000   0.00000   0.00000
           D1           0.00000   0.00000   0.00000   0.00000   0.00000
                          A2        A3        A4        A5        D1
           A2           0.16000
           A3           0.00000   0.16000
           A4           0.00000   0.00000   0.01521
           A5           0.00000   0.00000   0.00000   0.01521
           D1           0.00000   0.00000   0.00000   0.00000   0.00230
 ITU=  0
     Eigenvalues ---    0.01521   0.01521   0.04397   0.07189   0.16000
     Eigenvalues ---    0.16000   0.54042   0.54043   0.59361
 RFO step:  Lambda=-8.64190939D-05 EMin= 1.52134420D-02
 Linear search not attempted -- first point.
 Iteration  1 RMS(Cart)=  0.00565727 RMS(Int)=  0.00000889
 Iteration  2 RMS(Cart)=  0.00000706 RMS(Int)=  0.00000088
 Iteration  3 RMS(Cart)=  0.00000000 RMS(Int)=  0.00000088
 Variable       Old X    -DE/DX   Delta X   Delta X   Delta X     New X
                                 (Linear)    (Quad)   (Total)
    R1        1.82693  -0.00397   0.00000  -0.00735  -0.00735   1.81958
    R2        1.82693  -0.00397   0.00000  -0.00735  -0.00735   1.81958
    R3        3.24137  -0.00060   0.00000  -0.00829  -0.00829   3.23308
    R4        1.78150  -0.00352   0.00000  -0.00593  -0.00593   1.77556
    A1        1.82709   0.00028   0.00000   0.00338   0.00338   1.83047
    A2        1.97680  -0.00011   0.00000   0.00023   0.00023   1.97702
    A3        1.97682  -0.00011   0.00000   0.00024   0.00024   1.97706
    A4        3.12091  -0.00006   0.00000  -0.00368  -0.00368   3.11723
    A5        3.22224   0.00003   0.00000   0.00221   0.00221   3.22445
    D1       -2.07734  -0.00021   0.00000  -0.00477  -0.00478  -2.08211
         Item               Value     Threshold  Converged?
 Maximum Force            0.003973     0.000450     NO 
 RMS     Force            0.002109     0.000300     NO 
 Maximum Displacement     0.011297     0.001800     NO 
 RMS     Displacement     0.005660     0.001200     NO 
 Predicted change in Energy=-4.322206D-05
 GradGradGradGradGradGradGradGradGradGradGradGradGradGradGradGradGradGrad

                          Input orientation:                          
 ---------------------------------------------------------------------
 Center     Atomic      Atomic             Coordinates (Angstroms)
 Number     Number       Type             X           Y           Z
 ---------------------------------------------------------------------
      1          8           0        1.239559   -0.000084   -0.094476
      2          1           0        1.631524    0.763383    0.342126
      3          1           0        1.632414   -0.763178    0.341975
      4          1           0       -0.470690   -0.001051   -0.048328
      5          9           0       -1.408101    0.000928    0.015563
 ---------------------------------------------------------------------
                    Distance matrix (angstroms):
                    1          2          3          4          5
     1  O    0.000000
     2  H    0.962881   0.000000
     3  H    0.962880   1.526561   0.000000
     4  H    1.710871   2.270708   2.270731   0.000000
     5  F    2.649945   3.150762   3.152005   0.939588   0.000000
 Stoichiometry    FH3O
 Framework group  C1[X(FH3O)]
 Deg. of freedom     9
 Full point group                 C1      NOp   1
 Largest Abelian subgroup         C1      NOp   1
 Largest concise Abelian subgroup C1      NOp   1
                         Standard orientation:                         
 ---------------------------------------------------------------------
 Center     Atomic      Atomic             Coordinates (Angstroms)
 Number     Number       Type             X           Y           Z
 ---------------------------------------------------------------------
      1          8           0        1.237705   -0.000026   -0.095654
      2          1           0        1.629457    0.763798    0.340513
      3          1           0        1.630897   -0.762762    0.341119
      4          1           0       -0.472537   -0.001587   -0.049262
      5          9           0       -1.409939    0.000085    0.014762
 ---------------------------------------------------------------------
 Rotational constants (GHZ):         330.4063795           7.4573242           7.3682716
 Standard basis: Aug-CC-pVTZ (5D, 7F)
 There are   185 symmetry adapted cartesian basis functions of A   symmetry.
 There are   161 symmetry adapted basis functions of A   symmetry.
   161 basis functions,   225 primitive gaussians,   185 cartesian basis functions
    10 alpha electrons       10 beta electrons
       nuclear repulsion energy        34.5496937437 Hartrees.
 NAtoms=    5 NActive=    5 NUniq=    5 SFac= 1.00D+00 NAtFMM=   60 NAOKFM=F Big=F
 Integral buffers will be    131072 words long.
 Raffenetti 1 integral format.
 Two-electron integral symmetry is turned on.
 One-electron integrals computed using PRISM.
 NBasis=   161 RedAO= T EigKep=  1.51D-04  NBF=   161
 NBsUse=   161 1.00D-06 EigRej= -1.00D+00 NBFU=   161
 Initial guess from the checkpoint file:  "hf_h2o_mp2_avtz_opt_anharm.chk"
 B after Tr=    -0.000000    0.000000    0.000000
         Rot=    1.000000    0.000304    0.000015   -0.000029 Ang=   0.04 deg.
 Keep R1 ints in memory in canonical form, NReq=98800413.
 Requested convergence on RMS density matrix=1.00D-08 within 128 cycles.
 Requested convergence on MAX density matrix=1.00D-06.
 Requested convergence on             energy=1.00D-06.
 No special actions if energy rises.
 SCF Done:  E(RHF) =  -176.132172348     A.U. after    8 cycles
            NFock=  8  Conv=0.52D-08     -V/T= 2.0012
 ExpMin= 2.53D-02 ExpMax= 1.95D+04 ExpMxC= 6.65D+02 IAcc=3 IRadAn=         5 AccDes= 0.00D+00
 HarFok:  IExCor=  205 AccDes= 0.00D+00 IRadAn=         5 IDoV=-2 UseB2=F ITyADJ=14
 ICtDFT= 12500011 ScaDFX=  1.000000  1.000000  1.000000  1.000000
 Range of M.O.s used for correlation:     3   161
 NBasis=   161 NAE=    10 NBE=    10 NFC=     2 NFV=     0
 NROrb=    159 NOA=     8 NOB=     8 NVA=   151 NVB=   151

 **** Warning!!: The largest alpha MO coefficient is  0.20420101D+02

 Fully direct method using O(ONN) memory.
 JobTyp=1 Pass  1:  I=   3 to  10 NPSUse= 28 ParTrn=T ParDer=T DoDerP=T.
 Spin components of T(2) and E(2):
     alpha-alpha T2 =       0.1524515244D-01 E2=     -0.6914155596D-01
     alpha-beta  T2 =       0.8514396174D-01 E2=     -0.4136965436D+00
     beta-beta   T2 =       0.1524515244D-01 E2=     -0.6914155596D-01
 ANorm=    0.1056235895D+01
 E2 =    -0.5519796555D+00 EUMP2 =    -0.17668415200336D+03
          IDoAtm=11111
          Differentiating once with respect to electric field.
                with respect to dipole field.
          Differentiating once with respect to nuclear coordinates.
 Keep R1 ints in memory in canonical form, NReq=98803611.
          There are     1 degrees of freedom in the 1st order CPHF.  IDoFFX=0 NUNeed=     1.
 LinEq1:  Iter=  0 NonCon=     1 RMS=3.63D-03 Max=3.95D-02 NDo=     1
 AX will form     1 AO Fock derivatives at one time.
 LinEq1:  Iter=  1 NonCon=     1 RMS=5.61D-04 Max=5.72D-03 NDo=     1
 LinEq1:  Iter=  2 NonCon=     1 RMS=2.39D-04 Max=3.65D-03 NDo=     1
 LinEq1:  Iter=  3 NonCon=     1 RMS=4.52D-05 Max=3.87D-04 NDo=     1
 LinEq1:  Iter=  4 NonCon=     1 RMS=7.46D-06 Max=6.13D-05 NDo=     1
 LinEq1:  Iter=  5 NonCon=     1 RMS=2.48D-06 Max=2.41D-05 NDo=     1
 LinEq1:  Iter=  6 NonCon=     1 RMS=7.58D-07 Max=6.48D-06 NDo=     1
 LinEq1:  Iter=  7 NonCon=     1 RMS=1.37D-07 Max=1.11D-06 NDo=     1
 LinEq1:  Iter=  8 NonCon=     1 RMS=1.54D-08 Max=1.14D-07 NDo=     1
 LinEq1:  Iter=  9 NonCon=     1 RMS=2.79D-09 Max=2.60D-08 NDo=     1
 LinEq1:  Iter= 10 NonCon=     1 RMS=5.03D-10 Max=4.34D-09 NDo=     1
 LinEq1:  Iter= 11 NonCon=     0 RMS=6.67D-11 Max=6.16D-10 NDo=     1
 Linear equations converged to 1.000D-10 1.000D-09 after    11 iterations.
 End of Minotr F.D. properties file   721 does not exist.
 End of Minotr F.D. properties file   722 does not exist.
 End of Minotr F.D. properties file   788 does not exist.
 Calling FoFJK, ICntrl=  10002127 FMM=F ISym2X=0 I1Cent= 0 IOpClX= 0 NMat=1 NMatS=1 NMatT=0.
 ***** Axes restored to original set *****
 -------------------------------------------------------------------
 Center     Atomic                   Forces (Hartrees/Bohr)
 Number     Number              X              Y              Z
 -------------------------------------------------------------------
      1        8           0.000125444   -0.000029326    0.000609013
      2        1          -0.000194725   -0.000044521   -0.000278129
      3        1          -0.000176888    0.000049005   -0.000279804
      4        1           0.000117311    0.000053656   -0.000062861
      5        9           0.000128858   -0.000028815    0.000011782
 -------------------------------------------------------------------
 Cartesian Forces:  Max     0.000609013 RMS     0.000208949

 GradGradGradGradGradGradGradGradGradGradGradGradGradGradGradGradGradGrad
 Berny optimization.
 Using GEDIIS/GDIIS optimizer.
 FormGI is forming the generalized inverse of G from B-inverse, IUseBI=4.
 Internal  Forces:  Max     0.000247867 RMS     0.000169147
 Search for a local minimum.
 Step number   2 out of a maximum of   20
 All quantities printed in internal units (Hartrees-Bohrs-Radians)
 Mixed Optimization -- En-DIIS/RFO-DIIS
 Update second derivatives using D2CorX and points    1    2
 DE= -4.74D-05 DEPred=-4.32D-05 R= 1.10D+00
 TightC=F SS=  1.41D+00  RLast= 1.63D-02 DXNew= 5.0454D-01 4.8807D-02
 Trust test= 1.10D+00 RLast= 1.63D-02 DXMaxT set to 3.00D-01
 The second derivative matrix:
                          R1        R2        R3        R4        A1
           R1           0.53545
           R2          -0.00487   0.53565
           R3          -0.01080  -0.01079   0.06933
           R4          -0.00037  -0.00028  -0.00920   0.59695
           A1           0.02159   0.02158   0.00342   0.01906   0.15667
           A2           0.00374   0.00374   0.00044   0.00336  -0.00026
           A3           0.00539   0.00539   0.00060   0.00486  -0.00031
           A4           0.00110   0.00110  -0.00004   0.00106   0.00028
           A5           0.00109   0.00109   0.00019   0.00096  -0.00020
           D1          -0.00037  -0.00037  -0.00006  -0.00033   0.00007
                          A2        A3        A4        A5        D1
           A2           0.16001
           A3           0.00003   0.16006
           A4           0.00007   0.00010   0.01525
           A5          -0.00002  -0.00002   0.00001   0.01520
           D1           0.00001   0.00001  -0.00000   0.00000   0.00230
 ITU=  1  0
 Use linear search instead of GDIIS.
     Eigenvalues ---    0.01519   0.01525   0.04217   0.06883   0.15872
     Eigenvalues ---    0.16001   0.53206   0.54043   0.59741
 RFO step:  Lambda=-2.34875281D-06 EMin= 1.51921876D-02
 Quartic linear search produced a step of  0.10033.
 Iteration  1 RMS(Cart)=  0.00189142 RMS(Int)=  0.00000304
 Iteration  2 RMS(Cart)=  0.00000252 RMS(Int)=  0.00000165
 Iteration  3 RMS(Cart)=  0.00000000 RMS(Int)=  0.00000165
 Variable       Old X    -DE/DX   Delta X   Delta X   Delta X     New X
                                 (Linear)    (Quad)   (Total)
    R1        1.81958  -0.00024  -0.00074   0.00005  -0.00068   1.81890
    R2        1.81958  -0.00024  -0.00074   0.00006  -0.00068   1.81890
    R3        3.23308  -0.00025  -0.00083  -0.00314  -0.00397   3.22911
    R4        1.77556  -0.00013  -0.00060   0.00020  -0.00039   1.77517
    A1        1.83047   0.00021   0.00034   0.00296   0.00330   1.83376
    A2        1.97702  -0.00007   0.00002   0.00052   0.00054   1.97756
    A3        1.97706  -0.00003   0.00002   0.00076   0.00078   1.97783
    A4        3.11723   0.00002  -0.00037   0.00189   0.00152   3.11875
    A5        3.22445   0.00002   0.00022   0.00152   0.00175   3.22619
    D1       -2.08211  -0.00021  -0.00048  -0.00482  -0.00530  -2.08742
         Item               Value     Threshold  Converged?
 Maximum Force            0.000248     0.000450     YES
 RMS     Force            0.000169     0.000300     YES
 Maximum Displacement     0.002606     0.001800     NO 
 RMS     Displacement     0.001892     0.001200     NO 
 Predicted change in Energy=-1.606735D-06
 GradGradGradGradGradGradGradGradGradGradGradGradGradGradGradGradGradGrad

                          Input orientation:                          
 ---------------------------------------------------------------------
 Center     Atomic      Atomic             Coordinates (Angstroms)
 Number     Number       Type             X           Y           Z
 ---------------------------------------------------------------------
      1          8           0        1.238637   -0.000080   -0.093097
      2          1           0        1.630918    0.764008    0.341332
      3          1           0        1.631478   -0.763912    0.341277
      4          1           0       -0.469536   -0.000436   -0.047893
      5          9           0       -1.406791    0.000419    0.015240
 ---------------------------------------------------------------------
                    Distance matrix (angstroms):
                    1          2          3          4          5
     1  O    0.000000
     2  H    0.962519   0.000000
     3  H    0.962520   1.527920   0.000000
     4  H    1.708771   2.268872   2.269055   0.000000
     5  F    2.647645   3.149139   3.149854   0.939379   0.000000
 Stoichiometry    FH3O
 Framework group  C1[X(FH3O)]
 Deg. of freedom     9
 Full point group                 C1      NOp   1
 Largest Abelian subgroup         C1      NOp   1
 Largest concise Abelian subgroup C1      NOp   1
                         Standard orientation:                         
 ---------------------------------------------------------------------
 Center     Atomic      Atomic             Coordinates (Angstroms)
 Number     Number       Type             X           Y           Z
 ---------------------------------------------------------------------
      1          8           0        1.236540   -0.000021   -0.095168
      2          1           0        1.628936    0.764243    0.338846
      3          1           0        1.629770   -0.763677    0.339167
      4          1           0       -0.471607   -0.000672   -0.048975
      5          9           0       -1.408825    0.000031    0.014700
 ---------------------------------------------------------------------
 Rotational constants (GHZ):         330.7551484           7.4700670           7.3800871
 Standard basis: Aug-CC-pVTZ (5D, 7F)
 There are   185 symmetry adapted cartesian basis functions of A   symmetry.
 There are   161 symmetry adapted basis functions of A   symmetry.
   161 basis functions,   225 primitive gaussians,   185 cartesian basis functions
    10 alpha electrons       10 beta electrons
       nuclear repulsion energy        34.5715088394 Hartrees.
 NAtoms=    5 NActive=    5 NUniq=    5 SFac= 1.00D+00 NAtFMM=   60 NAOKFM=F Big=F
 Integral buffers will be    131072 words long.
 Raffenetti 1 integral format.
 Two-electron integral symmetry is turned on.
 One-electron integrals computed using PRISM.
 NBasis=   161 RedAO= T EigKep=  1.50D-04  NBF=   161
 NBsUse=   161 1.00D-06 EigRej= -1.00D+00 NBFU=   161
 Initial guess from the checkpoint file:  "hf_h2o_mp2_avtz_opt_anharm.chk"
 B after Tr=    -0.000000    0.000000   -0.000000
         Rot=    1.000000   -0.000146   -0.000012    0.000013 Ang=  -0.02 deg.
 Keep R1 ints in memory in canonical form, NReq=98800457.
 Requested convergence on RMS density matrix=1.00D-08 within 128 cycles.
 Requested convergence on MAX density matrix=1.00D-06.
 Requested convergence on             energy=1.00D-06.
 No special actions if energy rises.
 SCF Done:  E(RHF) =  -176.132221403     A.U. after    7 cycles
            NFock=  7  Conv=0.43D-08     -V/T= 2.0012
 ExpMin= 2.53D-02 ExpMax= 1.95D+04 ExpMxC= 6.65D+02 IAcc=3 IRadAn=         5 AccDes= 0.00D+00
 HarFok:  IExCor=  205 AccDes= 0.00D+00 IRadAn=         5 IDoV=-2 UseB2=F ITyADJ=14
 ICtDFT= 12500011 ScaDFX=  1.000000  1.000000  1.000000  1.000000
 Range of M.O.s used for correlation:     3   161
 NBasis=   161 NAE=    10 NBE=    10 NFC=     2 NFV=     0
 NROrb=    159 NOA=     8 NOB=     8 NVA=   151 NVB=   151

 **** Warning!!: The largest alpha MO coefficient is  0.20454883D+02

 Fully direct method using O(ONN) memory.
 JobTyp=1 Pass  1:  I=   3 to  10 NPSUse= 28 ParTrn=T ParDer=T DoDerP=T.
 Spin components of T(2) and E(2):
     alpha-alpha T2 =       0.1524008250D-01 E2=     -0.6913765505D-01
     alpha-beta  T2 =       0.8510874022D-01 E2=     -0.4136572682D+00
     beta-beta   T2 =       0.1524008250D-01 E2=     -0.6913765505D-01
 ANorm=    0.1056214422D+01
 E2 =    -0.5519325783D+00 EUMP2 =    -0.17668415398141D+03
          IDoAtm=11111
          Differentiating once with respect to electric field.
                with respect to dipole field.
          Differentiating once with respect to nuclear coordinates.
 Keep R1 ints in memory in canonical form, NReq=98803611.
          There are     1 degrees of freedom in the 1st order CPHF.  IDoFFX=0 NUNeed=     1.
 LinEq1:  Iter=  0 NonCon=     1 RMS=3.63D-03 Max=3.95D-02 NDo=     1
 AX will form     1 AO Fock derivatives at one time.
 LinEq1:  Iter=  1 NonCon=     1 RMS=5.60D-04 Max=5.72D-03 NDo=     1
 LinEq1:  Iter=  2 NonCon=     1 RMS=2.39D-04 Max=3.64D-03 NDo=     1
 LinEq1:  Iter=  3 NonCon=     1 RMS=4.51D-05 Max=3.85D-04 NDo=     1
 LinEq1:  Iter=  4 NonCon=     1 RMS=7.43D-06 Max=6.12D-05 NDo=     1
 LinEq1:  Iter=  5 NonCon=     1 RMS=2.47D-06 Max=2.40D-05 NDo=     1
 LinEq1:  Iter=  6 NonCon=     1 RMS=7.57D-07 Max=6.46D-06 NDo=     1
 LinEq1:  Iter=  7 NonCon=     1 RMS=1.37D-07 Max=1.11D-06 NDo=     1
 LinEq1:  Iter=  8 NonCon=     1 RMS=1.54D-08 Max=1.14D-07 NDo=     1
 LinEq1:  Iter=  9 NonCon=     1 RMS=2.79D-09 Max=2.57D-08 NDo=     1
 LinEq1:  Iter= 10 NonCon=     1 RMS=5.01D-10 Max=4.35D-09 NDo=     1
 LinEq1:  Iter= 11 NonCon=     0 RMS=6.60D-11 Max=6.01D-10 NDo=     1
 Linear equations converged to 1.000D-10 1.000D-09 after    11 iterations.
 End of Minotr F.D. properties file   721 does not exist.
 End of Minotr F.D. properties file   722 does not exist.
 End of Minotr F.D. properties file   788 does not exist.
 Calling FoFJK, ICntrl=  10002127 FMM=F ISym2X=0 I1Cent= 0 IOpClX= 0 NMat=1 NMatS=1 NMatT=0.
 ***** Axes restored to original set *****
 -------------------------------------------------------------------
 Center     Atomic                   Forces (Hartrees/Bohr)
 Number     Number              X              Y              Z
 -------------------------------------------------------------------
      1        8          -0.000271115   -0.000011966    0.000071560
      2        1           0.000053093    0.000007468   -0.000011350
      3        1           0.000057239   -0.000004204   -0.000012777
      4        1           0.000360015    0.000019599   -0.000078261
      5        9          -0.000199233   -0.000010896    0.000030828
 -------------------------------------------------------------------
 Cartesian Forces:  Max     0.000360015 RMS     0.000132189

 GradGradGradGradGradGradGradGradGradGradGradGradGradGradGradGradGradGrad
 Berny optimization.
 Using GEDIIS/GDIIS optimizer.
 FormGI is forming the generalized inverse of G from B-inverse, IUseBI=4.
 Internal  Forces:  Max     0.000200845 RMS     0.000090445
 Search for a local minimum.
 Step number   3 out of a maximum of   20
 All quantities printed in internal units (Hartrees-Bohrs-Radians)
 Mixed Optimization -- En-DIIS/RFO-DIIS
 Swapping is turned off.
 Update second derivatives using D2CorX and points    1    2    3
 DE= -1.98D-06 DEPred=-1.61D-06 R= 1.23D+00
 TightC=F SS=  1.41D+00  RLast= 7.88D-03 DXNew= 5.0454D-01 2.3637D-02
 Trust test= 1.23D+00 RLast= 7.88D-03 DXMaxT set to 3.00D-01
 The second derivative matrix:
                          R1        R2        R3        R4        A1
           R1           0.55254
           R2           0.01185   0.55201
           R3          -0.02349  -0.02346   0.05400
           R4           0.03742   0.03697  -0.01129   0.65325
           A1           0.03357   0.03366   0.02908   0.00934   0.11678
           A2           0.03049   0.03022   0.01021   0.03140  -0.02283
           A3           0.03227   0.03202   0.01206   0.03131  -0.02528
           A4           0.00032   0.00034   0.00079  -0.00093  -0.00062
           A5           0.00217   0.00217   0.00159   0.00103  -0.00252
           D1           0.02111   0.02086   0.00423   0.02590  -0.01309
                          A2        A3        A4        A5        D1
           A2           0.16636
           A3           0.00445   0.16243
           A4          -0.00145  -0.00144   0.01529
           A5          -0.00096  -0.00112  -0.00006   0.01507
           D1           0.00934   0.00806  -0.00119  -0.00044   0.01269
 ITU=  1  1  0
     Eigenvalues ---    0.01476   0.01528   0.02995   0.05998   0.15994
     Eigenvalues ---    0.17985   0.54042   0.54151   0.68098
 En-DIIS/RFO-DIIS/Sim-DIIS IScMMF=       -3 using points:     3    2
 RFO step:  Lambda=-9.30835067D-07.
 DidBck=F Rises=F RFO-DIIS coefs:    1.59553   -0.59553
 Iteration  1 RMS(Cart)=  0.00120866 RMS(Int)=  0.00000202
 Iteration  2 RMS(Cart)=  0.00000095 RMS(Int)=  0.00000181
 Variable       Old X    -DE/DX   Delta X   Delta X   Delta X     New X
                                 (Linear)    (Quad)   (Total)
    R1        1.81890   0.00002  -0.00041   0.00020  -0.00021   1.81869
    R2        1.81890   0.00002  -0.00040   0.00019  -0.00021   1.81869
    R3        3.22911  -0.00016  -0.00236  -0.00151  -0.00387   3.22524
    R4        1.77517   0.00020  -0.00024   0.00049   0.00026   1.77543
    A1        1.83376  -0.00004   0.00196  -0.00106   0.00090   1.83466
    A2        1.97756   0.00006   0.00032   0.00060   0.00092   1.97848
    A3        1.97783   0.00007   0.00046   0.00059   0.00105   1.97889
    A4        3.11875  -0.00000   0.00091  -0.00075   0.00016   3.11891
    A5        3.22619   0.00002   0.00104   0.00062   0.00166   3.22785
    D1       -2.08742  -0.00005  -0.00316   0.00052  -0.00264  -2.09006
         Item               Value     Threshold  Converged?
 Maximum Force            0.000201     0.000450     YES
 RMS     Force            0.000090     0.000300     YES
 Maximum Displacement     0.001941     0.001800     NO 
 RMS     Displacement     0.001209     0.001200     NO 
 Predicted change in Energy=-4.654381D-07
 GradGradGradGradGradGradGradGradGradGradGradGradGradGradGradGradGradGrad

                          Input orientation:                          
 ---------------------------------------------------------------------
 Center     Atomic      Atomic             Coordinates (Angstroms)
 Number     Number       Type             X           Y           Z
 ---------------------------------------------------------------------
      1          8           0        1.237610   -0.000091   -0.092350
      2          1           0        1.630527    0.764165    0.340962
      3          1           0        1.631028   -0.764103    0.340935
      4          1           0       -0.468535   -0.000250   -0.047933
      5          9           0       -1.405924    0.000277    0.015246
 ---------------------------------------------------------------------
                    Distance matrix (angstroms):
                    1          2          3          4          5
     1  O    0.000000
     2  H    0.962408   0.000000
     3  H    0.962408   1.528268   0.000000
     4  H    1.706723   2.267517   2.267787   0.000000
     5  F    2.645723   3.147960   3.148560   0.939516   0.000000
 Stoichiometry    FH3O
 Framework group  C1[X(FH3O)]
 Deg. of freedom     9
 Full point group                 C1      NOp   1
 Largest Abelian subgroup         C1      NOp   1
 Largest concise Abelian subgroup C1      NOp   1
                         Standard orientation:                         
 ---------------------------------------------------------------------
 Center     Atomic      Atomic             Coordinates (Angstroms)
 Number     Number       Type             X           Y           Z
 ---------------------------------------------------------------------
      1          8           0        1.235508   -0.000023   -0.094920
      2          1           0        1.628657    0.764365    0.337948
      3          1           0        1.629361   -0.763903    0.338203
      4          1           0       -0.470602   -0.000401   -0.049190
      5          9           0       -1.407942    0.000014    0.014711
 ---------------------------------------------------------------------
 Rotational constants (GHZ):         331.0368816           7.4803543           7.3898718
 Standard basis: Aug-CC-pVTZ (5D, 7F)
 There are   185 symmetry adapted cartesian basis functions of A   symmetry.
 There are   161 symmetry adapted basis functions of A   symmetry.
   161 basis functions,   225 primitive gaussians,   185 cartesian basis functions
    10 alpha electrons       10 beta electrons
       nuclear repulsion energy        34.5865986683 Hartrees.
 NAtoms=    5 NActive=    5 NUniq=    5 SFac= 1.00D+00 NAtFMM=   60 NAOKFM=F Big=F
 Integral buffers will be    131072 words long.
 Raffenetti 1 integral format.
 Two-electron integral symmetry is turned on.
 One-electron integrals computed using PRISM.
 NBasis=   161 RedAO= T EigKep=  1.50D-04  NBF=   161
 NBsUse=   161 1.00D-06 EigRej= -1.00D+00 NBFU=   161
 Initial guess from the checkpoint file:  "hf_h2o_mp2_avtz_opt_anharm.chk"
 B after Tr=     0.000000   -0.000000    0.000000
         Rot=    1.000000   -0.000034   -0.000017    0.000003 Ang=  -0.00 deg.
 Keep R1 ints in memory in canonical form, NReq=98800545.
 Requested convergence on RMS density matrix=1.00D-08 within 128 cycles.
 Requested convergence on MAX density matrix=1.00D-06.
 Requested convergence on             energy=1.00D-06.
 No special actions if energy rises.
 SCF Done:  E(RHF) =  -176.132222330     A.U. after    7 cycles
            NFock=  7  Conv=0.27D-08     -V/T= 2.0012
 ExpMin= 2.53D-02 ExpMax= 1.95D+04 ExpMxC= 6.65D+02 IAcc=3 IRadAn=         5 AccDes= 0.00D+00
 HarFok:  IExCor=  205 AccDes= 0.00D+00 IRadAn=         5 IDoV=-2 UseB2=F ITyADJ=14
 ICtDFT= 12500011 ScaDFX=  1.000000  1.000000  1.000000  1.000000
 Range of M.O.s used for correlation:     3   161
 NBasis=   161 NAE=    10 NBE=    10 NFC=     2 NFV=     0
 NROrb=    159 NOA=     8 NOB=     8 NVA=   151 NVB=   151

 **** Warning!!: The largest alpha MO coefficient is  0.20482647D+02

 Fully direct method using O(ONN) memory.
 JobTyp=1 Pass  1:  I=   3 to  10 NPSUse= 28 ParTrn=T ParDer=T DoDerP=T.
 Spin components of T(2) and E(2):
     alpha-alpha T2 =       0.1523935357D-01 E2=     -0.6913966188D-01
     alpha-beta  T2 =       0.8509975404D-01 E2=     -0.4136530318D+00
     beta-beta   T2 =       0.1523935357D-01 E2=     -0.6913966188D-01
 ANorm=    0.1056209478D+01
 E2 =    -0.5519323555D+00 EUMP2 =    -0.17668415468507D+03
          IDoAtm=11111
          Differentiating once with respect to electric field.
                with respect to dipole field.
          Differentiating once with respect to nuclear coordinates.
 Keep R1 ints in memory in canonical form, NReq=98803611.
          There are     1 degrees of freedom in the 1st order CPHF.  IDoFFX=0 NUNeed=     1.
 LinEq1:  Iter=  0 NonCon=     1 RMS=3.63D-03 Max=3.95D-02 NDo=     1
 AX will form     1 AO Fock derivatives at one time.
 LinEq1:  Iter=  1 NonCon=     1 RMS=5.60D-04 Max=5.73D-03 NDo=     1
 LinEq1:  Iter=  2 NonCon=     1 RMS=2.39D-04 Max=3.64D-03 NDo=     1
 LinEq1:  Iter=  3 NonCon=     1 RMS=4.51D-05 Max=3.84D-04 NDo=     1
 LinEq1:  Iter=  4 NonCon=     1 RMS=7.43D-06 Max=6.10D-05 NDo=     1
 LinEq1:  Iter=  5 NonCon=     1 RMS=2.47D-06 Max=2.40D-05 NDo=     1
 LinEq1:  Iter=  6 NonCon=     1 RMS=7.56D-07 Max=6.44D-06 NDo=     1
 LinEq1:  Iter=  7 NonCon=     1 RMS=1.37D-07 Max=1.11D-06 NDo=     1
 LinEq1:  Iter=  8 NonCon=     1 RMS=1.54D-08 Max=1.13D-07 NDo=     1
 LinEq1:  Iter=  9 NonCon=     1 RMS=2.78D-09 Max=2.56D-08 NDo=     1
 LinEq1:  Iter= 10 NonCon=     1 RMS=4.99D-10 Max=4.35D-09 NDo=     1
 LinEq1:  Iter= 11 NonCon=     0 RMS=6.57D-11 Max=5.94D-10 NDo=     1
 Linear equations converged to 1.000D-10 1.000D-09 after    11 iterations.
 End of Minotr F.D. properties file   721 does not exist.
 End of Minotr F.D. properties file   722 does not exist.
 End of Minotr F.D. properties file   788 does not exist.
 Calling FoFJK, ICntrl=  10002127 FMM=F ISym2X=0 I1Cent= 0 IOpClX= 0 NMat=1 NMatS=1 NMatT=0.
 ***** Axes restored to original set *****
 -------------------------------------------------------------------
 Center     Atomic                   Forces (Hartrees/Bohr)
 Number     Number              X              Y              Z
 -------------------------------------------------------------------
      1        8          -0.000322342   -0.000004051   -0.000094082
      2        1           0.000115307    0.000036372    0.000064225
      3        1           0.000115863   -0.000035767    0.000064173
      4        1           0.000259708    0.000008955   -0.000050807
      5        9          -0.000168537   -0.000005508    0.000016490
 -------------------------------------------------------------------
 Cartesian Forces:  Max     0.000322342 RMS     0.000128881

 GradGradGradGradGradGradGradGradGradGradGradGradGradGradGradGradGradGrad
 Berny optimization.
 Using GEDIIS/GDIIS optimizer.
 FormGI is forming the generalized inverse of G from B-inverse, IUseBI=4.
 Internal  Forces:  Max     0.000169261 RMS     0.000091778
 Search for a local minimum.
 Step number   4 out of a maximum of   20
 All quantities printed in internal units (Hartrees-Bohrs-Radians)
 Mixed Optimization -- En-DIIS/RFO-DIIS
 Swapping is turned off.
 Update second derivatives using D2CorX and points    1    2    3    4
 DE= -7.04D-07 DEPred=-4.65D-07 R= 1.51D+00
 Trust test= 1.51D+00 RLast= 5.26D-03 DXMaxT set to 3.00D-01
 The second derivative matrix:
                          R1        R2        R3        R4        A1
           R1           0.56262
           R2           0.02237   0.56298
           R3          -0.00760  -0.00766   0.03671
           R4           0.01833   0.01832   0.01771   0.59832
           A1          -0.00719  -0.00727   0.01627  -0.01404   0.12870
           A2           0.02159   0.02146   0.02381   0.00699  -0.03705
           A3           0.02110   0.02099   0.02627   0.00447  -0.03760
           A4           0.00127   0.00130   0.00132  -0.00088  -0.00132
           A5          -0.00016  -0.00016   0.00277  -0.00194  -0.00075
           D1           0.01119   0.01094   0.00176   0.01604  -0.02990
                          A2        A3        A4        A5        D1
           A2           0.16534
           A3           0.00142   0.15748
           A4          -0.00191  -0.00193   0.01534
           A5          -0.00268  -0.00281  -0.00012   0.01503
           D1           0.01496   0.01268  -0.00159  -0.00075   0.01364
 ITU=  0  1  1  0
     Eigenvalues ---    0.01251   0.01537   0.01965   0.05600   0.15987
     Eigenvalues ---    0.20229   0.54043   0.56698   0.62233
 En-DIIS/RFO-DIIS/Sim-DIIS IScMMF=       -3 using points:     4    3    2
 RFO step:  Lambda=-8.67473685D-07.
 DidBck=F Rises=F RFO-DIIS coefs:    2.40090   -1.49447    0.09357
 Iteration  1 RMS(Cart)=  0.00152315 RMS(Int)=  0.00000325
 Iteration  2 RMS(Cart)=  0.00000197 RMS(Int)=  0.00000264
 Iteration  3 RMS(Cart)=  0.00000000 RMS(Int)=  0.00000264
 Variable       Old X    -DE/DX   Delta X   Delta X   Delta X     New X
                                 (Linear)    (Quad)   (Total)
    R1        1.81869   0.00011  -0.00023   0.00028   0.00005   1.81874
    R2        1.81869   0.00010  -0.00023   0.00028   0.00005   1.81874
    R3        3.22524  -0.00009  -0.00505  -0.00028  -0.00533   3.21991
    R4        1.77543   0.00017   0.00040   0.00011   0.00051   1.77594
    A1        1.83466  -0.00010   0.00095  -0.00073   0.00021   1.83487
    A2        1.97848   0.00009   0.00124   0.00044   0.00167   1.98015
    A3        1.97889   0.00009   0.00140   0.00042   0.00182   1.98070
    A4        3.11891   0.00000   0.00008   0.00079   0.00087   3.11979
    A5        3.22785   0.00001   0.00216  -0.00027   0.00189   3.22974
    D1       -2.09006  -0.00001  -0.00321   0.00032  -0.00289  -2.09295
         Item               Value     Threshold  Converged?
 Maximum Force            0.000169     0.000450     YES
 RMS     Force            0.000092     0.000300     YES
 Maximum Displacement     0.003014     0.001800     NO 
 RMS     Displacement     0.001524     0.001200     NO 
 Predicted change in Energy=-4.315476D-07
 GradGradGradGradGradGradGradGradGradGradGradGradGradGradGradGradGradGrad

                          Input orientation:                          
 ---------------------------------------------------------------------
 Center     Atomic      Atomic             Coordinates (Angstroms)
 Number     Number       Type             X           Y           Z
 ---------------------------------------------------------------------
      1          8           0        1.236015   -0.000083   -0.091464
      2          1           0        1.630392    0.764209    0.340515
      3          1           0        1.630637   -0.764222    0.340557
      4          1           0       -0.467330    0.000183   -0.047840
      5          9           0       -1.405008   -0.000087    0.015092
 ---------------------------------------------------------------------
                    Distance matrix (angstroms):
                    1          2          3          4          5
     1  O    0.000000
     2  H    0.962435   0.000000
     3  H    0.962433   1.528432   0.000000
     4  H    1.703903   2.266052   2.266414   0.000000
     5  F    2.643172   3.147015   3.147217   0.939788   0.000000
 Stoichiometry    FH3O
 Framework group  C1[X(FH3O)]
 Deg. of freedom     9
 Full point group                 C1      NOp   1
 Largest Abelian subgroup         C1      NOp   1
 Largest concise Abelian subgroup C1      NOp   1
                         Standard orientation:                         
 ---------------------------------------------------------------------
 Center     Atomic      Atomic             Coordinates (Angstroms)
 Number     Number       Type             X           Y           Z
 ---------------------------------------------------------------------
      1          8           0        1.234078   -0.000019   -0.094647
      2          1           0        1.628914    0.764276    0.336906
      3          1           0        1.629161   -0.764156    0.336958
      4          1           0       -0.469219    0.000246   -0.049208
      5          9           0       -1.406831   -0.000024    0.014724
 ---------------------------------------------------------------------
 Rotational constants (GHZ):         331.4589975           7.4936023           7.4025354
 Standard basis: Aug-CC-pVTZ (5D, 7F)
 There are   185 symmetry adapted cartesian basis functions of A   symmetry.
 There are   161 symmetry adapted basis functions of A   symmetry.
   161 basis functions,   225 primitive gaussians,   185 cartesian basis functions
    10 alpha electrons       10 beta electrons
       nuclear repulsion energy        34.6042482280 Hartrees.
 NAtoms=    5 NActive=    5 NUniq=    5 SFac= 1.00D+00 NAtFMM=   60 NAOKFM=F Big=F
 Integral buffers will be    131072 words long.
 Raffenetti 1 integral format.
 Two-electron integral symmetry is turned on.
 One-electron integrals computed using PRISM.
 NBasis=   161 RedAO= T EigKep=  1.50D-04  NBF=   161
 NBsUse=   161 1.00D-06 EigRej= -1.00D+00 NBFU=   161
 Initial guess from the checkpoint file:  "hf_h2o_mp2_avtz_opt_anharm.chk"
 B after Tr=    -0.000000   -0.000000   -0.000000
         Rot=    1.000000   -0.000105   -0.000033    0.000010 Ang=  -0.01 deg.
 Keep R1 ints in memory in canonical form, NReq=98800545.
 Requested convergence on RMS density matrix=1.00D-08 within 128 cycles.
 Requested convergence on MAX density matrix=1.00D-06.
 Requested convergence on             energy=1.00D-06.
 No special actions if energy rises.
 SCF Done:  E(RHF) =  -176.132200845     A.U. after    7 cycles
            NFock=  7  Conv=0.45D-08     -V/T= 2.0012
 ExpMin= 2.53D-02 ExpMax= 1.95D+04 ExpMxC= 6.65D+02 IAcc=3 IRadAn=         5 AccDes= 0.00D+00
 HarFok:  IExCor=  205 AccDes= 0.00D+00 IRadAn=         5 IDoV=-2 UseB2=F ITyADJ=14
 ICtDFT= 12500011 ScaDFX=  1.000000  1.000000  1.000000  1.000000
 Range of M.O.s used for correlation:     3   161
 NBasis=   161 NAE=    10 NBE=    10 NFC=     2 NFV=     0
 NROrb=    159 NOA=     8 NOB=     8 NVA=   151 NVB=   151

 **** Warning!!: The largest alpha MO coefficient is  0.20534592D+02

 Fully direct method using O(ONN) memory.
 JobTyp=1 Pass  1:  I=   3 to  10 NPSUse= 28 ParTrn=T ParDer=T DoDerP=T.
 Spin components of T(2) and E(2):
     alpha-alpha T2 =       0.1524048759D-01 E2=     -0.6914515546D-01
     alpha-beta  T2 =       0.8510066637D-01 E2=     -0.4136640859D+00
     beta-beta   T2 =       0.1524048759D-01 E2=     -0.6914515546D-01
 ANorm=    0.1056210983D+01
 E2 =    -0.5519543968D+00 EUMP2 =    -0.17668415524212D+03
          IDoAtm=11111
          Differentiating once with respect to electric field.
                with respect to dipole field.
          Differentiating once with respect to nuclear coordinates.
 Keep R1 ints in memory in canonical form, NReq=98803611.
          There are     1 degrees of freedom in the 1st order CPHF.  IDoFFX=0 NUNeed=     1.
 LinEq1:  Iter=  0 NonCon=     1 RMS=3.63D-03 Max=3.96D-02 NDo=     1
 AX will form     1 AO Fock derivatives at one time.
 LinEq1:  Iter=  1 NonCon=     1 RMS=5.61D-04 Max=5.74D-03 NDo=     1
 LinEq1:  Iter=  2 NonCon=     1 RMS=2.39D-04 Max=3.65D-03 NDo=     1
 LinEq1:  Iter=  3 NonCon=     1 RMS=4.51D-05 Max=3.82D-04 NDo=     1
 LinEq1:  Iter=  4 NonCon=     1 RMS=7.42D-06 Max=6.09D-05 NDo=     1
 LinEq1:  Iter=  5 NonCon=     1 RMS=2.47D-06 Max=2.40D-05 NDo=     1
 LinEq1:  Iter=  6 NonCon=     1 RMS=7.54D-07 Max=6.41D-06 NDo=     1
 LinEq1:  Iter=  7 NonCon=     1 RMS=1.36D-07 Max=1.11D-06 NDo=     1
 LinEq1:  Iter=  8 NonCon=     1 RMS=1.54D-08 Max=1.12D-07 NDo=     1
 LinEq1:  Iter=  9 NonCon=     1 RMS=2.78D-09 Max=2.54D-08 NDo=     1
 LinEq1:  Iter= 10 NonCon=     1 RMS=4.98D-10 Max=4.34D-09 NDo=     1
 LinEq1:  Iter= 11 NonCon=     0 RMS=6.55D-11 Max=5.89D-10 NDo=     1
 Linear equations converged to 1.000D-10 1.000D-09 after    11 iterations.
 End of Minotr F.D. properties file   721 does not exist.
 End of Minotr F.D. properties file   722 does not exist.
 End of Minotr F.D. properties file   788 does not exist.
 Calling FoFJK, ICntrl=  10002127 FMM=F ISym2X=0 I1Cent= 0 IOpClX= 0 NMat=1 NMatS=1 NMatT=0.
 ***** Axes restored to original set *****
 -------------------------------------------------------------------
 Center     Atomic                   Forces (Hartrees/Bohr)
 Number     Number              X              Y              Z
 -------------------------------------------------------------------
      1        8          -0.000183160    0.000010476   -0.000097826
      2        1           0.000096489    0.000005015    0.000056460
      3        1           0.000088585   -0.000007577    0.000057803
      4        1           0.000035800   -0.000014741   -0.000011720
      5        9          -0.000037713    0.000006826   -0.000004717
 -------------------------------------------------------------------
 Cartesian Forces:  Max     0.000183160 RMS     0.000068373

 GradGradGradGradGradGradGradGradGradGradGradGradGradGradGradGradGradGrad
 Berny optimization.
 Using GEDIIS/GDIIS optimizer.
 FormGI is forming the generalized inverse of G from B-inverse, IUseBI=4.
 Internal  Forces:  Max     0.000092284 RMS     0.000055321
 Search for a local minimum.
 Step number   5 out of a maximum of   20
 All quantities printed in internal units (Hartrees-Bohrs-Radians)
 Mixed Optimization -- En-DIIS/RFO-DIIS
 Swapping is turned off.
 Update second derivatives using D2CorX and points    1    2    3    4    5
 DE= -5.57D-07 DEPred=-4.32D-07 R= 1.29D+00
 Trust test= 1.29D+00 RLast= 6.89D-03 DXMaxT set to 3.00D-01
 The second derivative matrix:
                          R1        R2        R3        R4        A1
           R1           0.53495
           R2          -0.00534   0.53523
           R3          -0.00136  -0.00144   0.04002
           R4          -0.01044  -0.01051   0.01666   0.58089
           A1           0.01862   0.01848   0.00495   0.02319   0.11623
           A2          -0.00163  -0.00174   0.03305  -0.02372  -0.03084
           A3          -0.00120  -0.00130   0.03304  -0.02234  -0.02993
           A4           0.00077   0.00081   0.00082  -0.00082  -0.00060
           A5           0.00004   0.00004   0.00148   0.00003   0.00053
           D1          -0.00290  -0.00318   0.00305   0.00042  -0.03117
                          A2        A3        A4        A5        D1
           A2           0.15949
           A3          -0.00560   0.14998
           A4          -0.00274  -0.00256   0.01540
           A5          -0.00364  -0.00334  -0.00001   0.01529
           D1           0.01616   0.01286  -0.00220  -0.00122   0.01376
 ITU=  0  0  1  1  0
     Eigenvalues ---    0.01237   0.01537   0.01754   0.05523   0.15972
     Eigenvalues ---    0.18587   0.52840   0.54043   0.58810
 En-DIIS/RFO-DIIS/Sim-DIIS IScMMF=       -3 using points:     5    4    3    2
 RFO step:  Lambda=-1.88566410D-07.
 DIIS inversion failure, remove point   4.
 DIIS inversion failure, remove point   3.
 RFO-DIIS uses    2 points instead of    4
 DidBck=F Rises=F RFO-DIIS coefs:    1.27435   -0.27435    0.00000    0.00000
 Iteration  1 RMS(Cart)=  0.00044653 RMS(Int)=  0.00000086
 Iteration  2 RMS(Cart)=  0.00000032 RMS(Int)=  0.00000079
 Variable       Old X    -DE/DX   Delta X   Delta X   Delta X     New X
                                 (Linear)    (Quad)   (Total)
    R1        1.81874   0.00007   0.00001   0.00013   0.00015   1.81888
    R2        1.81874   0.00007   0.00001   0.00013   0.00014   1.81888
    R3        3.21991   0.00000  -0.00146   0.00006  -0.00140   3.21851
    R4        1.77594   0.00004   0.00014   0.00006   0.00020   1.77614
    A1        1.83487  -0.00009   0.00006  -0.00048  -0.00042   1.83445
    A2        1.98015   0.00008   0.00046   0.00047   0.00093   1.98108
    A3        1.98070   0.00007   0.00050   0.00037   0.00087   1.98157
    A4        3.11979  -0.00000   0.00024  -0.00016   0.00008   3.11987
    A5        3.22974  -0.00001   0.00052  -0.00049   0.00003   3.22977
    D1       -2.09295   0.00001  -0.00079   0.00000  -0.00079  -2.09374
         Item               Value     Threshold  Converged?
 Maximum Force            0.000092     0.000450     YES
 RMS     Force            0.000055     0.000300     YES
 Maximum Displacement     0.001080     0.001800     YES
 RMS     Displacement     0.000447     0.001200     YES
 Predicted change in Energy=-9.430675D-08
 Optimization completed.
    -- Stationary point found.
                           ----------------------------
                           !   Optimized Parameters   !
                           ! (Angstroms and Degrees)  !
 --------------------------                            --------------------------
 ! Name  Definition              Value          Derivative Info.                !
 --------------------------------------------------------------------------------
 ! R1    R(1,2)                  0.9624         -DE/DX =    0.0001              !
 ! R2    R(1,3)                  0.9624         -DE/DX =    0.0001              !
 ! R3    R(1,4)                  1.7039         -DE/DX =    0.0                 !
 ! R4    R(4,5)                  0.9398         -DE/DX =    0.0                 !
 ! A1    A(2,1,3)              105.1303         -DE/DX =   -0.0001              !
 ! A2    A(2,1,4)              113.4545         -DE/DX =    0.0001              !
 ! A3    A(3,1,4)              113.4859         -DE/DX =    0.0001              !
 ! A4    L(1,4,5,2,-1)         178.7507         -DE/DX =    0.0                 !
 ! A5    L(1,4,5,2,-2)         185.0506         -DE/DX =    0.0                 !
 ! D1    D(2,1,4,3)           -119.9171         -DE/DX =    0.0                 !
 --------------------------------------------------------------------------------
 GradGradGradGradGradGradGradGradGradGradGradGradGradGradGradGradGradGrad

                          Input orientation:                          
 ---------------------------------------------------------------------
 Center     Atomic      Atomic             Coordinates (Angstroms)
 Number     Number       Type             X           Y           Z
 ---------------------------------------------------------------------
      1          8           0        1.236015   -0.000083   -0.091464
      2          1           0        1.630392    0.764209    0.340515
      3          1           0        1.630637   -0.764222    0.340557
      4          1           0       -0.467330    0.000183   -0.047840
      5          9           0       -1.405008   -0.000087    0.015092
 ---------------------------------------------------------------------
                    Distance matrix (angstroms):
                    1          2          3          4          5
     1  O    0.000000
     2  H    0.962435   0.000000
     3  H    0.962433   1.528432   0.000000
     4  H    1.703903   2.266052   2.266414   0.000000
     5  F    2.643172   3.147015   3.147217   0.939788   0.000000
 Stoichiometry    FH3O
 Framework group  C1[X(FH3O)]
 Deg. of freedom     9
 Full point group                 C1      NOp   1
 Largest Abelian subgroup         C1      NOp   1
 Largest concise Abelian subgroup C1      NOp   1
                         Standard orientation:                         
 ---------------------------------------------------------------------
 Center     Atomic      Atomic             Coordinates (Angstroms)
 Number     Number       Type             X           Y           Z
 ---------------------------------------------------------------------
      1          8           0        1.234078   -0.000019   -0.094647
      2          1           0        1.628914    0.764276    0.336906
      3          1           0        1.629161   -0.764156    0.336958
      4          1           0       -0.469219    0.000246   -0.049208
      5          9           0       -1.406831   -0.000024    0.014724
 ---------------------------------------------------------------------
 Rotational constants (GHZ):         331.4589975           7.4936023           7.4025354

 **********************************************************************

            Population analysis using the SCF density.

 **********************************************************************

 Orbital symmetries:
       Occupied  (A) (A) (A) (A) (A) (A) (A) (A) (A) (A)
       Virtual   (A) (A) (A) (A) (A) (A) (A) (A) (A) (A) (A) (A)
                 (A) (A) (A) (A) (A) (A) (A) (A) (A) (A) (A) (A)
                 (A) (A) (A) (A) (A) (A) (A) (A) (A) (A) (A) (A)
                 (A) (A) (A) (A) (A) (A) (A) (A) (A) (A) (A) (A)
                 (A) (A) (A) (A) (A) (A) (A) (A) (A) (A) (A) (A)
                 (A) (A) (A) (A) (A) (A) (A) (A) (A) (A) (A) (A)
                 (A) (A) (A) (A) (A) (A) (A) (A) (A) (A) (A) (A)
                 (A) (A) (A) (A) (A) (A) (A) (A) (A) (A) (A) (A)
                 (A) (A) (A) (A) (A) (A) (A) (A) (A) (A) (A) (A)
                 (A) (A) (A) (A) (A) (A) (A) (A) (A) (A) (A) (A)
                 (A) (A) (A) (A) (A) (A) (A) (A) (A) (A) (A) (A)
                 (A) (A) (A) (A) (A) (A) (A) (A) (A) (A) (A) (A)
                 (A) (A) (A) (A) (A) (A) (A)
 The electronic state is 1-A.
 Alpha  occ. eigenvalues --  -26.24691 -20.61538  -1.55010  -1.40192  -0.76438
 Alpha  occ. eigenvalues --   -0.73692  -0.62942  -0.60235  -0.60217  -0.55884
 Alpha virt. eigenvalues --    0.01778   0.04111   0.06681   0.11626   0.13927
 Alpha virt. eigenvalues --    0.16684   0.16785   0.19492   0.21915   0.22687
 Alpha virt. eigenvalues --    0.22695   0.24856   0.28208   0.28261   0.30392
 Alpha virt. eigenvalues --    0.36020   0.37923   0.40723   0.43574   0.43591
 Alpha virt. eigenvalues --    0.44201   0.46979   0.57492   0.59252   0.64292
 Alpha virt. eigenvalues --    0.67493   0.69745   0.72007   0.75664   0.77099
 Alpha virt. eigenvalues --    0.80500   0.84752   0.90325   0.90599   0.94030
 Alpha virt. eigenvalues --    0.94116   0.94678   0.95872   1.00182   1.01743
 Alpha virt. eigenvalues --    1.02537   1.04626   1.11190   1.14533   1.15092
 Alpha virt. eigenvalues --    1.17922   1.18991   1.20339   1.22119   1.25766
 Alpha virt. eigenvalues --    1.27609   1.29407   1.31112   1.35720   1.49754
 Alpha virt. eigenvalues --    1.53752   1.55758   1.58078   1.65133   1.74152
 Alpha virt. eigenvalues --    1.80608   1.84273   1.90930   1.94735   2.06107
 Alpha virt. eigenvalues --    2.09525   2.21541   2.34211   2.38334   2.40489
 Alpha virt. eigenvalues --    2.45336   2.46540   2.56501   2.65638   2.68576
 Alpha virt. eigenvalues --    2.73960   2.82135   2.84010   2.85819   2.86004
 Alpha virt. eigenvalues --    2.89363   2.97221   2.97232   3.03894   3.12644
 Alpha virt. eigenvalues --    3.12895   3.16355   3.27986   3.28027   3.47545
 Alpha virt. eigenvalues --    3.79208   3.82009   3.83799   3.85963   4.06288
 Alpha virt. eigenvalues --    4.15409   4.19911   4.20862   4.23174   4.24770
 Alpha virt. eigenvalues --    4.33316   4.43707   4.44353   4.46842   4.48985
 Alpha virt. eigenvalues --    4.55411   4.65100   4.68042   4.74623   4.87535
 Alpha virt. eigenvalues --    4.94132   4.96475   5.13597   5.24518   5.27655
 Alpha virt. eigenvalues --    5.29585   5.52618   5.58864   5.71092   5.91479
 Alpha virt. eigenvalues --    6.15120   6.15485   6.28958   6.53404   6.82107
 Alpha virt. eigenvalues --    6.91695   7.18996   7.27499   7.33358   7.34428
 Alpha virt. eigenvalues --    7.37627   7.49527   7.61607   7.85351   7.90089
 Alpha virt. eigenvalues --    8.14452   8.82089   8.87418   8.87423   9.01196
 Alpha virt. eigenvalues --    9.05422   9.40751   9.40977   9.41716   9.43045
 Alpha virt. eigenvalues --    9.65054   9.70716   9.71306   9.97095  15.25747
 Alpha virt. eigenvalues --   16.53570
          Condensed to atoms (all electrons):
               1          2          3          4          5
     1  O    7.895739   0.273857   0.273817   0.009431  -0.068183
     2  H    0.273857   0.483736   0.017626   0.005206   0.000410
     3  H    0.273817   0.017626   0.483753   0.005203   0.000426
     4  H    0.009431   0.005206   0.005203   0.472758   0.145822
     5  F   -0.068183   0.000410   0.000426   0.145822   9.336786
 Mulliken charges:
               1
     1  O   -0.384661
     2  H    0.219165
     3  H    0.219176
     4  H    0.361580
     5  F   -0.415261
 Sum of Mulliken charges =  -0.00000
 Mulliken charges with hydrogens summed into heavy atoms:
               1
     1  O    0.053681
     5  F   -0.053681
 Electronic spatial extent (au):  <R**2>=            157.4747
 Charge=             -0.0000 electrons
 Dipole moment (field-independent basis, Debye):
    X=              4.1397    Y=              0.0007    Z=              1.3462  Tot=              4.3531
 Quadrupole moment (field-independent basis, Debye-Ang):
   XX=            -11.8825   YY=             -9.7671   ZZ=            -12.4649
   XY=             -0.0003   XZ=              2.7037   YZ=             -0.0000
 Traceless Quadrupole moment (field-independent basis, Debye-Ang):
   XX=             -0.5110   YY=              1.6044   ZZ=             -1.0934
   XY=             -0.0003   XZ=              2.7037   YZ=             -0.0000
 Octapole moment (field-independent basis, Debye-Ang**2):
  XXX=             10.1788  YYY=              0.0006  ZZZ=              0.7061  XYY=              3.6691
  XXY=             -0.0013  XXZ=              4.5888  XZZ=             -0.5884  YZZ=             -0.0000
  YYZ=              1.0709  XYZ=             -0.0001
 Hexadecapole moment (field-independent basis, Debye-Ang**3):
 XXXX=           -129.4743 YYYY=             -9.4475 ZZZZ=            -10.6430 XXXY=             -0.0024
 XXXZ=              8.3305 YYYX=              0.0004 YYYZ=              0.0001 ZZZX=              1.3613
 ZZZY=             -0.0000 XXYY=            -18.1096 XXZZ=            -24.7192 YYZZ=             -3.3124
 XXYZ=             -0.0006 YYXZ=              1.9012 ZZXY=             -0.0001
 N-N= 3.460424822799D+01 E-N=-4.899791568859D+02  KE= 1.759230384706D+02
 1\1\GINC-N2293\FOpt\RMP2-FC\Aug-CC-pVTZ\F1H3O1\GDS001\25-Jun-2021\0\\#
  mp2/aug-cc-pVTZ opt freq=(vibrot,anharmonic)\\FH --- OH2\\0,1\O,1.236
 014976,-0.0000831581,-0.0914635635\H,1.6303916299,0.7642091135,0.34051
 45448\H,1.6306373633,-0.7642224806,0.3405570197\H,-0.4673295885,0.0001
 826784,-0.0478402623\F,-1.4050083807,-0.0000871532,0.0150922613\\Versi
 on=ES64L-G16RevA.03\State=1-A\HF=-176.1322008\MP2=-176.6841552\RMSD=4.
 540e-09\RMSF=6.837e-05\Dipole=1.5654925,0.0002474,0.4995008\PG=C01 [X(
 F1H3O1)]\\@


 THERE IS NOTHING NOBLE IN BEING SUPERIOR TO SOME OTHER MAN.
 TRUE NOBILITY IS BEING SUPERIOR TO YOUR FORMER SELF.

                                                   -- HINDU PROVERB
 Job cpu time:       0 days  0 hours 23 minutes 53.5 seconds.
 Elapsed time:       0 days  0 hours  1 minutes  7.2 seconds.
 File lengths (MBytes):  RWF=     72 Int=      0 D2E=      0 Chk=      8 Scr=      8
 Normal termination of Gaussian 16 at Fri Jun 25 15:10:23 2021.
 Link1:  Proceeding to internal job step number  2.
 ----------------------------------------------------------------------
 #N Geom=AllCheck Guess=TCheck SCRF=Check GenChk RMP2(FC)/Aug-CC-pVTZ F
 req
 ----------------------------------------------------------------------
 1/10=4,29=7,30=1,38=21,40=1,80=1/1,6,3;
 2/12=2,40=1/2;
 3/5=16,6=1,7=10,11=1,14=-4,25=1,30=1,70=2,71=2,116=1,140=1/1,2,3;
 4/5=101,69=2/1;
 5/5=2,38=6,98=1/2;
 8/6=3,8=1,10=1,19=11,30=-1/1;
 9/15=3,16=-3/6;
 11/6=1,8=1,15=11,17=12,24=-1,27=1,28=-2,29=300,32=6,42=3/1,2,10;
 10/6=2,21=1,60=-2/2;
 8/6=4,8=1,10=1,19=11,30=-1/11,4;
 10/5=1,20=4,60=-2/2;
 11/12=2,14=11,16=1,17=2,28=-2,42=3/2,10,12;
 6/7=2,8=2,9=2,10=2,22=-1/1;
 7/10=1,12=2,25=1,44=2,70=1,71=2/1,2,3,16;
 1/38=20,80=1/6(3);
 7/8=1,25=202,44=-1,70=1,71=1,92=10/16,17;
 1/10=4,30=1,38=20,80=1/3;
 99//99;
 3/5=16,6=1,7=10,11=1,14=-2,25=1,30=1,70=5,71=2,116=1,140=1/1,2,3;
 4/5=5,16=3,69=2/1;
 5/5=2,38=5,98=1/2;
 8/6=3,8=1,10=1,19=11,30=-1/1;
 9/15=3,16=-3/6;
 11/6=1,8=1,15=11,17=12,24=-1,27=1,28=-2,29=300,32=6,42=3/1,2,10;
 10/6=2,21=1,60=-2/2;
 8/6=4,8=1,10=1,19=11,30=-1/11,4;
 10/5=1,20=4,60=-2/2;
 11/12=2,14=11,16=1,17=2,28=-2,42=3/2,10,12;
 6/7=2,8=2,9=2,10=2,22=-1/1;
 7/7=1,10=1,12=2,25=1,44=2,70=1,71=1/1,2,3,16;
 1/38=20,80=1/6(-12);
 7/8=1,25=202,44=-1,70=1,71=1,92=10/16,17;
 1/10=4,30=1,38=20,80=1/3;
 99//99;
 Structure from the checkpoint file:  "hf_h2o_mp2_avtz_opt_anharm.chk"
 ----------
 FH --- OH2
 ----------
 Charge =  0 Multiplicity = 1
 Redundant internal coordinates found in file.  (old form).
 O,0,1.236014976,-0.0000831581,-0.0914635635
 H,0,1.6303916299,0.7642091135,0.3405145448
 H,0,1.6306373633,-0.7642224806,0.3405570197
 H,0,-0.4673295885,0.0001826784,-0.0478402623
 F,0,-1.4050083807,-0.0000871532,0.0150922613
 Recover connectivity data from disk.
 Numerical evaluation of third derivatives.
 Nuclear step= 0.010000 Angstroms, electric field step= 0.000333 atomic units, NStep=1.

 GradGradGradGradGradGradGradGradGradGradGradGradGradGradGradGradGradGrad
 Berny optimization.
 Initialization pass.
                           ----------------------------
                           !    Initial Parameters    !
                           ! (Angstroms and Degrees)  !
 --------------------------                            --------------------------
 ! Name  Definition              Value          Derivative Info.                !
 --------------------------------------------------------------------------------
 ! R1    R(1,2)                  0.9624         calculate D2E/DX2 analytically  !
 ! R2    R(1,3)                  0.9624         calculate D2E/DX2 analytically  !
 ! R3    R(1,4)                  1.7039         calculate D2E/DX2 analytically  !
 ! R4    R(4,5)                  0.9398         calculate D2E/DX2 analytically  !
 ! A1    A(2,1,3)              105.1303         calculate D2E/DX2 analytically  !
 ! A2    A(2,1,4)              113.4545         calculate D2E/DX2 analytically  !
 ! A3    A(3,1,4)              113.4859         calculate D2E/DX2 analytically  !
 ! A4    L(1,4,5,2,-1)         178.7507         calculate D2E/DX2 analytically  !
 ! A5    L(1,4,5,2,-2)         185.0506         calculate D2E/DX2 analytically  !
 ! D1    D(2,1,4,3)           -119.9171         calculate D2E/DX2 analytically  !
 --------------------------------------------------------------------------------
 Trust Radius=3.00D-01 FncErr=1.00D-07 GrdErr=1.00D-07 EigMax=2.50D+02 EigMin=1.00D-04
 Number of steps in this run=      2 maximum allowed number of steps=      2.
 GradGradGradGradGradGradGradGradGradGradGradGradGradGradGradGradGradGrad

                          Input orientation:                          
 ---------------------------------------------------------------------
 Center     Atomic      Atomic             Coordinates (Angstroms)
 Number     Number       Type             X           Y           Z
 ---------------------------------------------------------------------
      1          8           0        1.236015   -0.000083   -0.091464
      2          1           0        1.630392    0.764209    0.340515
      3          1           0        1.630637   -0.764222    0.340557
      4          1           0       -0.467330    0.000183   -0.047840
      5          9           0       -1.405008   -0.000087    0.015092
 ---------------------------------------------------------------------
                    Distance matrix (angstroms):
                    1          2          3          4          5
     1  O    0.000000
     2  H    0.962435   0.000000
     3  H    0.962433   1.528432   0.000000
     4  H    1.703903   2.266052   2.266414   0.000000
     5  F    2.643172   3.147015   3.147217   0.939788   0.000000
 Stoichiometry    FH3O
 Framework group  C1[X(FH3O)]
 Deg. of freedom     9
 Full point group                 C1      NOp   1
 Largest Abelian subgroup         C1      NOp   1
 Largest concise Abelian subgroup C1      NOp   1
                         Standard orientation:                         
[...]
 .00439719,-0.00000417,-0.00053920,-0.04778422,-0.03966515,-0.02695314,
 -0.01826342,0.00846090,0.00363460,-0.00054326,0.00000144,0.02377617,0.
 01997100,-0.00682746,-0.00000680,-0.02266361,-0.00000189,-0.00772618,0
 .00165733,0.00154436,0.00771196,0.00165312,-0.00154721,-0.00000654,-0.
 00484916,0.00001792,0.00283663,-0.00330360,0.00077021,-0.00169858,-0.0
 0331428,-0.00077292,-0.00169701,0.28828869,0.00013316,-0.00000311,0.00
 160474,0.00000446,-0.00127109,-0.00109874,0.00194423,0.00127338,-0.001
 09766,-0.00194259,0.00008292,-0.01818271,-0.00002813,0.00000938,0.0092
 4494,0.00000242,0.00163565,-0.00109288,-0.00109010,-0.00163193,-0.0010
 8982,0.00108958,0.00002756,-0.27682165,-0.00008210,-0.00004066,-0.0009
 4842,0.00000093,-0.00142421,0.00006193,0.00079797,0.00053197,0.0000626
 0,-0.00079792,0.00053268,-0.26893552,-0.00014837,0.01877437,0.26975941
 ,0.00014739,-0.00000094,-0.00099636,-0.00000113,0.00011199,0.00033510,
 -0.00030737,-0.00011306,0.00033441,0.00030771,-0.00007818,0.01874166,0
 .00002202,0.00008019,-0.01841482,-0.00002122,0.17075261,0.00010519,-0.
 48063549,0.06518443,0.00002970,0.15799453,-0.08152394,-0.00415072,-0.0
 3398448,0.06493363,0.00117725,0.23840620,0.00601400,0.00052285,-0.1715
 4767,-0.03377426,0.00300333,-0.08013717,0.05841757,-0.00516666,0.06969
 089,-0.08151606,0.00404161,-0.03398082,0.01459341,-0.00220798,-0.02446
 023,0.06492931,-0.00128696,0.23840581,-0.00604237,0.00223141,-0.066650
 12,0.00145913,-0.00043752,-0.17154677,-0.03376750,-0.00303193,-0.08013
 888,-0.02446059,-0.00146227,0.01131179,0.05841296,0.00519766,0.0696908
 4,-0.01087901,0.00000597,0.00617087,0.00257438,0.00095730,-0.00126413,
 0.00256967,-0.00095684,-0.00126704,0.02987121,0.00000455,0.00557386,-0
 .00000099,0.00187646,-0.00068229,0.00089452,-0.00187626,-0.00068325,-0
 .00089412,-0.00001820,-0.00688795,0.00329330,-0.00000141,0.00283064,-0
 .00013000,0.00092520,-0.00122655,-0.00012907,-0.00092460,-0.00122426,-
 0.01277287,-0.00000036,-0.00153751,0.00316640,-0.00000204,-0.00339000,
 -0.00057747,-0.00044943,0.00108105,-0.00057633,0.00044991,0.00108218,-
 0.02413625,0.00001344,0.00973865,0.02212365,-0.00000003,-0.00175038,-0
 .00000033,-0.00048000,0.00047388,-0.00019033,0.00048014,0.00047432,0.0
 0019066,0.00001177,0.00267962,0.00000118,-0.00001188,-0.00187744,-0.00
 093597,0.00000032,-0.00054912,0.00015751,-0.00031028,0.00036103,0.0001
 5716,0.00031017,0.00036051,0.00913318,0.00000096,0.00115769,-0.0085118
 7,-0.00000117,-0.00133012,0.00701552,0.00002203,-0.24130760,-0.1014858
 2,-0.00003822,-0.03788726,0.00082753,0.08827471,0.04915243,-0.00352845
 ,0.07676702,0.12840603,0.08077132,-0.07783258,-0.13492331,0.04632350,0
 .08801790,0.02207426,-0.04612757,-0.08486339,-0.01987492,0.00086851,-0
 .08827711,0.04916800,-0.00048086,0.00491233,0.00019730,-0.00358367,-0.
 07678145,0.12831624,-0.08073445,-0.00491573,0.00581609,-0.00413416,0.0
 7784761,-0.13483063,0.04634844,-0.08798106,0.02208353,0.00019524,0.004
 13272,-0.00121463,-0.04614760,0.08483061,-0.01988047,0.03037407,-0.000
 03462,0.00755281,0.00664421,-0.00745091,-0.00179335,0.00666222,0.00745
 659,-0.00179954,-2.15210423,0.00000119,-0.01836844,0.00000267,-0.00610
 785,0.00084207,0.00115022,0.00609990,0.00084124,-0.00115362,-0.0006465
 8,0.30704929,0.00675112,0.00000291,-0.00855467,-0.00379579,0.00012098,
 -0.00094598,-0.00379369,-0.00012413,-0.00094980,0.15583443,0.00004361,
 0.29010491,-0.03908563,0.00001499,-0.00438741,-0.00346242,0.00360412,0
 .00140012,-0.00346620,-0.00360702,0.00140345,2.10842373,0.00065333,-0.
 15499607,-2.06240948,-0.00000879,0.00295378,-0.00000133,0.00058144,-0.
 00014088,-0.00017058,-0.00058274,-0.00014294,0.00017135,0.00067552,-0.
 29036417,-0.00004337,-0.00066542,0.28769421,0.00206276,-0.00000153,0.0
 0228414,0.00057570,-0.00016163,-0.00003873,0.00057598,0.00016212,-0.00
 003863,-0.15979435,-0.00004289,-0.27965446,0.15657991,0.00004393,0.277
 44768,-0.15739272,0.00009926,-1.61222692,-0.58068471,-0.00017870,-0.26
 092133,0.07989845,0.50908592,0.29009625,-0.06693986,0.46997727,0.80393
 483,0.51808873,-0.49111383,-0.84404835,0.29069842,0.56266118,0.1292296
 1,-0.29050329,-0.54003158,-0.11469639,0.08019958,-0.50919089,0.2902252
 2,-0.01416708,0.02030837,-0.00070534,-0.06723502,-0.47007904,0.8033775
 4,-0.51790984,-0.02032793,0.04151444,-0.02236547,0.49123737,-0.8434930
 5,0.29083540,-0.56248148,0.12926062,-0.00071034,0.02236053,-0.01384326
 ,-0.29063605,0.53985681,-0.11472898,-0.00723915,0.00000758,0.00016383,
 0.00174405,0.00215726,0.00078586,0.00173672,-0.00216009,0.00078737,0.3
 3221787,0.00000203,0.00617114,-0.00000022,0.00286586,-0.00205033,-0.00
 031285,-0.00286517,-0.00204858,0.00031277,0.00010176,-0.04907670,-0.00
 044132,-0.00000143,0.00325497,0.00136402,-0.00072553,-0.00112951,0.001
 36261,0.00072659,-0.00112776,-0.02824933,-0.00000683,-0.04608363,0.004
 53383,-0.00000187,0.00019941,-0.00053556,-0.00132906,-0.00027565,-0.00
 053419,0.00132969,-0.00027638,-0.32845949,-0.00010447,0.02596402,0.324
 99541,0.00000049,-0.00125659,0.00000002,-0.00051003,0.00064941,0.00004
 872,0.00051033,0.00064965,-0.00004863,-0.00010651,0.04700447,0.0000072
 0,0.00010571,-0.04704694,-0.00040779,0.00000043,-0.00082387,-0.0002466
 5,0.00030783,0.00043955,-0.00024644,-0.00030808,0.00043938,0.02651228,
 0.00000714,0.04508593,-0.02561140,-0.00000731,-0.04514099,0.00035968,-
 1.06307709,-0.00021123,0.00028980,-1.16629316,0.00009519,0.07516086,0.
 53020132,0.31634556,-0.07544247,0.53165368,0.81629406,0.58230317,-0.52
 220630,-0.81555363,0.31881979,0.58316475,0.12916052,-0.31776420,-0.572
 81643,-0.12881538,-0.07552013,0.53055232,-0.31663656,0.00000439,-0.009
 01918,-0.00036281,0.07579024,0.53199096,-0.81608291,0.58237044,-0.0090
 1371,-0.00000819,-0.00956891,-0.52255054,0.81535945,-0.31910918,0.5832
 4216,-0.12925613,0.00036718,-0.00957398,0.00000206,0.31805041,-0.57288
 807,0.12890764,-0.00000324,0.00109139,0.00000218,-0.00099308,-0.000200
 56,-0.00079794,0.00099676,-0.00019838,0.00079586,0.00000854,-0.0008273
 9,-0.00000010,0.00270896,0.00112820,-0.00091208,-0.00134598,0.00112731
 ,0.00091164,-0.00134689,-0.00089291,0.00000002,-0.00000034,-0.00021548
 ,0.00000057,0.00152741,0.00014480,-0.00044492,-0.00152701,0.00014370,0
 .00044414,-0.00000060,-0.00007724,-0.00000018,0.00000283,0.00123206,-0
 .00000098,0.00127030,-0.00022764,0.00010517,-0.00127127,-0.00022833,-0
 .00010427,-0.00000899,-0.00053520,0.00000055,0.00000713,0.00025985,0.0
 0000018,-0.00108941,-0.00010952,0.00017985,0.00056656,-0.00010991,-0.0
 0017999,0.00056678,0.00020046,0.00000052,0.00000421,-0.00024088,-0.000
 00056,-0.00000007,0.00010173,-0.00000016,-0.00047594,-0.00005757,0.000
 09773,0.00047596,-0.00005717,-0.00009770,0.00000051,0.00006115,0.00000
 039,-0.00000046,-0.00004814,-0.00000026,0.02448210,0.00103204,-0.23659
 725,-0.15429868,0.00090581,-0.01528345,-0.00825280,0.07164640,0.076659
 88,0.00779961,0.06341466,0.11705807,0.07267018,-0.06735703,-0.11139026
 ,0.07632344,0.08287190,0.00705431,-0.07009328,-0.07728828,-0.00658041,
 -0.00846605,-0.07267709,0.07743437,0.00085339,0.00392348,-0.00586524,0
 .00801406,-0.06444875,0.11846614,-0.07357286,-0.00390953,-0.00533279,-
 0.00489631,0.06837227,-0.11279094,0.07713734,-0.08377347,0.00724460,-0
 .00588483,0.00489937,0.00001036,-0.07088492,0.07818121,-0.00676966,0.0
 0016552,-0.00000029,0.00016815,-0.00084361,0.00004485,-0.00062648,-0.0
 0085480,-0.00003863,-0.00062780,-0.02495222,0.00001166,0.00074146,-0.0
 0000508,-0.00047004,-0.00055448,-0.00099381,0.00047109,-0.00056226,0.0
 0100224,-0.00004606,0.00229783,-0.00071497,-0.00000757,0.00045722,-0.0
 0077594,-0.00036882,-0.00067574,-0.00077751,0.00037958,-0.00067705,0.0
 0848545,-0.00002930,0.00736813,-0.00792879,-0.00000106,0.00003628,0.00
 044342,-0.00002596,0.00026156,0.00045341,0.00002465,0.00026022,0.02648
 512,0.00003335,-0.00621704,-0.01945317,-0.00000961,0.00033156,0.000001
 94,0.00009020,0.00021946,0.00030651,-0.00008976,0.00021985,-0.00030935
 ,0.00004014,-0.00192255,0.00002610,-0.00003097,0.00115167,0.00155286,0
 .00000333,0.00052730,0.00009417,0.00008754,0.00019148,0.00009331,-0.00
 009163,0.00019175,-0.00739932,0.00002595,-0.00647255,0.00565898,-0.000
 02520,0.00556200,0.13415496,0.00019365,-0.67678460,-0.27830303,0.00001
 073,-0.12560894,-0.06878699,0.24329348,0.13934281,0.08508015,0.2311384
 8,0.33814700,0.19883407,-0.23716345,-0.37292159,0.13982850,0.22662282,
 0.06222597,-0.14528108,-0.21204414,-0.05456735,-0.06863147,-0.24347993
 ,0.13946664,-0.01682583,0.00672842,0.00531368,0.08492966,-0.23132835,0
 .33803306,-0.19884436,-0.00674536,0.03575977,-0.01406311,0.23737160,-0
 .37281356,0.13996660,-0.22663496,0.06225873,0.00530741,0.01406456,-0.0
 0737923,-0.14541491,0.21205694,-0.05459708,0.00424830,-0.00001535,-0.0
 0090314,-0.00033335,-0.00172408,0.00010582,-0.00033651,0.00172782,0.00
 010671,-0.22451244,-0.00001185,0.00285837,-0.00000113,0.00121469,-0.00
 200877,-0.00109384,-0.00122203,-0.00200311,0.00109114,-0.00004045,0.07
 707514,-0.00241844,0.00000239,0.00221341,0.00109491,-0.00121988,-0.000
 44949,0.00109939,0.00121406,-0.00045365,0.01758286,0.00001308,0.022626
 05,-0.00098482,0.00000816,0.00039672,0.00086602,0.00102063,0.00003309,
 0.00086416,-0.00102571,0.00003419,0.22093400,0.00005963,-0.01735871,-0
 .22167938,0.00000807,-0.00225381,0.00000069,-0.00059937,0.00102360,0.0
 0057827,0.00060195,0.00102384,-0.00057767,0.00005205,-0.07592162,-0.00
 000966,-0.00006270,0.07612799,0.00092636,-0.00000098,-0.00108917,-0.00
 046404,0.00036539,0.00017009,-0.00046480,-0.00036354,0.00017123,-0.016
 89225,-0.00000925,-0.02393632,0.01689472,0.00000838,0.02468415,0.04920
 596,-0.00089870,-0.61004137,-0.40301359,-0.00095240,-0.03987537,-0.020
 61119,0.18611178,0.20049792,0.01646769,0.16558260,0.30443670,0.1902673
 6,-0.17636544,-0.29042643,0.20193317,0.21550977,0.01815514,-0.18516726
 ,-0.20265646,-0.01606642,-0.02023235,-0.18521844,0.19984071,0.00328687
 ,0.01088997,-0.01564485,0.01608759,-0.16468405,0.30286478,-0.18931626,
 -0.01089798,-0.01369377,-0.01243352,0.17547861,-0.28885452,0.20123384,
 -0.21455877,0.01798314,-0.01562591,0.01242063,-0.00094242,-0.18449057,
 0.20172084,-0.01589678,-0.00595290,0.00001009,0.00294516,0.00108836,-0
 .00029066,-0.00179180,0.00109266,0.00028098,-0.00178335,-0.06895813,-0
 .00000078,0.00346287,0.00000353,0.00160479,-0.00062496,-0.00085839,-0.
 00159917,-0.00062232,0.00085332,-0.00002735,0.00592881,-0.00124829,0.0
 0000235,0.00517330,0.00097417,-0.00024931,-0.00186409,0.00097204,0.000
 24542,-0.00185940,0.00593267,0.00004227,0.02276097,-0.00240953,-0.0000
 0472,-0.00027020,-0.00023173,0.00018354,0.00067075,-0.00023476,-0.0001
 7757,0.00066598,0.07273001,0.00002251,-0.00663059,-0.06985399,0.000000
 93,-0.00072300,-0.00000224,-0.00045313,0.00030846,0.00043861,0.0004490
 3,0.00030583,-0.00043603,0.00002694,-0.00814440,-0.00004074,-0.0000237
 6,0.00825311,0.00109486,-0.00000096,-0.00143622,-0.00067891,0.00021778
 ,0.00071779,-0.00067733,-0.00021649,0.00071548,-0.00530268,-0.00004073
 ,-0.02421077,0.00556407,0.00004040,0.02421371,-0.02045765,0.00003785,-
 0.05321852,-0.01686030,0.00006057,-0.01077352,0.00363435,0.00962516,0.
 01263529,-0.00051320,0.01268993,0.02485763,0.01792760,-0.01131716,-0.0
 2405049,0.01518598,0.02164867,0.00282904,-0.01554145,-0.01948625,-0.00
 287201,0.00365479,-0.00966400,0.01268169,0.00025834,-0.00019893,-0.001
 14520,-0.00052354,-0.01272945,0.02491610,-0.01798607,0.00019670,-0.000
 57787,-0.00163274,0.01135794,-0.02410797,0.01522038,-0.02170283,0.0028
 2756,-0.00114239,0.00163458,-0.00115192,-0.01558562,0.01953857,-0.0028
 7233,0.01666628,0.00000096,-0.01314191,-0.00379024,-0.00048136,0.00180
 493,-0.00380043,0.00048245,0.00181581,-1.41951024,-0.00000141,0.004217
 33,-0.00000098,0.00194137,-0.00032475,-0.00102937,-0.00193818,-0.00032
 435,0.00102790,-0.00045746,0.15588690,-0.01344000,-0.00001049,0.003002
 73,0.00442558,0.00023880,0.00068120,0.00442702,-0.00023185,0.00068486,
 0.11984758,-0.00006917,0.47170766,-0.00349780,0.00000004,0.00468523,0.
 00041075,-0.00069248,-0.00030426,0.00041084,0.00069236,-0.00030819,1.4
 1043464,0.00045568,-0.11526017,-1.40775846,0.00000308,-0.00077255,-0.0
 0000113,-0.00044607,0.00009549,0.00049970,0.00044318,0.00009409,-0.000
 49821,0.00045541,-0.15945513,0.00007271,-0.00045560,0.16003809,-0.0001
 0606,0.00000408,0.00211417,-0.00037703,-0.00031474,0.00051368,-0.00037
 788,0.00031209,0.00051183,-0.11032641,0.00007163,-0.47607645,0.1111873
 8,-0.00007306,0.47293673,0.00433029,-0.00001720,-0.13815938,-0.0377569
 3,-0.00002233,-0.02847865,-0.00343147,0.02976557,0.01699527,0.01072010
 ,0.03696736,0.05755458,0.03291167,-0.03648286,-0.06125730,0.02052515,0
 .03722715,0.01189247,-0.01805758,-0.03396947,-0.01123302,-0.00335373,-
 0.02977573,0.01699465,-0.00219783,0.00012768,0.00012449,0.01069515,-0.
 03695269,0.05749126,-0.03289083,-0.00012083,0.00486312,-0.00137395,0.0
 3646615,-0.06119437,0.02047668,-0.03720704,0.01188420,0.00014179,0.001
 36325,-0.00104921,-0.01804249,0.03395794,-0.01122438,0.00244363,0.0000
 4675,0.00281657,-0.00625374,-0.00029724,-0.00220748,-0.00629241,0.0002
 8114,-0.00218768,-1.26579175,-0.00002216,0.01978570,0.00000027,0.00733
 271,-0.00098861,-0.00139876,-0.00731283,-0.00098777,0.00140105,-0.0003
 4151,0.42247322,-0.00424294,-0.00001100,0.00582495,0.00169497,-0.00047
 894,0.00020395,0.00167911,0.00048939,0.00020195,0.09628804,0.00012069,
 0.13342312,0.00001126,-0.00001939,0.00095043,0.00116294,-0.00031494,-0
 .00038458,0.00114882,0.00032622,-0.00038830,1.27589428,0.00034379,-0.0
 9541918,-1.27821732,0.00002468,0.00332784,0.00000121,-0.00049459,-0.00
 017178,-0.00048498,0.00049473,-0.00017224,0.00048480,0.00031087,-0.440
 28254,-0.00012014,-0.00033569,0.43729872,0.00099803,0.00001321,-0.0011
 2298,-0.00077446,0.00017348,0.00018581,-0.00075576,-0.00018255,0.00018
 744,-0.09470944,-0.00012325,-0.13965397,0.09524163,0.00011910,0.140403
 67,-0.31236834,-0.00000772,-0.54823037,-0.36519529,-0.00008169,-0.3658
 2208,0.15474334,0.31205179,0.18131080,-0.12785108,0.21133821,0.2728591
 2,0.22462845,-0.26122509,-0.25569573,0.18260426,0.33393336,0.18321507,
 -0.15479389,-0.27932080,-0.15728594,0.15491188,-0.31204702,0.18139171,
 -0.02490610,0.05052859,-0.02724851,-0.12802073,-0.21132818,0.27262486,
 -0.22454616,-0.05053971,-0.01591286,-0.05459415,0.26123072,-0.25545968
 ,0.18271088,-0.33384988,0.18323944,-0.02726193,0.05458320,-0.02670855,
 -0.15488728,0.27924788,-0.15730886,0.00510029,0.00000454,0.00274355,-0
 .00301246,-0.00106687,-0.00051226,-0.00301071,0.00105991,-0.00051139,-
 0.00035937,-0.00000084,0.00342610,-0.00000059,-0.00042234,-0.00152845,
 -0.00010666,0.00042325,-0.00152990,0.00010699,-0.00000398,-0.00112271,
 -0.00019619,-0.00000255,-0.00092799,0.00116013,0.00011796,0.00099846,0
 .00115931,-0.00011572,0.00099739,-0.00273469,0.00000123,-0.00134630,-0
 .00238717,-0.00000159,-0.00025076,0.00102631,0.00042517,-0.00004960,0.
 00102566,-0.00042274,-0.00005028,0.00128227,0.00000391,0.00061144,-0.0
 0094706,-0.00000147,-0.00067970,0.,0.00013536,0.00027793,0.00008825,-0
 .00013554,0.00027758,-0.00008818,0.00000639,0.00075496,-0.00000092,-0.
 00000475,-0.00063078,0.00007634,0.00000076,0.00029555,-0.00041511,-0.0
 0000880,-0.00021903,-0.00041523,0.00000814,-0.00021942,0.00101480,-0.0
 0000097,0.00027845,-0.00026080,0.00000087,-0.00013557,-0.00337589,0.00
 004149,0.14005106,0.01509091,-0.00000172,0.01431721,-0.01133835,-0.016
 88077,-0.01040015,0.00211366,-0.02565439,-0.05156126,-0.03756158,0.028
 24224,0.05115368,-0.01505126,-0.04064725,0.00118229,0.01483089,0.03755
 942,-0.00005744,-0.01135213,0.01689083,-0.01040286,0.00235835,0.002484
 57,0.00066767,0.00209982,0.02563756,-0.05152416,0.03756189,-0.00248735
 ,-0.00105554,0.00044543,-0.02822962,0.05112137,-0.01503527,0.04064675,
 0.00118701,0.00066455,-0.00044582,0.00160749,0.01482505,-0.03755349,-0
 .00005447,0.03251639,-0.00006844,0.01013848,0.00749863,-0.00613148,-0.
 00164258,0.00752369,0.00614032,-0.00165158,7.33338173,-0.00002051,-0.0
 3918546,0.00000373,-0.00917596,0.00174100,0.00263231,0.00915682,0.0017
 4032,-0.00263895,0.00248488,-1.49328966,0.01330368,0.00000411,-0.01825
 238,-0.00547532,0.00066422,-0.00257135,-0.00546913,-0.00067064,-0.0025
 7861,-0.58414336,-0.00015533,-1.46844294,-0.00645003,0.00001689,-0.004
 42638,-0.00063229,0.00105907,0.00119528,-0.00062972,-0.00106091,0.0011
 9724,-7.38092044,-0.00244523,0.58178413,7.38863245,-0.00000414,0.00221
 981,-0.00000232,0.00030184,-0.00027787,0.00001009,-0.00030260,-0.00028
 198,-0.00000849,-0.00242528,1.52899380,0.00015764,0.00243018,-1.530653
 77,0.00169194,-0.00000189,0.00156586,0.00038003,-0.00021624,-0.0001609
 9,0.00037927,0.00021682,-0.00016142,0.57729904,0.00015824,1.49184528,-
 0.57975028,-0.00015693,-1.49308877,-0.00145487,0.00004265,3.61622471,1
 .44006302,0.00078357,0.27171720,-0.00024752,-1.27001456,-0.72007075,-0
 .03005650,-1.21458767,-1.80774188,-1.33833480,1.24248830,1.84577215,-0
 .72041289,-1.40300409,-0.13518494,0.72201179,1.37021223,0.10307829,-0.
 00105979,1.26997733,-0.72023568,0.03184944,-0.02872875,-0.00131235,-0.
 02924941,1.21454594,-1.80596708,1.33755215,0.02876113,-0.03970554,0.03
 228142,-1.24248327,1.84399759,-0.72058973,1.40221969,-0.13527451,-0.00
 130577,-0.03226974,0.03124250,0.72218207,-1.36944051,0.10316999,0.0010
 0896,-0.00000780,0.00039212,-0.00206106,0.00149604,-0.00032935,-0.0020
 5523,-0.00148951,-0.00032552,0.18969146,-0.00000063,-0.00265989,-0.000
 00046,-0.00136358,0.00201870,0.00057799,0.00136334,0.00202010,-0.00057
 712,0.00006225,-0.03928938,0.00155668,0.00000073,-0.00135546,-0.000713
 80,0.00050154,0.00110010,-0.00071185,-0.00050220,0.00109739,-0.0164879
 6,-0.00000509,-0.03749205,0.00175320,0.00000238,-0.00014872,0.00051564
 ,-0.00066792,0.00004281,0.00051499,0.00066571,0.00003895,-0.18658413,-
 0.00006138,0.01635692,0.18380026,-0.00000030,0.00014413,-0.00000046,0.
 00012872,-0.00034343,-0.00006754,-0.00012865,-0.00034506,0.00006769,-0
 .00006099,0.03791047,0.00000502,0.00006122,-0.03736614,-0.00061709,0.0
 0000010,0.00009771,0.00007853,-0.00010922,-0.00023595,0.00007781,0.000
 10914,-0.00023537,0.01675071,0.00000469,0.03665003,-0.01628996,-0.0000
 0471,-0.03627645,0.01649453,-0.00117192,3.62005565,1.66503983,-0.00053
 339,0.32556900,-0.00870606,-1.36428422,-0.83103775,0.00930283,-1.36840
 164,-1.80889350,-1.50247982,1.36621082,1.80368391,-0.83202951,-1.50031
 850,-0.16188132,0.82625092,1.50097259,0.16005103,-0.00958346,1.3654606
 9,-0.83197598,-0.00006363,0.00177175,0.00503330,0.01017916,1.36957425,
 -1.80872166,1.50301187,-0.00178097,0.00400803,-0.00151466,-1.36737818,
 1.80351114,-0.83296711,1.50085058,-0.16211329,0.00503284,0.00150387,0.
 00117131,0.82718848,-1.50149284,0.16028443,0.00106641,-0.00000796,-0.0
 0273743,0.00004881,0.00042667,0.00094344,0.00005025,-0.00041927,0.0009
 4532,-0.00205998,-0.00000032,-0.00332042,0.00000218,-0.00007464,0.0016
 1745,0.00140538,0.00007489,0.00161862,-0.00140691,-0.00000041,0.000182
 56,0.00024851,0.00000030,-0.00223865,-0.00051010,-0.00002818,0.0009384
 6,-0.00050954,0.00002855,0.00093675,0.00117701,-0.00000053,0.00050359,
 0.00072855,0.00000341,0.00071134,-0.00058194,-0.00000760,-0.00019816,-
 0.00058232,0.00000416,-0.00019953,0.00089452,0.00000047,-0.00040588,-0
 .00045884,-0.00000038,0.00087993,-0.00000083,-0.00007099,-0.00041590,-
 0.00054480,0.00007085,-0.00041612,0.00054531,0.00000097,-0.00009822,-0
 .00000015,-0.00000045,0.00005028,-0.00029172,0.00000102,0.00066425,0.0
 0026409,0.00003155,-0.00027949,0.00026374,-0.00003292,-0.00027920,-0.0
 0032834,-0.00000012,-0.00014015,0.00009223,0.00000048,0.00003455\\@


 I FIND THAT THE THREE TRULY GREAT TIMES FOR THINKING THOUGHTS
 ARE WHEN I AM STANDING IN THE SHOWER, SITTING ON THE JOHN, OR WALKING.

                                    -- COLIN FLETCHER
 Job cpu time:       0 days 17 hours 29 minutes 12.0 seconds.
 Elapsed time:       0 days  0 hours 38 minutes 16.7 seconds.
 File lengths (MBytes):  RWF=   2400 Int=      0 D2E=      0 Chk=     48 Scr=      8
 Normal termination of Gaussian 16 at Fri Jun 25 15:48:56 2021.
