 Entering Gaussian System, Link 0=g16
 Input=hf_h2o_mp2_opt_anharm.gjf
 Output=hf_h2o_mp2_opt_anharm.log
 Initial command:
 /sw/contrib/gaussian/g16/A03/g16/l1.exe "/gscratch/scrubbed/gds001/Gau-25131.inp" -scrdir="/gscratch/scrubbed/gds001/"
 Entering Link 1 = /sw/contrib/gaussian/g16/A03/g16/l1.exe PID=     25132.
  
 Copyright (c) 1988,1990,1992,1993,1995,1998,2003,2009,2016,
            Gaussian, Inc.  All Rights Reserved.
  
 This is part of the Gaussian(R) 16 program.  It is based on
 the Gaussian(R) 09 system (copyright 2009, Gaussian, Inc.),
 the Gaussian(R) 03 system (copyright 2003, Gaussian, Inc.),
 the Gaussian(R) 98 system (copyright 1998, Gaussian, Inc.),
 the Gaussian(R) 94 system (copyright 1995, Gaussian, Inc.),
 the Gaussian 92(TM) system (copyright 1992, Gaussian, Inc.),
 the Gaussian 90(TM) system (copyright 1990, Gaussian, Inc.),
 the Gaussian 88(TM) system (copyright 1988, Gaussian, Inc.),
 the Gaussian 86(TM) system (copyright 1986, Carnegie Mellon
 University), and the Gaussian 82(TM) system (copyright 1983,
 Carnegie Mellon University). Gaussian is a federally registered
 trademark of Gaussian, Inc.
  
 This software contains proprietary and confidential information,
 including trade secrets, belonging to Gaussian, Inc.
  
 This software is provided under written license and may be
 used, copied, transmitted, or stored only in accord with that
 written license.
  
 The following legend is applicable only to US Government
 contracts under FAR:
  
                    RESTRICTED RIGHTS LEGEND
  
 Use, reproduction and disclosure by the US Government is
 subject to restrictions as set forth in subparagraphs (a)
 and (c) of the Commercial Computer Software - Restricted
 Rights clause in FAR 52.227-19.
  
 Gaussian, Inc.
 340 Quinnipiac St., Bldg. 40, Wallingford CT 06492
  
  
 ---------------------------------------------------------------
 Warning -- This program may not be used in any manner that
 competes with the business of Gaussian, Inc. or will provide
 assistance to any competitor of Gaussian, Inc.  The licensee
 of this program is prohibited from giving any competitor of
 Gaussian, Inc. access to this program.  By using this program,
 the user acknowledges that Gaussian, Inc. is engaged in the
 business of creating and licensing software in the field of
 computational chemistry and represents and warrants to the
 licensee that it is not a competitor of Gaussian, Inc. and that
 it will not use this program in any manner prohibited above.
 ---------------------------------------------------------------
  

 Cite this work as:
 Gaussian 16, Revision A.03,
 M. J. Frisch, G. W. Trucks, H. B. Schlegel, G. E. Scuseria, 
 M. A. Robb, J. R. Cheeseman, G. Scalmani, V. Barone, 
 G. A. Petersson, H. Nakatsuji, X. Li, M. Caricato, A. V. Marenich, 
 J. Bloino, B. G. Janesko, R. Gomperts, B. Mennucci, H. P. Hratchian, 
 J. V. Ortiz, A. F. Izmaylov, J. L. Sonnenberg, D. Williams-Young, 
 F. Ding, F. Lipparini, F. Egidi, J. Goings, B. Peng, A. Petrone, 
 T. Henderson, D. Ranasinghe, V. G. Zakrzewski, J. Gao, N. Rega, 
 G. Zheng, W. Liang, M. Hada, M. Ehara, K. Toyota, R. Fukuda, 
 J. Hasegawa, M. Ishida, T. Nakajima, Y. Honda, O. Kitao, H. Nakai, 
 T. Vreven, K. Throssell, J. A. Montgomery, Jr., J. E. Peralta, 
 F. Ogliaro, M. J. Bearpark, J. J. Heyd, E. N. Brothers, K. N. Kudin, 
 V. N. Staroverov, T. A. Keith, R. Kobayashi, J. Normand, 
 K. Raghavachari, A. P. Rendell, J. C. Burant, S. S. Iyengar, 
 J. Tomasi, M. Cossi, J. M. Millam, M. Klene, C. Adamo, R. Cammi, 
 J. W. Ochterski, R. L. Martin, K. Morokuma, O. Farkas, 
 J. B. Foresman, and D. J. Fox, Gaussian, Inc., Wallingford CT, 2016.
 
 ******************************************
 Gaussian 16:  ES64L-G16RevA.03 25-Dec-2016
                 8-Sep-2020 
 ******************************************
 %nprocshared=28
 Will use up to   28 processors via shared memory.
 %mem=41GB
 %chk=hf_h2o.chk
 ------------------------------------------------------
 # MP2/aug-cc-pVDZ Opt=(Tight) Freq=(vibrot,anharmonic)
 ------------------------------------------------------
 1/7=10,18=20,19=15,38=1,80=1/1,3;
 2/9=110,12=2,17=6,18=5,40=1/2;
 3/5=16,7=10,11=9,25=1,30=1,71=1/1,2,3;
 4//1;
 5/5=2,38=5/2;
 8/6=4,10=1/1;
 9/15=2,16=-3/6;
 10/5=1/2;
 6/7=2,8=2,9=2,10=2/1;
 7/12=2/1,2,3,16;
 1/7=10,18=20,19=15,80=1/3(2);
 2/9=110/2;
 99//99;
 2/9=110/2;
 3/5=16,7=10,11=9,25=1,30=1,71=1/1,2,3;
 4/5=5,16=3,69=1/1;
 5/5=2,38=5/2;
 8/6=4,10=1/1;
 9/15=2,16=-3/6;
 10/5=1/2;
 7/12=2/1,2,3,16;
 1/7=10,18=20,19=15,80=1/3(-8);
 2/9=110/2;
 6/7=2,8=2,9=2,10=2/1;
 99//99;
 ------
 hf_h2o
 ------
 Symbolic Z-matrix:
 Charge =  0 Multiplicity = 1
 O                     1.24113  0.        -0.09643 
 H                     1.63552   0.76538   0.34322 
 H                     1.63557  -0.76535   0.34323 
 H                    -0.47344  -0.00003  -0.04793 
 F                    -1.41408   0.        0.01477 
 
 Add virtual bond connecting atoms H4         and O1         Dist= 3.24D+00.

 GradGradGradGradGradGradGradGradGradGradGradGradGradGradGradGradGradGrad
 Berny optimization.
 Initialization pass.
                           ----------------------------
                           !    Initial Parameters    !
                           ! (Angstroms and Degrees)  !
 --------------------------                            --------------------------
 ! Name  Definition              Value          Derivative Info.                !
 --------------------------------------------------------------------------------
 ! R1    R(1,2)                  0.9668         estimate D2E/DX2                !
 ! R2    R(1,3)                  0.9668         estimate D2E/DX2                !
 ! R3    R(1,4)                  1.7153         estimate D2E/DX2                !
 ! R4    R(4,5)                  0.9427         estimate D2E/DX2                !
 ! A1    A(2,1,3)              104.6844         estimate D2E/DX2                !
 ! A2    A(2,1,4)              113.2621         estimate D2E/DX2                !
 ! A3    A(3,1,4)              113.2634         estimate D2E/DX2                !
 ! A4    L(1,4,5,2,-1)         178.815          estimate D2E/DX2                !
 ! A5    L(1,4,5,2,-2)         184.6206         estimate D2E/DX2                !
 ! D1    D(2,1,4,3)           -119.0226         estimate D2E/DX2                !
 --------------------------------------------------------------------------------
 Trust Radius=3.00D-01 FncErr=1.00D-07 GrdErr=1.00D-07 EigMax=2.50D+02 EigMin=1.00D-04
 Number of steps in this run=     20 maximum allowed number of steps=    100.
 GradGradGradGradGradGradGradGradGradGradGradGradGradGradGradGradGradGrad

                          Input orientation:                          
 ---------------------------------------------------------------------
 Center     Atomic      Atomic             Coordinates (Angstroms)
 Number     Number       Type             X           Y           Z
 ---------------------------------------------------------------------
      1          8           0        1.241132   -0.000002   -0.096430
      2          1           0        1.635523    0.765382    0.343215
      3          1           0        1.635569   -0.765350    0.343233
      4          1           0       -0.473439   -0.000032   -0.047926
      5          9           0       -1.414079    0.000001    0.014768
 ---------------------------------------------------------------------
                    Distance matrix (angstroms):
                    1          2          3          4          5
     1  O    0.000000
     2  H    0.966770   0.000000
     3  H    0.966769   1.530732   0.000000
     4  H    1.715257   2.277404   2.277418   0.000000
     5  F    2.657538   3.161291   3.161330   0.942727   0.000000
 Stoichiometry    FH3O
 Framework group  C1[X(FH3O)]
 Deg. of freedom     9
 Full point group                 C1      NOp   1
 Largest Abelian subgroup         C1      NOp   1
 Largest concise Abelian subgroup C1      NOp   1
                         Standard orientation:                         
 ---------------------------------------------------------------------
 Center     Atomic      Atomic             Coordinates (Angstroms)
 Number     Number       Type             X           Y           Z
 ---------------------------------------------------------------------
      1          8           0        1.241132   -0.000002   -0.096430
      2          1           0        1.635523    0.765382    0.343215
      3          1           0        1.635569   -0.765350    0.343233
      4          1           0       -0.473439   -0.000032   -0.047926
      5          9           0       -1.414079    0.000001    0.014768
 ---------------------------------------------------------------------
 Rotational constants (GHZ):         327.9405963           7.4139465           7.3257777
 Standard basis: Aug-CC-pVDZ (5D, 7F)
 There are    77 symmetry adapted cartesian basis functions of A   symmetry.
 There are    73 symmetry adapted basis functions of A   symmetry.
    73 basis functions,   119 primitive gaussians,    77 cartesian basis functions
    10 alpha electrons       10 beta electrons
       nuclear repulsion energy        34.4382267450 Hartrees.
 NAtoms=    5 NActive=    5 NUniq=    5 SFac= 1.00D+00 NAtFMM=   60 NAOKFM=F Big=F
 Integral buffers will be    131072 words long.
 Raffenetti 1 integral format.
 Two-electron integral symmetry is turned on.
 One-electron integrals computed using PRISM.
 NBasis=    73 RedAO= T EigKep=  1.55D-03  NBF=    73
 NBsUse=    73 1.00D-06 EigRej= -1.00D+00 NBFU=    73
 ExpMin= 2.97D-02 ExpMax= 1.47D+04 ExpMxC= 5.03D+02 IAcc=3 IRadAn=         5 AccDes= 0.00D+00
 Harris functional with IExCor=  205 and IRadAn=       5 diagonalized for initial guess.
 HarFok:  IExCor=  205 AccDes= 0.00D+00 IRadAn=         5 IDoV= 1 UseB2=F ITyADJ=14
 ICtDFT=  3500011 ScaDFX=  1.000000  1.000000  1.000000  1.000000
 FoFCou: FMM=F IPFlag=           0 FMFlag=      100000 FMFlg1=           0
         NFxFlg=           0 DoJE=T BraDBF=F KetDBF=T FulRan=T
         wScrn=  0.000000 ICntrl=       500 IOpCl=  0 I1Cent=   200000004 NGrid=           0
         NMat0=    1 NMatS0=      1 NMatT0=    0 NMatD0=    1 NMtDS0=    0 NMtDT0=    0
 Petite list used in FoFCou.
 Keep R1 ints in memory in canonical form, NReq=9491052.
 Requested convergence on RMS density matrix=1.00D-08 within 128 cycles.
 Requested convergence on MAX density matrix=1.00D-06.
 Requested convergence on             energy=1.00D-06.
 No special actions if energy rises.
 SCF Done:  E(RHF) =  -176.085232374     A.U. after   11 cycles
            NFock= 11  Conv=0.36D-08     -V/T= 2.0014
 ExpMin= 2.97D-02 ExpMax= 1.47D+04 ExpMxC= 5.03D+02 IAcc=3 IRadAn=         5 AccDes= 0.00D+00
 HarFok:  IExCor=  205 AccDes= 0.00D+00 IRadAn=         5 IDoV=-2 UseB2=F ITyADJ=14
 ICtDFT= 12500011 ScaDFX=  1.000000  1.000000  1.000000  1.000000
 Range of M.O.s used for correlation:     3    73
 NBasis=    73 NAE=    10 NBE=    10 NFC=     2 NFV=     0
 NROrb=     71 NOA=     8 NOB=     8 NVA=    63 NVB=    63
 Fully direct method using O(ONN) memory.
 JobTyp=1 Pass  1:  I=   3 to  10 NPSUse= 28 ParTrn=T ParDer=T DoDerP=T.
 Spin components of T(2) and E(2):
     alpha-alpha T2 =       0.1452045794D-01 E2=     -0.5860614515D-01
     alpha-beta  T2 =       0.7888736337D-01 E2=     -0.3286625292D+00
     beta-beta   T2 =       0.1452045794D-01 E2=     -0.5860614515D-01
 ANorm=    0.1052581721D+01
 E2 =    -0.4458748195D+00 EUMP2 =    -0.17653110719330D+03
          IDoAtm=11111
          Differentiating once with respect to electric field.
                with respect to dipole field.
          Differentiating once with respect to nuclear coordinates.
 Keep R1 ints in memory in canonical form, NReq=9492425.
          There are     1 degrees of freedom in the 1st order CPHF.  IDoFFX=0 NUNeed=     1.
 LinEq1:  Iter=  0 NonCon=     1 RMS=6.40D-03 Max=5.14D-02 NDo=     1
 AX will form     1 AO Fock derivatives at one time.
 LinEq1:  Iter=  1 NonCon=     1 RMS=1.54D-03 Max=1.13D-02 NDo=     1
 LinEq1:  Iter=  2 NonCon=     1 RMS=4.35D-04 Max=3.06D-03 NDo=     1
 LinEq1:  Iter=  3 NonCon=     1 RMS=4.83D-05 Max=3.75D-04 NDo=     1
 LinEq1:  Iter=  4 NonCon=     1 RMS=1.36D-05 Max=8.86D-05 NDo=     1
 LinEq1:  Iter=  5 NonCon=     1 RMS=3.34D-06 Max=2.03D-05 NDo=     1
 LinEq1:  Iter=  6 NonCon=     1 RMS=7.33D-07 Max=4.05D-06 NDo=     1
 LinEq1:  Iter=  7 NonCon=     1 RMS=1.36D-07 Max=1.00D-06 NDo=     1
 LinEq1:  Iter=  8 NonCon=     1 RMS=1.41D-08 Max=9.01D-08 NDo=     1
 LinEq1:  Iter=  9 NonCon=     1 RMS=2.25D-09 Max=1.26D-08 NDo=     1
 LinEq1:  Iter= 10 NonCon=     1 RMS=4.49D-10 Max=3.00D-09 NDo=     1
 LinEq1:  Iter= 11 NonCon=     0 RMS=7.05D-11 Max=4.98D-10 NDo=     1
 Linear equations converged to 1.000D-10 1.000D-09 after    11 iterations.
 End of Minotr F.D. properties file   721 does not exist.
 End of Minotr F.D. properties file   722 does not exist.
 End of Minotr F.D. properties file   788 does not exist.

 **********************************************************************

            Population analysis using the SCF density.

 **********************************************************************

 Orbital symmetries:
       Occupied  (A) (A) (A) (A) (A) (A) (A) (A) (A) (A)
       Virtual   (A) (A) (A) (A) (A) (A) (A) (A) (A) (A) (A) (A)
                 (A) (A) (A) (A) (A) (A) (A) (A) (A) (A) (A) (A)
                 (A) (A) (A) (A) (A) (A) (A) (A) (A) (A) (A) (A)
                 (A) (A) (A) (A) (A) (A) (A) (A) (A) (A) (A) (A)
                 (A) (A) (A) (A) (A) (A) (A) (A) (A) (A) (A) (A)
                 (A) (A) (A)
 The electronic state is 1-A.
 Alpha  occ. eigenvalues --  -26.25948 -20.62623  -1.55441  -1.40279  -0.76212
 Alpha  occ. eigenvalues --   -0.73757  -0.63027  -0.60291  -0.60280  -0.55776
 Alpha virt. eigenvalues --    0.02250   0.04969   0.07807   0.15135   0.18430
 Alpha virt. eigenvalues --    0.21177   0.21467   0.24856   0.27746   0.29371
 Alpha virt. eigenvalues --    0.29670   0.32424   0.33816   0.36745   0.39329
 Alpha virt. eigenvalues --    0.48574   0.50206   0.52609   0.56028   0.56498
 Alpha virt. eigenvalues --    0.64401   0.65015   0.79406   0.89943   0.91375
 Alpha virt. eigenvalues --    0.97927   1.12359   1.12372   1.20795   1.33781
 Alpha virt. eigenvalues --    1.36995   1.38755   1.43542   1.49567   1.50884
 Alpha virt. eigenvalues --    1.54176   1.66516   1.81003   1.81746   1.84648
 Alpha virt. eigenvalues --    1.94660   2.00047   2.07587   2.23276   2.42714
 Alpha virt. eigenvalues --    2.42724   2.43600   2.53036   2.62883   2.69555
 Alpha virt. eigenvalues --    2.97616   3.14949   3.64715   3.68049   3.68310
 Alpha virt. eigenvalues --    3.80606   4.00731   4.26080   4.89846   4.89994
 Alpha virt. eigenvalues --    5.02114   5.02857   5.35029
          Condensed to atoms (all electrons):
               1          2          3          4          5
     1  O    7.771695   0.354189   0.354190  -0.012477  -0.050662
     2  H    0.354189   0.499987  -0.041153  -0.002833  -0.003091
     3  H    0.354190  -0.041153   0.499989  -0.002834  -0.003092
     4  H   -0.012477  -0.002833  -0.002834   0.329249   0.237415
     5  F   -0.050662  -0.003091  -0.003092   0.237415   9.239776
 Mulliken charges:
               1
     1  O   -0.416935
     2  H    0.192902
     3  H    0.192900
     4  H    0.451480
     5  F   -0.420347
 Sum of Mulliken charges =  -0.00000
 Mulliken charges with hydrogens summed into heavy atoms:
               1
     1  O   -0.031133
     5  F    0.031133
 Electronic spatial extent (au):  <R**2>=            158.9986
 Charge=             -0.0000 electrons
 Dipole moment (field-independent basis, Debye):
    X=              4.1410    Y=              0.0000    Z=              1.3788  Tot=              4.3645
 Quadrupole moment (field-independent basis, Debye-Ang):
   XX=            -11.9515   YY=             -9.8380   ZZ=            -12.5261
   XY=              0.0000   XZ=              2.7731   YZ=             -0.0000
 Traceless Quadrupole moment (field-independent basis, Debye-Ang):
   XX=             -0.5130   YY=              1.6005   ZZ=             -1.0876
   XY=              0.0000   XZ=              2.7731   YZ=             -0.0000
 Octapole moment (field-independent basis, Debye-Ang**2):
  XXX=             10.3672  YYY=              0.0001  ZZZ=              0.7585  XYY=              3.6527
  XXY=             -0.0001  XXZ=              4.7487  XZZ=             -0.5900  YZZ=             -0.0000
  YYZ=              1.0795  XYZ=             -0.0000
 Hexadecapole moment (field-independent basis, Debye-Ang**3):
 XXXX=           -131.5158 YYYY=             -9.5688 ZZZZ=            -10.8608 XXXY=             -0.0005
 XXXZ=              8.7123 YYYX=              0.0002 YYYZ=              0.0000 ZZZX=              1.4743
 ZZZY=             -0.0000 XXYY=            -18.5036 XXZZ=            -25.1239 YYZZ=             -3.3566
 XXYZ=             -0.0001 YYXZ=              1.9164 ZZXY=             -0.0000
 N-N= 3.443822674501D+01 E-N=-4.894115955056D+02  KE= 1.758373528797D+02
 Calling FoFJK, ICntrl=  10002127 FMM=F ISym2X=0 I1Cent= 0 IOpClX= 0 NMat=1 NMatS=1 NMatT=0.
 ***** Axes restored to original set *****
 -------------------------------------------------------------------
 Center     Atomic                   Forces (Hartrees/Bohr)
 Number     Number              X              Y              Z
 -------------------------------------------------------------------
      1        8          -0.000001067    0.000000819   -0.000001082
      2        1           0.000000195   -0.000001452    0.000000220
      3        1           0.000000964    0.000000288    0.000000907
      4        1           0.000002621    0.000000838   -0.000000247
      5        9          -0.000002713   -0.000000492    0.000000202
 -------------------------------------------------------------------
 Cartesian Forces:  Max     0.000002713 RMS     0.000001219

 GradGradGradGradGradGradGradGradGradGradGradGradGradGradGradGradGradGrad
 Berny optimization.
 FormGI is forming the generalized inverse of G from B-inverse, IUseBI=4.
 Internal  Forces:  Max     0.000002720 RMS     0.000001090
 Search for a local minimum.
 Step number   1 out of a maximum of   20
 All quantities printed in internal units (Hartrees-Bohrs-Radians)
 Mixed Optimization -- En-DIIS/RFO-DIIS
 Second derivative matrix not updated -- first step.
 The second derivative matrix:
                          R1        R2        R3        R4        A1
           R1           0.54042
           R2           0.00000   0.54043
           R3           0.00000   0.00000   0.07189
           R4           0.00000   0.00000   0.00000   0.59361
           A1           0.00000   0.00000   0.00000   0.00000   0.16000
           A2           0.00000   0.00000   0.00000   0.00000   0.00000
           A3           0.00000   0.00000   0.00000   0.00000   0.00000
           A4           0.00000   0.00000   0.00000   0.00000   0.00000
           A5           0.00000   0.00000   0.00000   0.00000   0.00000
           D1           0.00000   0.00000   0.00000   0.00000   0.00000
                          A2        A3        A4        A5        D1
           A2           0.16000
           A3           0.00000   0.16000
           A4           0.00000   0.00000   0.01521
           A5           0.00000   0.00000   0.00000   0.01521
           D1           0.00000   0.00000   0.00000   0.00000   0.00230
 ITU=  0
     Eigenvalues ---    0.01521   0.01521   0.04397   0.07189   0.16000
     Eigenvalues ---    0.16000   0.54042   0.54043   0.59361
 RFO step:  Lambda= 0.00000000D+00 EMin= 1.52134420D-02
 Linear search not attempted -- first point.
 Iteration  1 RMS(Cart)=  0.00001611 RMS(Int)=  0.00000000
 Iteration  2 RMS(Cart)=  0.00000000 RMS(Int)=  0.00000000
 Variable       Old X    -DE/DX   Delta X   Delta X   Delta X     New X
                                 (Linear)    (Quad)   (Total)
    R1        1.82693  -0.00000   0.00000  -0.00000  -0.00000   1.82693
    R2        1.82693   0.00000   0.00000   0.00000   0.00000   1.82693
    R3        3.24137   0.00000   0.00000   0.00000   0.00000   3.24137
    R4        1.78150   0.00000   0.00000   0.00000   0.00000   1.78150
    A1        1.82709  -0.00000   0.00000  -0.00001  -0.00001   1.82707
    A2        1.97680   0.00000   0.00000  -0.00000  -0.00000   1.97680
    A3        1.97682   0.00000   0.00000   0.00000   0.00000   1.97682
    A4        3.12091   0.00000   0.00000   0.00005   0.00005   3.12096
    A5        3.22224   0.00000   0.00000   0.00001   0.00001   3.22225
    D1       -2.07734   0.00000   0.00000   0.00002   0.00002  -2.07732
         Item               Value     Threshold  Converged?
 Maximum Force            0.000003     0.000015     YES
 RMS     Force            0.000001     0.000010     YES
 Maximum Displacement     0.000031     0.000060     YES
 RMS     Displacement     0.000016     0.000040     YES
 Predicted change in Energy=-3.871123D-11
 Optimization completed.
    -- Stationary point found.
                           ----------------------------
                           !   Optimized Parameters   !
                           ! (Angstroms and Degrees)  !
 --------------------------                            --------------------------
 ! Name  Definition              Value          Derivative Info.                !
 --------------------------------------------------------------------------------
 ! R1    R(1,2)                  0.9668         -DE/DX =    0.0                 !
 ! R2    R(1,3)                  0.9668         -DE/DX =    0.0                 !
 ! R3    R(1,4)                  1.7153         -DE/DX =    0.0                 !
 ! R4    R(4,5)                  0.9427         -DE/DX =    0.0                 !
 ! A1    A(2,1,3)              104.6844         -DE/DX =    0.0                 !
 ! A2    A(2,1,4)              113.2621         -DE/DX =    0.0                 !
 ! A3    A(3,1,4)              113.2634         -DE/DX =    0.0                 !
 ! A4    L(1,4,5,2,-1)         178.815          -DE/DX =    0.0                 !
 ! A5    L(1,4,5,2,-2)         184.6206         -DE/DX =    0.0                 !
 ! D1    D(2,1,4,3)           -119.0226         -DE/DX =    0.0                 !
 --------------------------------------------------------------------------------
 GradGradGradGradGradGradGradGradGradGradGradGradGradGradGradGradGradGrad

                          Input orientation:                          
 ---------------------------------------------------------------------
 Center     Atomic      Atomic             Coordinates (Angstroms)
 Number     Number       Type             X           Y           Z
 ---------------------------------------------------------------------
      1          8           0        1.241132   -0.000002   -0.096430
      2          1           0        1.635523    0.765382    0.343215
      3          1           0        1.635569   -0.765350    0.343233
      4          1           0       -0.473439   -0.000032   -0.047926
      5          9           0       -1.414079    0.000001    0.014768
 ---------------------------------------------------------------------
                    Distance matrix (angstroms):
                    1          2          3          4          5
     1  O    0.000000
     2  H    0.966770   0.000000
     3  H    0.966769   1.530732   0.000000
     4  H    1.715257   2.277404   2.277418   0.000000
     5  F    2.657538   3.161291   3.161330   0.942727   0.000000
 Stoichiometry    FH3O
 Framework group  C1[X(FH3O)]
 Deg. of freedom     9
 Full point group                 C1      NOp   1
 Largest Abelian subgroup         C1      NOp   1
 Largest concise Abelian subgroup C1      NOp   1
                         Standard orientation:                         
 ---------------------------------------------------------------------
 Center     Atomic      Atomic             Coordinates (Angstroms)
 Number     Number       Type             X           Y           Z
 ---------------------------------------------------------------------
      1          8           0        1.241132   -0.000002   -0.096430
      2          1           0        1.635523    0.765382    0.343215
      3          1           0        1.635569   -0.765350    0.343233
      4          1           0       -0.473439   -0.000032   -0.047926
      5          9           0       -1.414079    0.000001    0.014768
 ---------------------------------------------------------------------
 Rotational constants (GHZ):         327.9405963           7.4139465           7.3257777
 1\1\GINC-N2311\FOpt\RMP2-FC\Aug-CC-pVDZ\F1H3O1\GDS001\08-Sep-2020\0\\#
  MP2/aug-cc-pVDZ Opt=(Tight) Freq=(vibrot,anharmonic)\\hf_h2o\\0,1\O,1
 .241132,-0.000002,-0.09643\H,1.635523,0.765382,0.343215\H,1.635569,-0.
 76535,0.343233\H,-0.473439,-0.000032,-0.047926\F,-1.414079,0.000001,0.
 014768\\Version=ES64L-G16RevA.03\State=1-A\HF=-176.0852324\MP2=-176.53
 11072\RMSD=3.612e-09\RMSF=1.219e-06\Dipole=1.5647311,0.0000014,0.50958
 62\PG=C01 [X(F1H3O1)]\\@


      SCIENCE SANS CONSCIENCE N'EST QUE RUINE DE L'AME.

                                                  -- RABELAIS
 Job cpu time:       0 days  0 hours  1 minutes 48.6 seconds.
 Elapsed time:       0 days  0 hours  0 minutes  5.0 seconds.
 File lengths (MBytes):  RWF=     72 Int=      0 D2E=      0 Chk=      8 Scr=      8
 Normal termination of Gaussian 16 at Tue Sep  8 11:27:39 2020.
 Link1:  Proceeding to internal job step number  2.
 ----------------------------------------------------------------------
 #N Geom=AllCheck Guess=TCheck SCRF=Check GenChk RMP2(FC)/Aug-CC-pVDZ F
 req
 ----------------------------------------------------------------------
 1/7=10,10=4,29=7,30=1,38=21,40=1,80=1/1,6,3;
 2/12=2,40=1/2;
 3/5=16,7=10,11=1,14=-4,25=1,30=1,70=2,71=2,116=1,140=1/1,2,3;
 4/5=101,69=2/1;
 5/5=2,38=6,98=1/2;
 8/6=3,8=1,10=1,19=11,30=-1/1;
 9/15=3,16=-3/6;
 11/6=1,8=1,15=11,17=12,24=-1,27=1,28=-2,29=300,32=6,42=3/1,2,10;
 10/6=2,21=1,60=-2/2;
 8/6=4,8=1,10=1,19=11,30=-1/11,4;
 10/5=1,20=4,60=-2/2;
 11/12=2,14=11,16=1,17=2,28=-2,42=3/2,10,12;
 6/7=2,8=2,9=2,10=2,22=-1/1;
 7/10=1,12=2,25=1,44=2,70=1,71=2/1,2,3,16;
 1/7=10,38=20,80=1/6(3);
 7/8=1,25=202,44=-1,70=1,71=1,92=10/16,17;
 1/7=10,10=4,30=1,38=20,80=1/3;
 99//99;
 3/5=16,7=10,11=1,14=-2,25=1,30=1,70=5,71=2,116=1,140=1/1,2,3;
 4/5=5,16=3,69=2/1;
 5/5=2,38=5,98=1/2;
 8/6=3,8=1,10=1,19=11,30=-1/1;
 9/15=3,16=-3/6;
 11/6=1,8=1,15=11,17=12,24=-1,27=1,28=-2,29=300,32=6,42=3/1,2,10;
 10/6=2,21=1,60=-2/2;
 8/6=4,8=1,10=1,19=11,30=-1/11,4;
 10/5=1,20=4,60=-2/2;
 11/12=2,14=11,16=1,17=2,28=-2,42=3/2,10,12;
 6/7=2,8=2,9=2,10=2,22=-1/1;
 7/7=1,10=1,12=2,25=1,44=2,70=1,71=1/1,2,3,16;
 1/7=10,38=20,80=1/6(-12);
 7/8=1,25=202,44=-1,70=1,71=1,92=10/16,17;
 1/7=10,10=4,30=1,38=20,80=1/3;
 99//99;
 Structure from the checkpoint file:  "hf_h2o.chk"
 ------
 hf_h2o
 ------
 Charge =  0 Multiplicity = 1
 Redundant internal coordinates found in file.  (old form).
 O,0,1.241132,-0.000002,-0.09643
 H,0,1.635523,0.765382,0.343215
 H,0,1.635569,-0.76535,0.343233
 H,0,-0.473439,-0.000032,-0.047926
 F,0,-1.414079,0.000001,0.014768
 Recover connectivity data from disk.
 Numerical evaluation of third derivatives.
 Nuclear step= 0.010000 Angstroms, electric field step= 0.000333 atomic units, NStep=1.

 GradGradGradGradGradGradGradGradGradGradGradGradGradGradGradGradGradGrad
 Berny optimization.
 Initialization pass.
                           ----------------------------
                           !    Initial Parameters    !
                           ! (Angstroms and Degrees)  !
 --------------------------                            --------------------------
 ! Name  Definition              Value          Derivative Info.                !
 --------------------------------------------------------------------------------
 ! R1    R(1,2)                  0.9668         calculate D2E/DX2 analytically  !
 ! R2    R(1,3)                  0.9668         calculate D2E/DX2 analytically  !
 ! R3    R(1,4)                  1.7153         calculate D2E/DX2 analytically  !
 ! R4    R(4,5)                  0.9427         calculate D2E/DX2 analytically  !
 ! A1    A(2,1,3)              104.6844         calculate D2E/DX2 analytically  !
 ! A2    A(2,1,4)              113.2621         calculate D2E/DX2 analytically  !
 ! A3    A(3,1,4)              113.2634         calculate D2E/DX2 analytically  !
 ! A4    L(1,4,5,2,-1)         178.815          calculate D2E/DX2 analytically  !
 ! A5    L(1,4,5,2,-2)         184.6206         calculate D2E/DX2 analytically  !
 ! D1    D(2,1,4,3)           -119.0226         calculate D2E/DX2 analytically  !
 --------------------------------------------------------------------------------
 Trust Radius=3.00D-01 FncErr=1.00D-07 GrdErr=1.00D-07 EigMax=2.50D+02 EigMin=1.00D-04
 Number of steps in this run=      2 maximum allowed number of steps=      2.
 GradGradGradGradGradGradGradGradGradGradGradGradGradGradGradGradGradGrad

                          Input orientation:                          
 ---------------------------------------------------------------------
 Center     Atomic      Atomic             Coordinates (Angstroms)
 Number     Number       Type             X           Y           Z
 ---------------------------------------------------------------------
      1          8           0        1.241132   -0.000002   -0.096430
      2          1           0        1.635523    0.765382    0.343215
      3          1           0        1.635569   -0.765350    0.343233
      4          1           0       -0.473439   -0.000032   -0.047926
      5          9           0       -1.414079    0.000001    0.014768
 ---------------------------------------------------------------------
                    Distance matrix (angstroms):
                    1          2          3          4          5
     1  O    0.000000
     2  H    0.966770   0.000000
     3  H    0.966769   1.530732   0.000000
     4  H    1.715257   2.277404   2.277418   0.000000
     5  F    2.657538   3.161291   3.161330   0.942727   0.000000
 Stoichiometry    FH3O
 Framework group  C1[X(FH3O)]
 Deg. of freedom     9
 Full point group                 C1      NOp   1
 Largest Abelian subgroup         C1      NOp   1
 Largest concise Abelian subgroup C1      NOp   1
                         Standard orientation:                         
 ---------------------------------------------------------------------
 Center     Atomic      Atomic             Coordinates (Angstroms)
 Number     Number       Type             X           Y           Z
 ---------------------------------------------------------------------
      1          8           0        1.241132   -0.000002   -0.096430
      2          1           0        1.635523    0.765382    0.343215
      3          1           0        1.635569   -0.765350    0.343233
      4          1           0       -0.473439   -0.000032   -0.047926
      5          9           0       -1.414079    0.000001    0.014768
 ---------------------------------------------------------------------
 Rotational constants (GHZ):         327.9405963           7.4139465           7.3257777
 Standard basis: Aug-CC-pVDZ (5D, 7F)
 There are    77 symmetry adapted cartesian basis functions of A   symmetry.
 There are    73 symmetry adapted basis functions of A   symmetry.
    73 basis functions,   119 primitive gaussians,    77 cartesian basis functions
    10 alpha electrons       10 beta electrons
       nuclear repulsion energy        34.4382267450 Hartrees.
 NAtoms=    5 NActive=    5 NUniq=    5 SFac= 1.00D+00 NAtFMM=   60 NAOKFM=F Big=F
 Integral buffers will be    131072 words long.
 Raffenetti 1 integral format.
 Two-electron integral symmetry is turned on.
 One-electron integrals computed using PRISM.
 NBasis=    73 RedAO= T EigKep=  1.55D-03  NBF=    73
 NBsUse=    73 1.00D-06 EigRej= -1.00D+00 NBFU=    73
 Initial guess from the checkpoint file:  "hf_h2o.chk"
 B after Tr=     0.000000   -0.000000    0.000000
         Rot=    1.000000   -0.000000    0.000000   -0.000000 Ang=   0.00 deg.
 Keep R1 ints in memory in canonical form, NReq=9491052.
 Requested convergence on RMS density matrix=1.00D-08 within 128 cycles.
 Requested convergence on MAX density matrix=1.00D-06.
 Requested convergence on             energy=1.00D-06.
 No special actions if energy rises.
 SCF Done:  E(RHF) =  -176.085232374     A.U. after    1 cycles
            NFock=  1  Conv=0.39D-09     -V/T= 2.0014
 ExpMin= 2.97D-02 ExpMax= 1.47D+04 ExpMxC= 5.03D+02 IAcc=3 IRadAn=         5 AccDes= 0.00D+00
 HarFok:  IExCor=  205 AccDes= 0.00D+00 IRadAn=         5 IDoV=-2 UseB2=F ITyADJ=14
 ICtDFT= 12500011 ScaDFX=  1.000000  1.000000  1.000000  1.000000
 Range of M.O.s used for correlation:     3    73
 NBasis=    73 NAE=    10 NBE=    10 NFC=     2 NFV=     0
 NROrb=     71 NOA=     8 NOB=     8 NVA=    63 NVB=    63
 Disk-based method using ON**2 memory for  8 occupieds at a time.
 Permanent disk used for amplitudes=      484785 words.
 Estimated scratch disk usage=     6736310 words.
 Actual    scratch disk usage=     6736310 words.
 JobTyp=1 Pass  1:  I=   3 to  10 NPSUse= 28 ParTrn=T ParDer=T DoDerP=T.
 (rs|ai) integrals will be sorted in core.
 Spin components of T(2) and E(2):
     alpha-alpha T2 =       0.1452045796D-01 E2=     -0.5860614521D-01
     alpha-beta  T2 =       0.7888736346D-01 E2=     -0.3286625293D+00
     beta-beta   T2 =       0.1452045796D-01 E2=     -0.5860614521D-01
 ANorm=    0.1052581721D+01
 E2 =    -0.4458748198D+00 EUMP2 =    -0.17653110719352D+03
 G2DrvN: will do     6 centers at a time, making    1 passes.
 Calling FoFCou, ICntrl=  3107 FMM=F I1Cent=   0 AccDes= 0.00D+00.
 End of G2Drv F.D. properties file   721 does not exist.
 End of G2Drv F.D. properties file   722 does not exist.
 End of G2Drv F.D. properties file   788 does not exist.
          IDoAtm=11111
          Differentiating once with respect to electric field.
                with respect to dipole field.
          Differentiating once with respect to nuclear coordinates.
 Keep R1 ints in memory in canonical form, NReq=9491853.
          There are    18 degrees of freedom in the 1st order CPHF.  IDoFFX=6 NUNeed=    18.
     15 vectors produced by pass  0 Test12= 3.50D-15 5.56D-09 XBig12= 2.66D+00 4.91D-01.
 AX will form    15 AO Fock derivatives at one time.
     15 vectors produced by pass  1 Test12= 3.50D-15 5.56D-09 XBig12= 1.08D-01 8.26D-02.
     15 vectors produced by pass  2 Test12= 3.50D-15 5.56D-09 XBig12= 4.61D-03 1.76D-02.
     15 vectors produced by pass  3 Test12= 3.50D-15 5.56D-09 XBig12= 3.33D-05 1.19D-03.
     15 vectors produced by pass  4 Test12= 3.50D-15 5.56D-09 XBig12= 2.27D-07 1.53D-04.
     15 vectors produced by pass  5 Test12= 3.50D-15 5.56D-09 XBig12= 1.45D-09 7.10D-06.
     12 vectors produced by pass  6 Test12= 3.50D-15 5.56D-09 XBig12= 7.98D-12 5.88D-07.
      3 vectors produced by pass  7 Test12= 3.50D-15 5.56D-09 XBig12= 4.13D-14 4.45D-08.
 InvSVY:  IOpt=1 It=  1 EMax= 9.99D-16
 Solved reduced A of dimension   105 with    15 vectors.
 End of Minotr F.D. properties file   721 does not exist.
 End of Minotr F.D. properties file   722 does not exist.
 End of Minotr F.D. properties file   788 does not exist.
 MDV=  5502926848.
 Form MO integral derivatives with frozen-active canonical formalism.
 Discarding MO integrals.
 Reordered first order wavefunction length =       793800
 In DefCFB: NBatch=  1 ICI= 10 ICA= 63 LFMax= 63
            Large arrays: LIAPS=    14164920 LIARS=     8489250 words.
 Semi-Direct transformation.
 ModeAB=           2 MOrb=            10 LenV=    5502651399
 LASXX=      1744560 LTotXX=     1744560 LenRXX=     1744560
 LTotAB=     1815535 MaxLAS=     2192190 LenRXY=     2192190
 NonZer=     3489120 LenScr=     5242880 LnRSAI=           0
 LnScr1=           0 LExtra=           0 Total=      9179630
 MaxDsk=          -1 SrtSym=           F ITran=            4
 JobTyp=0 Pass  1:  I=   1 to  10.
 (rs|ai) integrals will be sorted in core.
 SymMOI:  orbitals are not symmetric.
 Spin components of T(2) and E(2):
     alpha-alpha T2 =       0.1452045796D-01 E2=     -0.5860614521D-01
     alpha-beta  T2 =       0.7888736346D-01 E2=     -0.3286625293D+00
     beta-beta   T2 =       0.1452045796D-01 E2=     -0.5860614521D-01
 ANorm=    0.1488575345D+01
 E2 =    -0.4458748198D+00 EUMP2 =    -0.17653110719352D+03
          IDoAtm=11111
          Differentiating once with respect to electric field.
                with respect to dipole field.
          Differentiating once with respect to nuclear coordinates.
          There are     1 degrees of freedom in the 1st order CPHF.  IDoFFX=0 NUNeed=     1.
 LinEq1:  Iter=  0 NonCon=     1 RMS=6.40D-03 Max=5.14D-02 NDo=     1
 LinEq1:  Iter=  1 NonCon=     1 RMS=1.54D-03 Max=1.13D-02 NDo=     1
 LinEq1:  Iter=  2 NonCon=     1 RMS=4.35D-04 Max=3.06D-03 NDo=     1
 LinEq1:  Iter=  3 NonCon=     1 RMS=4.83D-05 Max=3.75D-04 NDo=     1
 LinEq1:  Iter=  4 NonCon=     1 RMS=1.36D-05 Max=8.86D-05 NDo=     1
 LinEq1:  Iter=  5 NonCon=     1 RMS=3.34D-06 Max=2.03D-05 NDo=     1
 LinEq1:  Iter=  6 NonCon=     1 RMS=7.33D-07 Max=4.05D-06 NDo=     1
 LinEq1:  Iter=  7 NonCon=     1 RMS=1.36D-07 Max=1.00D-06 NDo=     1
 LinEq1:  Iter=  8 NonCon=     1 RMS=1.41D-08 Max=9.01D-08 NDo=     1
 LinEq1:  Iter=  9 NonCon=     1 RMS=2.25D-09 Max=1.26D-08 NDo=     1
 LinEq1:  Iter= 10 NonCon=     1 RMS=4.49D-10 Max=3.00D-09 NDo=     1
 LinEq1:  Iter= 11 NonCon=     0 RMS=7.05D-11 Max=4.98D-10 NDo=     1
 Linear equations converged to 1.000D-10 1.000D-09 after    11 iterations.
 End of Minotr F.D. properties file   721 does not exist.
 End of Minotr F.D. properties file   722 does not exist.
 End of Minotr F.D. properties file   788 does not exist.
 Symmetrizing basis deriv contribution to polar:
 IMax=3 JMax=2 DiffMx= 0.00D+00
 G2DrvN: will do     6 centers at a time, making    1 passes.
 Calling FoFCou, ICntrl=  3107 FMM=F I1Cent=   0 AccDes= 0.00D+00.
 End of G2Drv F.D. properties file   721 does not exist.
 End of G2Drv F.D. properties file   722 does not exist.
 End of G2Drv F.D. properties file   788 does not exist.
 R2 and R3 integrals will be kept in memory, NReq=     9841012.
 DD1Dir will call FoFMem   1 times, MxPair=       110
 NAB=    55 NAA=     0 NBB=     0.
 Discarding MO integrals.

 **********************************************************************

            Population analysis using the MP2 density.

 **********************************************************************

 Orbital symmetries:
       Occupied  (A) (A) (A) (A) (A) (A) (A) (A) (A) (A)
       Virtual   (A) (A) (A) (A) (A) (A) (A) (A) (A) (A) (A) (A)
                 (A) (A) (A) (A) (A) (A) (A) (A) (A) (A) (A) (A)
                 (A) (A) (A) (A) (A) (A) (A) (A) (A) (A) (A) (A)
                 (A) (A) (A) (A) (A) (A) (A) (A) (A) (A) (A) (A)
                 (A) (A) (A) (A) (A) (A) (A) (A) (A) (A) (A) (A)
                 (A) (A) (A)
 The electronic state is 1-A.
 Alpha  occ. eigenvalues --  -26.25948 -20.62623  -1.55441  -1.40279  -0.76212
 Alpha  occ. eigenvalues --   -0.73757  -0.63027  -0.60291  -0.60280  -0.55776
 Alpha virt. eigenvalues --    0.02250   0.04969   0.07807   0.15135   0.18430
 Alpha virt. eigenvalues --    0.21177   0.21467   0.24856   0.27746   0.29371
 Alpha virt. eigenvalues --    0.29670   0.32424   0.33816   0.36745   0.39329
 Alpha virt. eigenvalues --    0.48574   0.50206   0.52609   0.56028   0.56498
 Alpha virt. eigenvalues --    0.64401   0.65015   0.79406   0.89943   0.91375
 Alpha virt. eigenvalues --    0.97927   1.12359   1.12372   1.20795   1.33781
 Alpha virt. eigenvalues --    1.36995   1.38755   1.43542   1.49567   1.50884
 Alpha virt. eigenvalues --    1.54176   1.66516   1.81003   1.81746   1.84648
 Alpha virt. eigenvalues --    1.94660   2.00047   2.07587   2.23276   2.42714
 Alpha virt. eigenvalues --    2.42724   2.43600   2.53036   2.62883   2.69555
 Alpha virt. eigenvalues --    2.97616   3.14949   3.64715   3.68049   3.68310
 Alpha virt. eigenvalues --    3.80606   4.00731   4.26080   4.89846   4.89994
 Alpha virt. eigenvalues --    5.02114   5.02857   5.35029
          Condensed to atoms (all electrons):
               1          2          3          4          5
     1  O    7.687445   0.337283   0.337285   0.000715  -0.050674
     2  H    0.337283   0.574219  -0.057545  -0.004893  -0.003123
     3  H    0.337285  -0.057545   0.574221  -0.004893  -0.003124
     4  H    0.000715  -0.004893  -0.004893   0.405829   0.249835
     5  F   -0.050674  -0.003123  -0.003124   0.249835   9.156553
 Mulliken charges:
               1
     1  O   -0.312054
     2  H    0.154059
     3  H    0.154057
     4  H    0.353406
     5  F   -0.349468
 Sum of Mulliken charges =  -0.00000
 Mulliken charges with hydrogens summed into heavy atoms:
               1
     1  O   -0.003939
     5  F    0.003939
 APT charges:
               1
     1  O   -0.561390
     2  H    0.278470
     3  H    0.278469
     4  H    0.531597
     5  F   -0.527146
 Sum of APT charges =  -0.00000
 APT charges with hydrogens summed into heavy atoms:
               1
     1  O   -0.004451
     5  F    0.004451
 Electronic spatial extent (au):  <R**2>=            160.0059
 Charge=             -0.0000 electrons
 Dipole moment (field-independent basis, Debye):
    X=              3.9771    Y=              0.0000    Z=              1.2952  Tot=              4.1827
 Quadrupole moment (field-independent basis, Debye-Ang):
   XX=            -12.3037   YY=            -10.3261   ZZ=            -13.0406
   XY=              0.0000   XZ=              2.6499   YZ=             -0.0000
 Traceless Quadrupole moment (field-independent basis, Debye-Ang):
   XX=             -0.4136   YY=              1.5641   ZZ=             -1.1504
   XY=              0.0000   XZ=              2.6499   YZ=             -0.0000
 Octapole moment (field-independent basis, Debye-Ang**2):
  XXX=              9.0989  YYY=              0.0001  ZZZ=              0.6453  XYY=              3.5869
  XXY=             -0.0001  XXZ=              4.6135  XZZ=             -0.6710  YZZ=             -0.0000
  YYZ=              1.0106  XYZ=             -0.0000
 Hexadecapole moment (field-independent basis, Debye-Ang**3):
 XXXX=           -137.3607 YYYY=            -10.8339 ZZZZ=            -12.3081 XXXY=             -0.0005
 XXXZ=              8.4262 YYYX=              0.0001 YYYZ=              0.0000 ZZZX=              1.3589
 ZZZY=             -0.0000 XXYY=            -19.8757 XXZZ=            -26.4984 YYZZ=             -3.8345
 XXYZ=             -0.0001 YYXZ=              1.8210 ZZXY=             -0.0000
 N-N= 3.443822674501D+01 E-N=-4.887640899986D+02  KE= 1.759704013803D+02
  Exact polarizability:  17.462  -0.000  13.373   0.253   0.000  12.560
 Approx polarizability:  11.634  -0.000  10.739   0.439   0.000   9.570
 Calling FoFJK, ICntrl=  10100127 FMM=F ISym2X=0 I1Cent= 0 IOpClX= 0 NMat=1 NMatS=1 NMatT=0.
 Full mass-weighted force constant matrix:
 Low frequencies ---   -0.9124   -0.6316   -0.0010   -0.0009   -0.0005    2.7199
 Low frequencies ---  236.1326  256.8598  278.7615
 Diagonal vibrational polarizability:
       52.1459086       4.6993322      27.8081202
 Harmonic frequencies (cm**-1), IR intensities (KM/Mole), Raman scattering
 activities (A**4/AMU), depolarization ratios for plane and unpolarized
 incident light, reduced masses (AMU), force constants (mDyne/A),
 and normal coordinates:
                      1                      2                      3
                      A                      A                      A
 Frequencies --    236.1326               256.8598               278.7615
 Red. masses --      2.8519                 1.0550                 1.5265
 Frc consts  --      0.0937                 0.0410                 0.0699
 IR Inten    --     13.5576                 0.0004               181.1981
  Atom  AN      X      Y      Z        X      Y      Z        X      Y      Z
     1   8    -0.23   0.00  -0.04    -0.00  -0.04   0.00     0.15  -0.00  -0.08
     2   1    -0.57  -0.00   0.28    -0.61   0.19   0.15    -0.45  -0.01   0.49
     3   1    -0.57   0.00   0.28     0.61   0.19  -0.15    -0.45   0.01   0.49
     4   1     0.24   0.00  -0.15     0.00  -0.37   0.00    -0.09  -0.00  -0.28
     5   9     0.24  -0.00   0.01     0.00   0.03  -0.00    -0.07   0.00   0.03
                      4                      5                      6
                      A                      A                      A
 Frequencies --    730.2264               849.3167              1626.5519
 Red. masses --      1.0505                 1.0410                 1.0824
 Frc consts  --      0.3300                 0.4424                 1.6873
 IR Inten    --    159.5785               121.0107                70.1704
  Atom  AN      X      Y      Z        X      Y      Z        X      Y      Z
     1   8     0.01   0.00  -0.04     0.00  -0.04   0.00    -0.05  -0.00  -0.05
     2   1    -0.11  -0.01   0.11    -0.24   0.07   0.04     0.39  -0.43   0.40
     3   1    -0.11   0.01   0.11     0.24   0.07  -0.04     0.39   0.43   0.40
     4   1     0.07   0.00   0.97     0.00   0.93  -0.00    -0.01   0.00  -0.03
     5   9    -0.00  -0.00  -0.03    -0.00  -0.02   0.00     0.00  -0.00   0.00
                      7                      8                      9
                      A                      A                      A
 Frequencies --   3668.5061              3795.6805              3921.8458
 Red. masses --      1.0599                 1.0455                 1.0816
 Frc consts  --      8.4044                 8.8749                 9.8012
 IR Inten    --    938.2148                 8.5788               105.5218
  Atom  AN      X      Y      Z        X      Y      Z        X      Y      Z
     1   8    -0.00  -0.00  -0.00    -0.03  -0.00  -0.04     0.00  -0.07   0.00
     2   1     0.04   0.06   0.04     0.27   0.58   0.29     0.29   0.56   0.32
     3   1     0.04  -0.06   0.04     0.27  -0.58   0.29    -0.29   0.56  -0.32
     4   1     0.99  -0.00  -0.07    -0.11   0.00   0.00     0.00  -0.00   0.00
     5   9    -0.05   0.00   0.00     0.01  -0.00  -0.00    -0.00  -0.00   0.00

 -------------------
 - Thermochemistry -
 -------------------
 Temperature   298.150 Kelvin.  Pressure   1.00000 Atm.
 Atom     1 has atomic number  8 and mass  15.99491
 Atom     2 has atomic number  1 and mass   1.00783
 Atom     3 has atomic number  1 and mass   1.00783
 Atom     4 has atomic number  1 and mass   1.00783
 Atom     5 has atomic number  9 and mass  18.99840
 Molecular mass:    38.01679 amu.
 Principal axes and moments of inertia in atomic units:
                           1         2         3
     Eigenvalues --     5.50326 243.42517 246.35490
           X            0.99984   0.00000   0.01816
           Y           -0.00000   1.00000  -0.00000
           Z           -0.01816   0.00000   0.99984
 This molecule is an asymmetric top.
 Rotational symmetry number  1.
 Rotational temperatures (Kelvin)     15.73867     0.35581     0.35158
 Rotational constants (GHZ):         327.94060     7.41395     7.32578
 Zero-point vibrational energy      91896.4 (Joules/Mol)
                                   21.96377 (Kcal/Mol)
 Warning -- explicit consideration of   3 degrees of freedom as
           vibrations may cause significant error
 Vibrational temperatures:    339.74   369.56   401.08  1050.63  1221.98
          (Kelvin)           2340.25  5278.16  5461.14  5642.66
 
 Zero-point correction=                           0.035001 (Hartree/Particle)
 Thermal correction to Energy=                    0.039434
 Thermal correction to Enthalpy=                  0.040378
 Thermal correction to Gibbs Free Energy=         0.010554
 Sum of electronic and zero-point Energies=           -176.496106
 Sum of electronic and thermal Energies=              -176.491673
 Sum of electronic and thermal Enthalpies=            -176.490729
 Sum of electronic and thermal Free Energies=         -176.520553
 
                     E (Thermal)             CV                S
                      KCal/Mol        Cal/Mol-Kelvin    Cal/Mol-Kelvin
 Total                   24.745             12.604             62.770
 Electronic               0.000              0.000              0.000
 Translational            0.889              2.981             36.835
 Rotational               0.889              2.981             20.429
 Vibrational             22.968              6.643              5.506
 Vibration     1          0.655              1.785              1.832
 Vibration     2          0.666              1.751              1.683
 Vibration     3          0.679              1.713              1.541
                       Q            Log10(Q)             Ln(Q)
 Total Bot       0.139764D-04         -4.854606        -11.178142
 Total V=0       0.175773D+12         11.244951         25.892457
 Vib (Bot)       0.233270D-15        -15.632141        -35.994336
 Vib (Bot)    1  0.831837D+00         -0.079962         -0.184119
 Vib (Bot)    2  0.757339D+00         -0.120710         -0.277944
 Vib (Bot)    3  0.690149D+00         -0.161057         -0.370848
 Vib (V=0)       0.293370D+01          0.467415          1.076264
 Vib (V=0)    1  0.147054D+01          0.167477          0.385631
 Vib (V=0)    2  0.140750D+01          0.148449          0.341817
 Vib (V=0)    3  0.135224D+01          0.131052          0.301759
 Electronic      0.100000D+01          0.000000          0.000000
 Translational   0.921334D+07          6.964417         16.036163
 Rotational      0.650308D+04          3.813119          8.780031

     ==================================================
      Anharmonic Data: Displacement Vectors Definition
     ==================================================

 Framework definition based on atomic masses: C1  

 **********************************************************************

                  Harmonic vibro-rotational analysis

 **********************************************************************


     ==================================================
               Analysis of the Rotor Symmetry
     ==================================================

 Framework Group : C1  
 Rotor Type      : Asymmetric Top
 Asymm. param.   : Kappa = -0.999450
 Inertia moments : X=     1.54107 , Y=    68.16599 , Z=    68.98640
 Representation  : IIIr Representation, Ix < Iy < Iz

 Axes Definition for the Symmetric-Top Representation
 ----------------------------------------------------
 Axis Z automatically chosen to be collinear with X from Eckart orient.
 NOTE: In Vibro-rotational analysis, this will be referred to as the
       spectroscopic orientation.

     ==================================================
        Vibro-Rotational Analysis Based on Symmetry
     ==================================================

 Input/Output information
 ------------------------
 Normal modes will be PRINTED in DESCENDING order (imag. freq. first)
   and sorted by irreducible representation
 The connection between this new numbering (A) and the one used before
   (H) is reported in the present equivalency table:
 ----+------+------+------+------+------+------+------+------+------+
 (H) |     1|     2|     3|     4|     5|     6|     7|     8|     9|
 (A) |     9|     8|     7|     6|     5|     4|     3|     2|     1|
 ----+------+------+------+------+------+------+------+------+------+

 Normal modes will be READ in ASCENDING order (imag. freq. first)

     ==================================================
                   Coriolis Couplings
     ==================================================

 Coriolis Couplings along the X axis
 -----------------------------------
                1             2             3             4             5 
      1   0.000000D+00
      2  -0.468086D-02  0.000000D+00
      3   0.434859D-02  0.000000D+00  0.000000D+00
      4   0.722670D+00  0.000000D+00  0.000000D+00  0.000000D+00
      5   0.000000D+00 -0.223377D-01  0.622174D-01 -0.866500D-01  0.000000D+00
      6   0.157938D+00  0.000000D+00  0.000000D+00  0.000000D+00  0.923651D+00
      7   0.502567D+00  0.000000D+00  0.000000D+00  0.000000D+00 -0.122360D+00
      8   0.000000D+00  0.324726D-01 -0.258522D-01 -0.302357D+00  0.000000D+00
      9  -0.202269D+00  0.000000D+00  0.000000D+00  0.000000D+00  0.479523D-01
                6             7             8             9 
      6   0.000000D+00
      7   0.000000D+00  0.000000D+00
      8   0.297619D+00 -0.288265D+00  0.000000D+00
      9   0.000000D+00  0.000000D+00 -0.111898D+00  0.000000D+00

 Coriolis Couplings along the Y axis
 -----------------------------------
                1             2             3             4             5 
      1   0.000000D+00
      2   0.000000D+00  0.000000D+00
      3   0.000000D+00 -0.198136D-02  0.000000D+00
      4   0.000000D+00  0.141759D-01  0.248201D-01  0.000000D+00
      5  -0.168944D+00  0.000000D+00  0.000000D+00  0.000000D+00  0.000000D+00
      6   0.000000D+00 -0.367479D-01 -0.970726D+00 -0.192299D+00  0.000000D+00
      7   0.000000D+00 -0.545313D+00  0.174932D+00 -0.720948D+00  0.000000D+00
      8  -0.447927D+00  0.000000D+00  0.000000D+00  0.000000D+00  0.252210D-01
      9   0.000000D+00  0.226119D+00 -0.629428D-01  0.305756D+00  0.000000D+00
                6             7             8             9 
      6   0.000000D+00
      7  -0.703532D-01  0.000000D+00
      8   0.000000D+00  0.000000D+00  0.000000D+00
      9  -0.118474D+00 -0.569388D-01  0.000000D+00  0.000000D+00

 Coriolis Couplings along the Z axis
 -----------------------------------
                1             2             3             4             5 
      1   0.000000D+00
      2   0.000000D+00  0.000000D+00
      3  -0.762055D-02  0.000000D+00  0.000000D+00
      4  -0.690312D+00  0.000000D+00  0.000000D+00  0.000000D+00
      5   0.000000D+00  0.226953D+00  0.942155D+00 -0.129143D+00  0.000000D+00
      6   0.124737D+00  0.000000D+00  0.000000D+00  0.000000D+00 -0.340644D-01
      7   0.514969D+00  0.000000D+00  0.000000D+00  0.000000D+00  0.169583D+00
      8   0.000000D+00  0.841079D+00 -0.296051D+00 -0.317130D+00  0.000000D+00
      9  -0.219548D+00  0.000000D+00  0.000000D+00  0.000000D+00  0.107619D+00
                6             7             8             9 
      6   0.000000D+00
      7   0.000000D+00  0.000000D+00
      8  -0.896915D-01 -0.235191D+00  0.000000D+00
      9   0.000000D+00  0.000000D+00 -0.168610D-02  0.000000D+00

   18 Coriolis couplings larger than .100D-02 along the X axis
   18 Coriolis couplings larger than .100D-02 along the Y axis
   17 Coriolis couplings larger than .100D-02 along the Z axis

     ==================================================
      Inertia Moments Derivatives w.r.t. Normal Modes
     ==================================================

 Units: amu^1/2.Ang

                 Ixx        Ixy        Iyy        Ixz        Iyz        Izz
 Q(     1)    -0.00013   -0.85991   -0.00014    0.00008   -0.95014   -0.00014
 Q(     2)     2.25470   -0.00004    0.70910   -0.47616   -0.00008    1.95353
 Q(     3)     0.25286    0.00006    2.04328    0.06092   -0.00001    2.15911
 Q(     4)    -0.59540   -0.00007    1.13282   -0.67155   -0.00004   -0.82196
 Q(     5)    -0.00007    0.73927    0.00018    0.00001   -0.11107    0.00010
 Q(     6)     0.11860    0.00002    0.18124    0.20077    0.00001   -0.00673
 Q(     7)     0.74563    0.00124    6.26333    0.89430   -0.00029    5.45618
 Q(     8)    -0.00045    1.83166   -0.00771   -0.00061   -0.43632   -0.00725
 Q(     9)    -0.30517    0.00041   15.08114    0.01564   -0.00010   15.38977

     ==================================================
               Vibro-rotational Alpha Matrix
     ==================================================

 Vibro-Rot alpha Matrix (in cm^-1)
 ---------------------------------
                 A(x)           B(y)           C(z)
 Q(     1)       -0.18157       -0.00003       -0.00009
 Q(     2)       -0.15637       -0.00003       -0.00008
 Q(     3)       -0.00294       -0.00010       -0.00010
 Q(     4)        0.06789       -0.00016        0.00002
 Q(     5)       -3.45873       -0.00003        0.00015
 Q(     6)        3.35341        0.00019       -0.00000
 Q(     7)       -1.81836        0.00020       -0.00078
 Q(     8)        1.71980       -0.00068        0.00104
 Q(     9)        0.28892       -0.00119       -0.00127

 Vibro-Rot alpha Matrix (in MHz)
 -------------------------------
                 A(x)           B(y)           C(z)
 Q(     1)    -5443.23880       -0.99701       -2.58580
 Q(     2)    -4687.75870       -1.02748       -2.31330
 Q(     3)      -88.23708       -3.13376       -3.10306
 Q(     4)     2035.24708       -4.67012        0.56932
 Q(     5)  -103690.08539       -1.01080        4.37244
 Q(     6)   100532.66161        5.55620       -0.07934
 Q(     7)   -54513.20131        5.94379      -23.24661
 Q(     8)    51558.37002      -20.41308       31.09426
 Q(     9)     8661.64974      -35.53356      -38.06605

     ==================================================
          Quartic Centrifugal Distortion Constants
     ==================================================

 NOTE: Values in Cartesian coords. refer to the structure in Eckart orientation.

 Quartic Centrifugal Distortion Constants Tau Prime
 --------------------------------------------------
                      cm^-1                    MHz
 TauP aaaa     -0.3174167293D-01        -0.9515914149D+03
 TauP bbaa     -0.1403201015D-03        -0.4206690813D+01
 TauP bbbb     -0.4069056037D-05        -0.1219872311D+00
 TauP ccaa      0.1734079883D-04         0.5198640705D+00
 TauP ccbb     -0.3993230965D-05        -0.1197140526D+00
 TauP cccc     -0.3918603630D-05        -0.1174767814D+00

 Asymmetric Top Reduction
 ------------------------
       Asymmetry parameter     | Reference formula
  Kappa :        -0.9994500013 |    [2B-A-C]/[A-C]
  Delta :         0.0002749994 |       [B-C]/[A-C]
  Sigma :      7056.4504811181 | [2A'-B'-C']/[B'-C']

 (A,B,C)   : equilibrium rotational constants
 (A',B',C'): effective rotational constants

 Constants in the Asymmetrically reduced Hamiltonian
 ---------------------------------------------------
                        cm^-1                   MHz
  DELTA J  :    0.9984574583D-06         0.2993300156D-01
  DELTA K  :    0.7905672014D-02         0.2370060845D+03
  DELTA JK :    0.2874776103D-04         0.8618361941D+00
  delta J  :    0.9403275418D-08         0.2819031051D-03
  delta K  :    0.2022644494D-04         0.6063735644D+00

 Effective Rotational Constants
 (Include Terms due to Quartic Centrifugal Distortion Constants)
 ---------------------------------------------------------------
           Be in cm^-1             B(A) in cm^-1            B(A) in MHz
 a         10.938920829            10.938920829             327940.59631
 b          0.247302637             0.247303693               7413.97821
 c          0.244361640             0.244360583               7325.74600

 Nielsen Centrifugal Distortion Constants
 ----------------------------------------
                cm^-1                    MHz
 DJ     0.9984200291D-06         0.2993187946D-01
 DJK    0.2874798561D-04         0.8618429267D+00
 DK     0.7905671827D-02         0.2370060789D+03
 dJ     0.9403275418D-08         0.2819031051D-03
 R5    -0.9849104632D-05        -0.2952687287D+00
 R6    -0.1871463829D-10        -0.5610507413D-06

 Constants in the Symmetrically Reduced Hamiltonian
 --------------------------------------------------
                    cm^-1                     MHz
  D J  :    0.9970242700D-06         0.2989003566D-01
  D JK :    0.2875636016D-04         0.8620939895D+00
  D K  :    0.7905664848D-02         0.2370058697D+03
  d 1  :   -0.9403275418D-08        -0.2819031051D-03
  d 2  :   -0.7165941642D-09        -0.2148295259D-04


 Effective Rotational Constants
 (Include Terms due to Quartic Centrifugal Distortion Constants)
 ---------------------------------------------------------------
           Be in cm^-1             B(S) in cm^-1            B(S) in MHz
 a         10.938920829            10.938920836             327940.59653
 b          0.247302637             0.247263238               7412.76538
 c          0.244361640             0.244401034               7326.95866

 Wilson Centrifugal Distortion Constants
 ---------------------------------------
                cm^-1                    MHz
 DJ     0.1017264009D-05         0.3049680777D-01
 DJK    0.6812552272D-04         0.2042351791D+01
 DK     0.7866275446D-02         0.2358250051D+03

 Nielsen Centrifugal Distortion Constants
 ----------------------------------------
                cm^-1                    MHz
 DJ     0.9984200291D-06         0.2993187946D-01
 DJK    0.2874798561D-04         0.8618429267D+00
 DK     0.7905671827D-02         0.2370060789D+03
 dJ     0.9403275418D-08         0.2819031051D-03
 R5    -0.9849104632D-05        -0.2952687287D+00
 R6    -0.1871463829D-10        -0.5610507413D-06

     ==================================================
       Average Coordinates and Mean Square Amplitudes
     ==================================================

 NOTE: Temperature is given in K between parentheses
       For Cartesian and internal coords., units are given between
       parentheses next to each label

 Mean Square Amplitudes of Normal Coordinates (in amu.bohr^2)
 -----------------------------------------------------------
 Mode    <Q^2> (0)    <Q^2> (298.15)    <Q^2> (298.15) class.
    1     0.015350       0.015350          0.064039
    2     0.015860       0.015860          0.068367
    3     0.016410       0.016410          0.073189
    4     0.037011       0.037039          0.372297
    5     0.070880       0.073273          1.365482
    6     0.082440       0.087449          1.847184
    7     0.215954       0.368088         12.675344
    8     0.234368       0.425379         14.929078
    9     0.254940       0.494860         17.664987

 Mean Square Amplitudes of Cartesian Coordinates
 -----------------------------------------------
    Label        <(S-Se)^2>^1/2 (0)    <(S-Se)^2>^1/2 (298.15)
 X(1)  (Angs)        0.046866              0.063479
 Y(1)  (Angs)        0.012520              0.015662
 Z(1)  (Angs)        0.018321              0.023191
 X(2)  (Angs)        0.206832              0.273843
 Y(2)  (Angs)        0.082618              0.093225
 Z(2)  (Angs)        0.123770              0.157851
 X(3)  (Angs)        0.206840              0.273864
 Y(3)  (Angs)        0.082623              0.093233
 Z(3)  (Angs)        0.123780              0.157869
 X(4)  (Angs)        0.078624              0.088249
 Y(4)  (Angs)        0.158451              0.180732
 Z(4)  (Angs)        0.156216              0.168290
 X(5)  (Angs)        0.040733              0.056222
 Y(5)  (Angs)        0.009163              0.012012
 Z(5)  (Angs)        0.007267              0.008836
 ***** Axes restored to original set *****
 -------------------------------------------------------------------
 Center     Atomic                   Forces (Hartrees/Bohr)
 Number     Number              X              Y              Z
 -------------------------------------------------------------------
      1        8          -0.000001070    0.000000819   -0.000001090
      2        1           0.000000196   -0.000001448    0.000000223
      3        1           0.000000965    0.000000284    0.000000911
      4        1           0.000002622    0.000000838   -0.000000246
      5        9          -0.000002714   -0.000000492    0.000000202
 -------------------------------------------------------------------
 Cartesian Forces:  Max     0.000002714 RMS     0.000001220
 FormGI is forming the generalized inverse of G from B-inverse, IUseBI=4.
 NDeriv=      9 NFrqRd=  0 NDerD0=      0 MskFDP=       0 MskDFD=       0 MskDF0=       0
 At 1st pt F.D. properties file   721 does not exist.
 At 1st pt F.D. properties file   722 does not exist.
 D2Numr ... symmetry will not be used.
 Standard basis: Aug-CC-pVDZ (5D, 7F)
    73 basis functions,   119 primitive gaussians,    77 cartesian basis functions
    10 alpha electrons       10 beta electrons
       nuclear repulsion energy        34.4147156804 Hartrees.
 NAtoms=    5 NActive=    5 NUniq=    5 SFac= 1.00D+00 NAtFMM=   60 NAOKFM=F Big=F
 Integral buffers will be    131072 words long.
 Raffenetti 1 integral format.
 Two-electron integral symmetry is turned off.
 One-electron integrals computed using PRISM.
 NBasis=    73 RedAO= T EigKep=  1.55D-03  NBF=    73
 NBsUse=    73 1.00D-06 EigRej= -1.00D+00 NBFU=    73
 Initial guess from the checkpoint file:  "hf_h2o.chk"
 B after Tr=     0.000318   -0.000000   -0.000111
         Rot=    1.000000   -0.000000   -0.000057   -0.000000 Ang=  -0.01 deg.
 Keep R1 ints in memory in canonical form, NReq=9490869.
 Requested convergence on RMS density matrix=1.00D-08 within 128 cycles.
 Requested convergence on MAX density matrix=1.00D-06.
 Requested convergence on             energy=1.00D-06.
 No special actions if energy rises.
 SCF Done:  E(RHF) =  -176.085250865     A.U. after    8 cycles
            NFock=  8  Conv=0.47D-08     -V/T= 2.0014
 ExpMin= 2.97D-02 ExpMax= 1.47D+04 ExpMxC= 5.03D+02 IAcc=3 IRadAn=         5 AccDes= 0.00D+00
 HarFok:  IExCor=  205 AccDes= 0.00D+00 IRadAn=         5 IDoV=-2 UseB2=F ITyADJ=14
 ICtDFT= 12500011 ScaDFX=  1.000000  1.000000  1.000000  1.000000
 Range of M.O.s used for correlation:     3    73
 NBasis=    73 NAE=    10 NBE=    10 NFC=     2 NFV=     0
 NROrb=     71 NOA=     8 NOB=     8 NVA=    63 NVB=    63
 Disk-based method using ON**2 memory for  8 occupieds at a time.
 Permanent disk used for amplitudes=      484785 words.
 Estimated scratch disk usage=     6736310 words.
 Actual    scratch disk usage=     6736310 words.
 JobTyp=1 Pass  1:  I=   3 to  10 NPSUse= 28 ParTrn=T ParDer=T DoDerP=T.
 (rs|ai) integrals will be sorted in core.
 Spin components of T(2) and E(2):
     alpha-alpha T2 =       0.1451982395D-01 E2=     -0.5860091983D-01
     alpha-beta  T2 =       0.7888986621D-01 E2=     -0.3286541143D+00
     beta-beta   T2 =       0.1451982395D-01 E2=     -0.5860091983D-01
 ANorm=    0.1052582308D+01
 E2 =    -0.4458559540D+00 EUMP2 =    -0.17653110681930D+03
 G2DrvN: will do     6 centers at a time, making    1 passes.
 Calling FoFCou, ICntrl=  3107 FMM=F I1Cent=   0 AccDes= 0.00D+00.
 End of G2Drv F.D. properties file   721 does not exist.
 End of G2Drv F.D. properties file   722 does not exist.
 End of G2Drv F.D. properties file   788 does not exist.
          IDoAtm=11111
          Differentiating once with respect to electric field.
                with respect to dipole field.
          Differentiating once with respect to nuclear coordinates.
 Keep R1 ints in memory in canonical form, NReq=9491670.
          There are    18 degrees of freedom in the 1st order CPHF.  IDoFFX=6 NUNeed=    18.
     15 vectors produced by pass  0 Test12= 3.50D-15 5.56D-09 XBig12= 2.66D+00 4.91D-01.
 AX will form    15 AO Fock derivatives at one time.
     15 vectors produced by pass  1 Test12= 3.50D-15 5.56D-09 XBig12= 1.09D-01 8.27D-02.
     15 vectors produced by pass  2 Test12= 3.50D-15 5.56D-09 XBig12= 4.61D-03 1.75D-02.
     15 vectors produced by pass  3 Test12= 3.50D-15 5.56D-09 XBig12= 3.33D-05 1.20D-03.
     15 vectors produced by pass  4 Test12= 3.50D-15 5.56D-09 XBig12= 2.27D-07 1.53D-04.
     15 vectors produced by pass  5 Test12= 3.50D-15 5.56D-09 XBig12= 1.45D-09 7.10D-06.
     12 vectors produced by pass  6 Test12= 3.50D-15 5.56D-09 XBig12= 7.97D-12 5.87D-07.
      3 vectors produced by pass  7 Test12= 3.50D-15 5.56D-09 XBig12= 4.12D-14 4.43D-08.
 InvSVY:  IOpt=1 It=  1 EMax= 1.44D-15
 Solved reduced A of dimension   105 with    15 vectors.
 End of Minotr F.D. properties file   721 does not exist.
 End of Minotr F.D. properties file   722 does not exist.
 End of Minotr F.D. properties file   788 does not exist.
 MDV=  5502926848.
 Form MO integral derivatives with frozen-active canonical formalism.
 Discarding MO integrals.
 Reordered first order wavefunction length =       793800
 In DefCFB: NBatch=  1 ICI= 10 ICA= 63 LFMax= 63
            Large arrays: LIAPS=    14164920 LIARS=     8489250 words.
 Semi-Direct transformation.
 ModeAB=           2 MOrb=            10 LenV=    5502651399
 LASXX=      1744560 LTotXX=     1744560 LenRXX=     1744560
 LTotAB=     1815535 MaxLAS=     2192190 LenRXY=     2192190
 NonZer=     3489120 LenScr=     5242880 LnRSAI=           0
 LnScr1=           0 LExtra=           0 Total=      9179630
 MaxDsk=          -1 SrtSym=           F ITran=            4
 JobTyp=0 Pass  1:  I=   1 to  10.
 (rs|ai) integrals will be sorted in core.
 Spin components of T(2) and E(2):
     alpha-alpha T2 =       0.1451982395D-01 E2=     -0.5860091983D-01
     alpha-beta  T2 =       0.7888986621D-01 E2=     -0.3286541143D+00
     beta-beta   T2 =       0.1451982395D-01 E2=     -0.5860091983D-01
 ANorm=    0.1488576175D+01
 E2 =    -0.4458559540D+00 EUMP2 =    -0.17653110681930D+03
          IDoAtm=11111
          Differentiating once with respect to electric field.
                with respect to dipole field.
          Differentiating once with respect to nuclear coordinates.
          There are     1 degrees of freedom in the 1st order CPHF.  IDoFFX=0 NUNeed=     1.
 LinEq1:  Iter=  0 NonCon=     1 RMS=6.40D-03 Max=5.12D-02 NDo=     1
 LinEq1:  Iter=  1 NonCon=     1 RMS=1.54D-03 Max=1.13D-02 NDo=     1
 LinEq1:  Iter=  2 NonCon=     1 RMS=4.35D-04 Max=3.06D-03 NDo=     1
 LinEq1:  Iter=  3 NonCon=     1 RMS=4.82D-05 Max=3.76D-04 NDo=     1
 LinEq1:  Iter=  4 NonCon=     1 RMS=1.35D-05 Max=8.74D-05 NDo=     1
 LinEq1:  Iter=  5 NonCon=     1 RMS=3.33D-06 Max=2.02D-05 NDo=     1
 LinEq1:  Iter=  6 NonCon=     1 RMS=7.31D-07 Max=4.05D-06 NDo=     1
 LinEq1:  Iter=  7 NonCon=     1 RMS=1.36D-07 Max=1.00D-06 NDo=     1
 LinEq1:  Iter=  8 NonCon=     1 RMS=1.41D-08 Max=8.99D-08 NDo=     1
 LinEq1:  Iter=  9 NonCon=     1 RMS=2.24D-09 Max=1.25D-08 NDo=     1
 LinEq1:  Iter= 10 NonCon=     1 RMS=4.49D-10 Max=3.01D-09 NDo=     1
 LinEq1:  Iter= 11 NonCon=     0 RMS=7.06D-11 Max=5.00D-10 NDo=     1
 Linear equations converged to 1.000D-10 1.000D-09 after    11 iterations.
 End of Minotr F.D. properties file   721 does not exist.
 End of Minotr F.D. properties file   722 does not exist.
 End of Minotr F.D. properties file   788 does not exist.
 Symmetrizing basis deriv contribution to polar:
 IMax=3 JMax=2 DiffMx= 0.00D+00
 G2DrvN: will do     6 centers at a time, making    1 passes.
 Calling FoFCou, ICntrl=  3107 FMM=F I1Cent=   0 AccDes= 0.00D+00.
 End of G2Drv F.D. properties file   721 does not exist.
 End of G2Drv F.D. properties file   722 does not exist.
 End of G2Drv F.D. properties file   788 does not exist.
 R2 and R3 integrals will be kept in memory, NReq=     9841012.
 DD1Dir will call FoFMem   1 times, MxPair=       110
 NAB=    55 NAA=     0 NBB=     0.
 Discarding MO integrals.

 **********************************************************************

            Population analysis using the MP2 density.

 **********************************************************************

 Alpha  occ. eigenvalues --  -26.25964 -20.62610  -1.55453  -1.40263  -0.76200
 Alpha  occ. eigenvalues --   -0.73751  -0.63018  -0.60304  -0.60293  -0.55767
 Alpha virt. eigenvalues --    0.02251   0.04968   0.07805   0.15146   0.18428
 Alpha virt. eigenvalues --    0.21174   0.21467   0.24851   0.27743   0.29367
 Alpha virt. eigenvalues --    0.29695   0.32417   0.33806   0.36727   0.39319
 Alpha virt. eigenvalues --    0.48574   0.50189   0.52618   0.56000   0.56461
 Alpha virt. eigenvalues --    0.64396   0.65014   0.79409   0.89967   0.91357
 Alpha virt. eigenvalues --    0.97907   1.12352   1.12363   1.20815   1.33738
 Alpha virt. eigenvalues --    1.37011   1.38741   1.43544   1.49533   1.50881
 Alpha virt. eigenvalues --    1.54174   1.66457   1.80954   1.81710   1.84561
 Alpha virt. eigenvalues --    1.94663   2.00068   2.07676   2.23142   2.42694
 Alpha virt. eigenvalues --    2.42769   2.43355   2.53052   2.62796   2.69643
 Alpha virt. eigenvalues --    2.97519   3.14655   3.64842   3.68038   3.68314
 Alpha virt. eigenvalues --    3.80586   4.00725   4.26088   4.89833   4.89978
 Alpha virt. eigenvalues --    5.02084   5.02840   5.34970
          Condensed to atoms (all electrons):
               1          2          3          4          5
     1  O    7.686472   0.337358   0.337359   0.001014  -0.050481
     2  H    0.337358   0.574293  -0.057680  -0.004852  -0.003077
     3  H    0.337359  -0.057680   0.574294  -0.004852  -0.003077
     4  H    0.001014  -0.004852  -0.004852   0.405945   0.249746
     5  F   -0.050481  -0.003077  -0.003077   0.249746   9.156079
 Mulliken charges:
               1
     1  O   -0.311724
     2  H    0.153958
     3  H    0.153957
     4  H    0.352999
     5  F   -0.349190
 Sum of Mulliken charges =   0.00000
 Mulliken charges with hydrogens summed into heavy atoms:
               1
     1  O   -0.003809
     5  F    0.003809
 APT charges:
               1
     1  O   -0.561239
     2  H    0.278346
     3  H    0.278345
     4  H    0.530826
     5  F   -0.526279
 Sum of APT charges =   0.00000
 APT charges with hydrogens summed into heavy atoms:
               1
     1  O   -0.004547
     5  F    0.004547
 Electronic spatial extent (au):  <R**2>=            160.2936
 Charge=             -0.0000 electrons
 Dipole moment (field-independent basis, Debye):
    X=              3.9806    Y=              0.0000    Z=              1.2907  Tot=              4.1846
 Quadrupole moment (field-independent basis, Debye-Ang):
   XX=            -12.2791   YY=            -10.3267   ZZ=            -13.0484
   XY=              0.0000   XZ=              2.6438   YZ=              0.0000
 Traceless Quadrupole moment (field-independent basis, Debye-Ang):
   XX=             -0.3944   YY=              1.5580   ZZ=             -1.1637
   XY=              0.0000   XZ=              2.6438   YZ=              0.0000
 Octapole moment (field-independent basis, Debye-Ang**2):
  XXX=              9.1710  YYY=              0.0001  ZZZ=              0.6440  XYY=              3.5904
  XXY=             -0.0001  XXZ=              4.6117  XZZ=             -0.6860  YZZ=             -0.0000
  YYZ=              1.0065  XYZ=             -0.0000
 Hexadecapole moment (field-independent basis, Debye-Ang**3):
 XXXX=           -137.5031 YYYY=            -10.8351 ZZZZ=            -12.3084 XXXY=             -0.0006
 XXXZ=              8.4431 YYYX=              0.0001 YYYZ=              0.0000 ZZZX=              1.3576
 ZZZY=             -0.0000 XXYY=            -19.9003 XXZZ=            -26.5653 YYZZ=             -3.8382
 XXYZ=             -0.0001 YYXZ=              1.8175 ZZXY=             -0.0000
 N-N= 3.441471568042D+01 E-N=-4.887167080675D+02  KE= 1.759697819360D+02
  Exact polarizability:  17.465  -0.000  13.376   0.253   0.000  12.560
 Approx polarizability:  11.639  -0.000  10.741   0.441   0.000   9.566
 Calling FoFJK, ICntrl=  10100127 FMM=F ISym2X=0 I1Cent= 0 IOpClX= 0 NMat=1 NMatS=1 NMatT=0.
 -------------------------------------------------------------------
 Center     Atomic                   Forces (Hartrees/Bohr)
 Number     Number              X              Y              Z
 -------------------------------------------------------------------
      1        8          -0.000083014    0.000000821   -0.000010933
      2        1          -0.000015110   -0.000003876    0.000004866
      3        1          -0.000014355    0.000002712    0.000005550
      4        1           0.000007794    0.000000842   -0.000003882
      5        9           0.000104685   -0.000000500    0.000004400
 -------------------------------------------------------------------
 Cartesian Forces:  Max     0.000104685 RMS     0.000035193
 NDeriv=      9 NFrqRd=  0 NDerD0=      0 MskFDP=       0 MskDFD=       0 MskDF0=       0
 Re-enter D2Numr:  normal mode   1 step-up   number 1
 Standard basis: Aug-CC-pVDZ (5D, 7F)
    73 basis functions,   119 primitive gaussians,    77 cartesian basis functions
    10 alpha electrons       10 beta electrons
       nuclear repulsion energy        34.4617172664 Hartrees.
 NAtoms=    5 NActive=    5 NUniq=    5 SFac= 1.00D+00 NAtFMM=   60 NAOKFM=F Big=F
 Integral buffers will be    131072 words long.
 Raffenetti 1 integral format.
 Two-electron integral symmetry is turned off.
 One-electron integrals computed using PRISM.
 NBasis=    73 RedAO= T EigKep=  1.54D-03  NBF=    73
 NBsUse=    73 1.00D-06 EigRej= -1.00D+00 NBFU=    73
 Initial guess from the checkpoint file:  "hf_h2o.chk"
 B after Tr=    -0.000318    0.000000    0.000111
         Rot=    1.000000    0.000000    0.000057    0.000000 Ang=   0.01 deg.
 Keep R1 ints in memory in canonical form, NReq=9490869.
 Requested convergence on RMS density matrix=1.00D-08 within 128 cycles.
 Requested convergence on MAX density matrix=1.00D-06.
 Requested convergence on             energy=1.00D-06.
 No special actions if energy rises.
 SCF Done:  E(RHF) =  -176.085212282     A.U. after    8 cycles
            NFock=  8  Conv=0.45D-08     -V/T= 2.0014
 ExpMin= 2.97D-02 ExpMax= 1.47D+04 ExpMxC= 5.03D+02 IAcc=3 IRadAn=         5 AccDes= 0.00D+00
 HarFok:  IExCor=  205 AccDes= 0.00D+00 IRadAn=         5 IDoV=-2 UseB2=F ITyADJ=14
 ICtDFT= 12500011 ScaDFX=  1.000000  1.000000  1.000000  1.000000
 Range of M.O.s used for correlation:     3    73
 NBasis=    73 NAE=    10 NBE=    10 NFC=     2 NFV=     0
 NROrb=     71 NOA=     8 NOB=     8 NVA=    63 NVB=    63
 Disk-based method using ON**2 memory for  8 occupieds at a time.
 Permanent disk used for amplitudes=      484785 words.
 Estimated scratch disk usage=     6736310 words.
 Actual    scratch disk usage=     6736310 words.
 JobTyp=1 Pass  1:  I=   3 to  10 NPSUse= 28 ParTrn=T ParDer=T DoDerP=T.
 (rs|ai) integrals will be sorted in core.
 Spin components of T(2) and E(2):
     alpha-alpha T2 =       0.1452116306D-01 E2=     -0.5861148678D-01
     alpha-beta  T2 =       0.7888528819D-01 E2=     -0.3286715588D+00
     beta-beta   T2 =       0.1452116306D-01 E2=     -0.5861148678D-01
 ANorm=    0.1052581405D+01
 E2 =    -0.4458945324D+00 EUMP2 =    -0.17653110681449D+03
 G2DrvN: will do     6 centers at a time, making    1 passes.
 Calling FoFCou, ICntrl=  3107 FMM=F I1Cent=   0 AccDes= 0.00D+00.
 End of G2Drv F.D. properties file   721 does not exist.
 End of G2Drv F.D. properties file   722 does not exist.
 End of G2Drv F.D. properties file   788 does not exist.
          IDoAtm=11111
          Differentiating once with respect to electric field.
                with respect to dipole field.
          Differentiating once with respect to nuclear coordinates.
 Keep R1 ints in memory in canonical form, NReq=9491670.
          There are    18 degrees of freedom in the 1st order CPHF.  IDoFFX=6 NUNeed=    18.
     15 vectors produced by pass  0 Test12= 3.50D-15 5.56D-09 XBig12= 2.65D+00 4.90D-01.
 AX will form    15 AO Fock derivatives at one time.
     15 vectors produced by pass  1 Test12= 3.50D-15 5.56D-09 XBig12= 1.08D-01 8.25D-02.
     15 vectors produced by pass  2 Test12= 3.50D-15 5.56D-09 XBig12= 4.61D-03 1.77D-02.
     15 vectors produced by pass  3 Test12= 3.50D-15 5.56D-09 XBig12= 3.33D-05 1.19D-03.
     15 vectors produced by pass  4 Test12= 3.50D-15 5.56D-09 XBig12= 2.26D-07 1.52D-04.
     15 vectors produced by pass  5 Test12= 3.50D-15 5.56D-09 XBig12= 1.45D-09 7.09D-06.
     12 vectors produced by pass  6 Test12= 3.50D-15 5.56D-09 XBig12= 8.00D-12 5.90D-07.
[...]
 0019,0.00421696,-0.00366136,0.04588591,0.04310986,0.03983299,-0.018940
 16,0.00421679,0.00000019,-0.00049269,-0.04797771,-0.03849788,-0.027202
 80,-0.01858562,0.00896133,0.00366132,-0.00049250,0.00000008,0.02407100
 ,0.02023728,-0.00736433,0.00000062,-0.02286839,0.00000043,-0.00800948,
 0.00158795,0.00149903,0.00800950,0.00158891,-0.00149918,0.00000853,-0.
 00607313,-0.00000092,0.00295721,-0.00305586,0.00050991,-0.00171003,-0.
 00305513,-0.00051003,-0.00171008,0.28097226,-0.00001679,0.00000036,0.0
 0181961,-0.00000040,-0.00108486,-0.00113213,0.00188670,0.00108457,-0.0
 0113212,-0.00188667,-0.00000396,-0.01752437,0.00000164,-0.00000118,0.0
 0943374,-0.00000026,0.00195969,-0.00093747,-0.00096952,-0.00195970,-0.
 00093785,0.00096967,-0.00000917,-0.26878815,0.00000389,0.00001036,-0.0
 0003738,-0.00000010,-0.00144357,0.00004415,0.00082529,0.00055093,0.000
 04424,-0.00082527,0.00055092,-0.26128074,0.00001783,0.01796902,0.26122
 972,-0.00001776,0.00000005,-0.00101532,0.00000010,0.00003061,0.0003276
 4,-0.00028961,-0.00003057,0.00032769,0.00028959,0.00000368,0.01798728,
 -0.00000127,-0.00000377,-0.01762729,0.00000119,0.16572807,0.00002006,-
 0.47125296,0.06164655,0.00000860,0.15544831,-0.07921348,-0.00391007,-0
 .03229458,0.06321459,0.00297351,0.23401116,0.00822980,-0.00052273,-0.1
 6303764,-0.03218712,0.00303045,-0.07858179,0.05747516,-0.00633694,0.06
 934022,-0.07921430,0.00389031,-0.03229547,0.01396176,-0.00317888,-0.02
 504664,0.06321531,-0.00299337,0.23401339,-0.00823846,0.00318334,-0.070
 92681,0.00251625,0.00053791,-0.16303971,-0.03218802,-0.00303910,-0.078
 58333,-0.02504662,-0.00251585,0.00996852,0.05747599,0.00634522,0.06934
 171,-0.01043635,-0.00000022,0.00639174,0.00262102,0.00121723,-0.001310
 57,0.00262111,-0.00121704,-0.00131058,0.02838136,-0.00000014,0.0048845
 6,-0.00000003,0.00173368,-0.00048716,0.00098047,-0.00173347,-0.0004873
 2,-0.00098043,-0.00000086,-0.00628987,0.00362639,0.00000003,0.00219382
 ,-0.00025329,0.00086719,-0.00105091,-0.00025318,-0.00086720,-0.0010508
 1,-0.01340117,0.00000031,-0.00098582,0.00313605,-0.00000007,-0.0034482
 3,-0.00058390,-0.00048912,0.00106917,-0.00058388,0.00048916,0.00106923
 ,-0.02318716,0.00000079,0.01028125,0.02121888,-0.00000006,-0.00165614,
 0.00000009,-0.00048422,0.00044045,-0.00019024,0.00048413,0.00044045,0.
 00019017,0.00000089,0.00237978,-0.00000033,-0.00000075,-0.00160453,-0.
 00089780,0.00000002,-0.00047700,0.00011933,-0.00024419,0.00032397,0.00
 011930,0.00024418,0.00032391,0.00963058,-0.00000031,0.00089371,-0.0089
 7142,0.00000031,-0.00106458,0.01580059,0.00000041,-0.17067833,-0.07623
 842,-0.00000495,-0.03003493,-0.00137332,0.06562991,0.03696176,-0.00077
 486,0.05581817,0.09299620,0.05846369,-0.05590638,-0.09828547,0.0338116
 5,0.06406517,0.01806310,-0.03376192,-0.06176249,-0.01635147,-0.0013663
 9,-0.06563111,0.03696455,0.00008548,0.00399345,0.00020005,-0.00078082,
 -0.05581929,0.09297935,-0.05845886,-0.00399372,0.00455461,-0.00327307,
 0.05590775,-0.09826927,0.03381445,-0.06406056,0.01806487,0.00019998,0.
 00327297,-0.00075296,-0.03376460,0.06175800,-0.01635335,0.02683147,0.0
 0000159,0.00658399,0.00538482,-0.00750080,-0.00169708,0.00538382,0.007
 50094,-0.00169722,-2.19035120,-0.00000031,-0.01888118,-0.00000002,-0.0
 0646731,0.00089674,0.00113289,0.00646714,0.00089715,-0.00113283,0.0000
 8262,0.30147535,0.00663945,0.00000031,-0.00881361,-0.00406689,0.000257
 90,-0.00092871,-0.00406710,-0.00025817,-0.00092859,0.15813477,-0.00000
 547,0.28405668,-0.03989236,-0.00000080,-0.00427188,-0.00332211,0.00359
 557,0.00144730,-0.00332208,-0.00359569,0.00144739,2.15275109,-0.000082
 15,-0.15664022,-2.10621454,0.00000102,0.00358396,0.00000014,0.00073750
 ,-0.00016207,-0.00016250,-0.00073723,-0.00016184,0.00016242,-0.0000843
 6,-0.28438806,0.00000543,0.00008307,0.28112802,0.00197287,0.00000003,0
 .00272056,0.00066707,-0.00023208,-0.00002997,0.00066710,0.00023210,-0.
 00002997,-0.16132446,0.00000542,-0.27338577,0.15801741,-0.00000548,0.2
 7072515,-0.16575668,-0.00004314,-1.63516654,-0.59744332,-0.00009179,-0
 .29273709,0.08407785,0.51412471,0.29844193,-0.07121680,0.47455706,0.81
 563501,0.53130177,-0.49566705,-0.85981657,0.29915704,0.57749000,0.1451
 3441,-0.29836652,-0.55421249,-0.13050778,0.08412556,-0.51408158,0.2984
 3799,-0.01440678,0.02065848,-0.00127769,-0.07126462,-0.47451364,0.8154
 2234,-0.53121007,-0.02066340,0.04545539,-0.02317738,0.49562845,-0.8596
 0384,0.29915465,-0.57739816,0.14513903,-0.00127860,0.02317448,-0.01383
 904,-0.29836336,0.55412361,-0.13051247,-0.00535869,-0.00000009,0.00062
 289,0.00227312,0.00159887,0.00072765,0.00227338,-0.00159876,0.00072789
 ,0.23804961,-0.00000030,0.00528902,0.00000018,0.00271540,-0.00189761,-
 0.00012833,-0.00271496,-0.00189760,0.00012817,-0.00000950,-0.03457827,
 -0.00072703,-0.00000007,0.00333296,0.00144141,-0.00051278,-0.00122950,
 0.00144113,0.00051290,-0.00122931,-0.02157866,0.00000067,-0.03265642,0
 .00291196,0.00000010,-0.00005949,-0.00072739,-0.00114737,-0.00024049,-
 0.00072754,0.00114735,-0.00024057,-0.23723742,0.00000936,0.01942314,0.
 23578039,0.00000002,-0.00117983,-0.00000010,-0.00050966,0.00062378,0.0
 0002821,0.00050961,0.00062371,-0.00002810,0.00000948,0.03308446,-0.000
 00072,-0.00000945,-0.03315211,-0.00014135,0.00000002,-0.00086932,-0.00
 023822,0.00024903,0.00044191,-0.00023807,-0.00024906,0.00044180,0.0195
 0023,-0.00000069,0.03178227,-0.01888259,0.00000071,-0.03179666,0.00007
 820,-1.06456157,0.00004652,0.00010102,-1.18794850,0.00005340,0.0775171
 8,0.53093433,0.32170219,-0.07776375,0.53267715,0.82295739,0.59325913,-
 0.52383960,-0.82227077,0.32414885,0.59404503,0.14324334,-0.32311050,-0
 .58447458,-0.14286628,-0.07759562,0.53106089,-0.32180305,0.00000167,-0
 .00825194,-0.00027387,0.07783907,0.53279723,-0.82300367,0.59334854,-0.
 00824859,-0.00000437,-0.00892347,-0.52396306,0.82232557,-0.32424995,0.
 59414174,-0.14329654,0.00027484,-0.00892719,0.00000134,0.32321059,-0.5
 8456759,0.14291665,0.00000024,0.00137297,-0.00000011,-0.00086661,-0.00
 027120,-0.00079989,0.00086626,-0.00027090,0.00079981,-0.00000971,-0.00
 134831,-0.00000026,0.00235385,0.00128754,-0.00085943,-0.00118721,0.001
 28777,0.00085967,-0.00118718,-0.00121110,0.00000152,0.00000005,-0.0002
 8079,-0.00000027,0.00162116,0.00016529,-0.00051437,-0.00162138,0.00016
 509,0.00051459,0.00000107,0.00003692,0.00000144,0.,0.00119338,-0.00000
 006,0.00111151,-0.00031441,0.00003541,-0.00111138,-0.00031468,-0.00003
 530,0.00000983,-0.00001590,-0.00000091,-0.00000994,0.00043550,0.000000
 02,-0.00101301,-0.00013368,0.00017717,0.00054022,-0.00013366,-0.000177
 21,0.00054023,0.00038023,-0.00000149,-0.00008650,-0.00054838,0.0000015
 1,0.00000002,0.00004253,0.00000006,-0.00048769,-0.00002265,0.00013597,
 0.00048770,-0.00002256,-0.00013604,-0.00000088,-0.00001638,-0.00000139
 ,0.00000085,0.00001907,0.00000140,0.01840729,0.00008055,-0.12381988,-0
 .08019723,0.00007443,-0.01127837,-0.00381141,0.03743011,0.03995855,0.0
 0369710,0.03320848,0.06135970,0.03864334,-0.03509312,-0.05845178,0.039
 79800,0.04411027,0.00507889,-0.03661884,-0.04104925,-0.00488629,-0.003
 82620,-0.03751036,0.04002092,0.00010019,0.00203833,-0.00298642,0.00371
 156,-0.03328930,0.06146949,-0.03871755,-0.00203722,-0.00276772,-0.0026
 3359,0.03517228,-0.05856094,0.03986340,-0.04418430,0.00509630,-0.00298
 781,0.00263382,0.00003742,-0.03668245,0.04112266,-0.00490364,-0.002553
 15,0.00000003,0.00018392,-0.00020406,-0.00020476,-0.00032441,-0.000204
 55,0.00020523,-0.00032466,-0.01470615,0.00000090,0.00024527,-0.0000003
 9,-0.00045882,-0.00024699,-0.00058163,0.00045891,-0.00024760,0.0005822
 4,-0.00000331,0.00080260,-0.00047892,-0.00000074,0.00016486,-0.0005358
 1,-0.00025031,-0.00026538,-0.00053598,0.00025123,-0.00026546,0.0052927
 1,-0.00000298,0.00324671,-0.00821653,-0.00000032,0.00003383,0.00021818
 ,0.00005107,0.00013167,0.00021899,-0.00005099,0.00013152,0.01766790,0.
 00000233,-0.00374200,-0.00988851,-0.00000062,0.00074542,0.00000016,0.0
 0015905,0.00010679,0.00015420,-0.00015916,0.00010677,-0.00015442,0.000
 00282,-0.00055328,0.00000279,-0.00000209,-0.00040572,0.00101475,0.0000
 0033,0.00093830,0.00018390,0.00002240,0.00003536,0.00018392,-0.0000227
 4,0.00003536,-0.00482756,0.00000276,-0.00288073,0.00344498,-0.00000274
 ,0.00187171,0.12813316,0.00046055,-0.67300076,-0.27902184,0.00041076,-
 0.13469156,-0.06557695,0.23981344,0.13949921,0.08088124,0.22786224,0.3
 3579929,0.19972205,-0.23378706,-0.37219617,0.14029861,0.22818957,0.066
 51494,-0.14558528,-0.21336289,-0.05918080,-0.06565687,-0.24027109,0.13
 984442,-0.01630442,0.00693502,0.00517650,0.08096243,-0.22832356,0.3364
 0053,-0.20013172,-0.00693312,0.03719452,-0.01440593,0.23424426,-0.3727
 9757,0.14066533,-0.22859971,0.06661681,0.00516674,0.01440848,-0.007010
 71,-0.14594106,0.21376908,-0.05928140,0.00427023,-0.00000547,-0.000736
 29,0.00008087,-0.00189177,0.00019367,0.00007723,0.00189691,0.00019179,
 -0.23258035,0.00000099,0.00305580,-0.00000208,0.00126272,-0.00158326,-
 0.00089030,-0.00126550,-0.00158368,0.00089269,0.00001212,0.07360394,-0
 .00285846,-0.00000148,0.00278841,0.00127963,-0.00112729,-0.00048156,0.
 00128090,0.00112902,-0.00048384,0.01724253,-0.00001840,0.02128850,-0.0
 0116957,0.00000257,0.00041451,0.00091927,0.00088157,-0.00008350,0.0009
 2163,-0.00088449,-0.00008280,0.22815203,-0.00001034,-0.01694460,-0.228
 82336,-0.00000022,-0.00225486,0.00000098,-0.00035598,0.00078562,0.0004
 6955,0.00035731,0.00078620,-0.00047054,-0.00001179,-0.07349280,0.00001
 815,0.00001069,0.07417584,0.00091637,0.00000086,-0.00122860,-0.0003603
 1,0.00035966,0.00015814,-0.00036077,-0.00036045,0.00015915,-0.01689170
 ,0.00001809,-0.02311151,0.01669640,-0.00001815,0.02402282,0.05136190,-
 0.00047708,-0.71354157,-0.47369630,-0.00046340,-0.06293008,-0.02275016
 ,0.21656572,0.23534013,0.01832758,0.19422485,0.35581338,0.22544588,-0.
 20590524,-0.33938230,0.23736857,0.25571035,0.02958460,-0.21749252,-0.2
 4042940,-0.02678853,-0.02259731,-0.21609124,0.23499459,0.00287880,0.01
 218259,-0.01842766,0.01817370,-0.19374651,0.35505887,-0.22498371,-0.01
 218758,-0.01620814,-0.01479549,0.20543417,-0.33862812,0.23700054,-0.25
 524769,0.02948733,-0.01841737,0.01479135,-0.00155201,-0.21713602,0.239
 97262,-0.02669251,-0.00493294,0.00000531,0.00358498,0.00136390,-0.0004
 7746,-0.00205376,0.00136801,0.00047192,-0.00205173,-0.08726908,-0.0000
 0242,0.00380612,0.00000240,0.00198315,-0.00058193,-0.00102953,-0.00198
 004,-0.00058102,0.00102658,0.00000477,0.00700545,-0.00209501,0.0000017
 7,0.00561075,0.00116176,-0.00017134,-0.00192404,0.00116052,0.00016909,
 -0.00192181,0.00833217,0.00002134,0.02654427,-0.00108149,-0.00000271,-
 0.00022341,0.00017988,-0.00002474,0.00060538,0.00017679,0.00002800,0.0
 0060458,0.08947010,-0.00000545,-0.00855944,-0.08874529,0.00000117,-0.0
 0113681,-0.00000117,-0.00045605,0.00035900,0.00054407,0.00045451,0.000
 35841,-0.00054286,-0.00000454,-0.00964863,-0.00002086,0.00000490,0.010
 06803,0.00142219,-0.00000103,-0.00175260,-0.00059200,0.00036351,0.0006
 7997,-0.00059143,-0.00036251,0.00067900,-0.00781166,-0.00002079,-0.028
 30917,0.00757290,0.00002082,0.02870280,-0.01865141,-0.00000248,-0.0565
 3234,-0.02024618,-0.00000615,-0.01545836,0.00424806,0.01001123,0.01317
 639,-0.00197504,0.01372252,0.02623383,0.01954226,-0.01189015,-0.025545
 73,0.01653893,0.02322918,0.00408283,-0.01645134,-0.02099006,-0.0039892
 7,0.00424921,-0.01000869,0.01317411,-0.00019113,-0.00006719,-0.0013137
 0,-0.00197617,-0.01371987,0.02622469,-0.01953607,0.00006720,-0.0005110
 0,-0.00176585,0.01188757,-0.02553657,0.01653710,-0.02322282,0.00408397
 ,-0.00131386,0.00176561,-0.00119347,-0.01644927,0.02098388,-0.00399035
 ,0.01338824,-0.00000022,-0.01022969,-0.00256624,-0.00121301,0.00200030
 ,-0.00256604,0.00121287,0.00200028,-1.41614277,-0.00000052,0.00494978,
 0.00000008,0.00200437,-0.00025164,-0.00064175,-0.00200429,-0.00025169,
 0.00064173,0.00005553,0.14803611,-0.01135183,-0.00000012,0.00717518,0.
 00447230,-0.00029671,0.00057855,0.00447246,0.00029684,0.00057848,0.112
 09955,-0.00000054,0.44462842,-0.00323410,0.00000015,0.00412536,0.00048
 436,-0.00055217,-0.00077419,0.00048412,0.00055223,-0.00077425,1.407886
 82,-0.00005509,-0.10969248,-1.40562119,0.00000035,-0.00087596,-0.00000
 013,-0.00019266,0.00007453,0.00016847,0.00019260,0.00007457,-0.0001684
 0,-0.00005518,-0.15248257,0.00000053,0.00005489,0.15320943,-0.00147803
 ,-0.00000010,0.00011637,0.00011651,-0.00002109,0.00052136,0.00011640,0
 .00002119,0.00052137,-0.10587044,0.00000048,-0.45296064,0.10711556,-0.
 00000047,0.45180153,0.00528571,0.00000436,-0.14313763,-0.04007171,-0.0
 0000168,-0.03148054,-0.00275948,0.03006056,0.01769141,0.00835306,0.038
 10897,0.05924376,0.03433173,-0.03738672,-0.06321801,0.02163473,0.03859
 220,0.01314342,-0.01906186,-0.03547443,-0.01254910,-0.00275501,-0.0300
 6306,0.01769391,-0.00255255,-0.00010455,0.00004457,0.00834736,-0.03811
 207,0.05923621,-0.03433019,0.00010391,0.00516589,-0.00130136,0.0373903
 2,-0.06320972,0.02163814,-0.03859037,0.01314488,0.00004442,0.00130119,
 -0.00101441,-0.01906489,0.03547318,-0.01255011,-0.00009693,-0.00000353
 ,0.00531637,-0.00426086,-0.00058367,-0.00294548,-0.00425851,0.00058378
 ,-0.00294588,-1.26890930,-0.00000088,0.02315706,0.00000035,0.00685215,
 -0.00111198,-0.00137357,-0.00685242,-0.00111266,0.00137305,0.00005291,
 0.39881317,-0.00409267,0.00000002,0.00630668,0.00189030,-0.00019832,0.
 00039076,0.00189057,0.00019821,0.00039036,0.09484149,-0.00000679,0.126
 51022,0.00032570,0.00000167,-0.00062998,0.00121983,-0.00003402,0.00032
 803,0.00121871,0.00003406,0.00032821,1.27752560,-0.00005175,-0.0945296
 9,-1.28028983,-0.00000037,0.00150059,-0.00000020,0.00037011,-0.0000796
 6,-0.00044284,-0.00037029,-0.00007972,0.00044295,-0.00004949,-0.419745
 58,0.00000688,0.00005004,0.41840437,0.00089151,-0.00000016,-0.00111446
 ,-0.00056427,0.00003983,0.00002933,-0.00056416,-0.00003983,0.00002928,
 -0.09426650,0.00000695,-0.13359802,0.09450342,-0.00000679,0.13465388,-
 0.30586765,0.00000593,-0.55548593,-0.36083400,-0.00000462,-0.37153446,
 0.15238066,0.30814398,0.17949798,-0.12911226,0.21351043,0.27622845,0.2
 3013162,-0.25997107,-0.23845542,0.18091288,0.33528498,0.18600632,-0.15
 452917,-0.28275193,-0.16256994,0.15241257,-0.30814988,0.17952053,-0.02
 269030,0.04807798,-0.02635688,-0.12914400,-0.21351632,0.27618634,-0.23
 012702,-0.04807827,-0.03642535,-0.05261069,0.25997722,-0.23841338,0.18
 093951,-0.33528026,0.18601999,-0.02635888,0.05260958,-0.02421514,-0.15
 455371,0.28274829,-0.16258360,0.00357338,0.00000020,0.00181168,-0.0016
 1813,-0.00220887,0.00016870,-0.00161829,0.00220870,0.00016865,-0.00255
 322,-0.00000014,0.00382038,0.00000002,-0.00031669,-0.00164797,-0.00003
 896,0.00031681,-0.00164790,0.00003901,0.00000003,-0.00152679,-0.001290
 22,-0.00000020,-0.00087583,0.00183559,-0.00015357,0.00109529,0.0018355
 1,0.00015384,0.00109522,-0.00331716,-0.00000003,-0.00189140,-0.0024989
 5,-0.00000023,0.00000381,0.00104002,0.00059153,-0.00019552,0.00104002,
 -0.00059133,-0.00019557,0.00221625,-0.00000001,0.00093628,-0.00179734,
 0.00000010,-0.00074923,0.,0.00022206,0.00030029,0.00011660,-0.00022214
 ,0.00030030,-0.00011661,-0.00000006,0.00100228,-0.00000003,0.00000004,
 -0.00085366,0.00027183,0.00000010,0.00038399,-0.00044552,0.00016431,-0
 .00031653,-0.00044545,-0.00016442,-0.00031647,0.00116813,-0.00000004,0
 .00057673,-0.00054899,0.00000004,-0.00032772,0.00110849,-0.00000055,0.
 09300266,0.00129639,0.00000258,0.01147449,-0.00858915,-0.00268539,-0.0
 0271227,0.00122101,-0.01054672,-0.02900951,-0.02175699,0.01362333,0.02
 781173,-0.00685466,-0.02358969,0.00230627,0.00650982,0.02108905,-0.001
 22785,-0.00859013,0.00268367,-0.00271220,0.00176450,0.00297498,0.00069
 258,0.00122380,0.01054550,-0.02900385,0.02175421,-0.00297463,-0.000613
 64,-0.00011025,-0.01362249,0.02780501,-0.00685535,0.02358654,0.0023054
 1,0.00069277,0.00011047,0.00118490,0.00651029,-0.02108621,-0.00122730,
 0.00113661,0.00000142,0.00762490,0.00680857,-0.00770261,-0.00125086,0.
 00680678,0.00770252,-0.00125066,7.92058420,0.00000186,-0.03708129,-0.0
 0000006,-0.00763960,0.00225300,0.00270378,0.00763997,0.00225367,-0.002
 70352,-0.00031961,-1.51971239,0.01163645,0.00000055,-0.01857834,-0.004
 57081,0.00091737,-0.00181508,-0.00457115,-0.00091762,-0.00181484,-0.61
 626864,0.00002030,-1.48933455,0.01493418,0.00000085,-0.00349682,-0.001
 20493,0.00165102,0.00090311,-0.00120494,-0.00165089,0.00090295,-7.9353
 3615,0.00031738,0.61377414,7.92281187,-0.00000009,0.00209201,0.0000002
 6,-0.00032371,-0.00044157,-0.00009289,0.00032388,-0.00044120,0.0000927
 2,0.00031828,1.55228700,-0.00002060,-0.00031836,-1.55349623,0.00077717
 ,0.00000003,0.00249218,0.00008049,-0.00035991,-0.00044823,0.00008047,0
 .00035986,-0.00044817,0.61114526,-0.00002049,1.51154280,-0.61208339,0.
 00002052,-1.51313854,-0.00878156,0.00031799,3.66599928,1.47932364,0.00
 047011,0.32118202,0.00414523,-1.28407865,-0.73999019,-0.03753830,-1.22
 798760,-1.83249542,-1.37617283,1.25581906,1.89600879,-0.74055045,-1.44
 404241,-0.16000951,0.74111033,1.40997425,0.12691428,0.00398984,1.28376
 173,-0.73985553,0.03423952,-0.02882697,-0.00039574,-0.03738293,1.22766
 868,-1.83170063,1.37570280,0.02883689,-0.06516941,0.03368365,-1.255511
 06,1.89521426,-0.74042282,1.44357470,-0.16003237,-0.00039099,-0.033672
 94,0.03224388,0.74098098,-1.40951702,0.12693871,-0.00131667,-0.0000014
 4,0.00101998,-0.00125489,0.00160092,-0.00031953,-0.00125514,-0.0015996
 0,-0.00032384,0.10597280,-0.00000034,-0.00163957,-0.00000294,-0.000672
 63,0.00191056,0.00038798,0.00067411,0.00190828,-0.00038479,-0.00000573
 ,-0.02188871,0.00252365,-0.00000399,-0.00151339,-0.00086948,-0.0002397
 9,0.00118817,-0.00086934,0.00024318,0.00117997,-0.01017712,-0.00000211
 ,-0.01947632,0.00196318,0.00000037,-0.00049790,0.00040845,-0.00060542,
 0.00015539,0.00040871,0.00060509,0.00015666,-0.10214610,0.00000458,0.0
 0939229,0.09936575,0.00000126,-0.00016365,0.00000286,0.00009532,-0.000
 25453,-0.00000347,-0.00009782,-0.00025251,0.00000005,0.00000586,0.0197
 0943,0.00000271,-0.00000463,-0.01903875,-0.00087403,0.00000160,0.00037
 327,0.00014033,0.00011130,-0.00033682,0.00013962,-0.00011261,-0.000330
 19,0.00980052,0.00000186,0.01862157,-0.00920645,-0.00000215,-0.0183278
 5,0.00721006,-0.00054399,3.62751724,1.68427059,-0.00048949,0.38003980,
 -0.00358418,-1.36433465,-0.84099293,0.00355247,-1.36515576,-1.81250069
 ,-1.52506183,1.36450992,1.80367187,-0.84205401,-1.52658685,-0.18873808
 ,0.83730900,1.52554720,0.18673853,-0.00374760,1.36488083,-0.84138289,-
 0.00040010,0.00026623,0.00383103,0.00371552,1.36569882,-1.81287527,1.5
 2555084,-0.00027827,0.00766820,0.00033090,-1.36504266,1.80404574,-0.84
 245484,1.52708100,-0.18888086,0.00383863,-0.00033498,0.00101607,0.8377
 0822,-1.52603612,0.18688379,-0.00061603,-0.00000355,-0.00222432,0.0009
 3986,0.00029189,0.00093119,0.00094066,-0.00028903,0.00092185,-0.001397
 22,-0.00000193,-0.00288839,-0.00000488,0.00006550,0.00148062,0.0012067
 7,-0.00006173,0.00147743,-0.00120150,-0.00000305,0.00014313,0.00058854
 ,-0.00000740,-0.00344295,-0.00036540,-0.00017943,0.00138951,-0.0003651
 6,0.00018561,0.00137353,0.00056254,-0.00000497,0.00113594,0.00073776,0
 .00000135,0.00032955,-0.00050804,0.00008772,-0.00001721,-0.00050847,-0
 .00008885,-0.00001386,0.00013274,0.00000121,-0.00042052,0.00014600,0.0
 0000286,0.00074711,0.00000536,0.00003750,-0.00032000,-0.00049802,-0.00
 004267,-0.00031611,0.00049161,0.00000374,-0.00021280,0.00000618,-0.000
 00143,0.00010178,-0.00035029,0.00000275,0.00102209,0.00021070,0.000029
 05,-0.00040603,0.00020879,-0.00003123,-0.00039253,-0.00019125,0.000004
 57,-0.00045604,0.00012204,-0.00000513,0.00023249\\@


 ... THE UNIVERSE IS NOT ONLY QUEERER THAN WE SUPPOSE,
 BUT QUEERER THAN WE CAN SUPPOSE ... 

                                   -- J. B. S. HALDANE
 Job cpu time:       0 days  2 hours  1 minutes 23.4 seconds.
 Elapsed time:       0 days  0 hours  4 minutes 34.3 seconds.
 File lengths (MBytes):  RWF=    296 Int=      0 D2E=      0 Chk=     44 Scr=      8
 Normal termination of Gaussian 16 at Tue Sep  8 11:32:17 2020.
