 Entering Gaussian System, Link 0=g16
 Input=hf_hf_mp2_avtz_opt_anharm.gjf
 Output=hf_hf_mp2_avtz_opt_anharm.log
 Initial command:
 /sw/contrib/gaussian/g16/A03/g16/l1.exe "/gscratch/scrubbed/gds001/Gau-4241.inp" -scrdir="/gscratch/scrubbed/gds001/"
 Entering Link 1 = /sw/contrib/gaussian/g16/A03/g16/l1.exe PID=      4242.
  
 Copyright (c) 1988,1990,1992,1993,1995,1998,2003,2009,2016,
            Gaussian, Inc.  All Rights Reserved.
  
 This is part of the Gaussian(R) 16 program.  It is based on
 the Gaussian(R) 09 system (copyright 2009, Gaussian, Inc.),
 the Gaussian(R) 03 system (copyright 2003, Gaussian, Inc.),
 the Gaussian(R) 98 system (copyright 1998, Gaussian, Inc.),
 the Gaussian(R) 94 system (copyright 1995, Gaussian, Inc.),
 the Gaussian 92(TM) system (copyright 1992, Gaussian, Inc.),
 the Gaussian 90(TM) system (copyright 1990, Gaussian, Inc.),
 the Gaussian 88(TM) system (copyright 1988, Gaussian, Inc.),
 the Gaussian 86(TM) system (copyright 1986, Carnegie Mellon
 University), and the Gaussian 82(TM) system (copyright 1983,
 Carnegie Mellon University). Gaussian is a federally registered
 trademark of Gaussian, Inc.
  
 This software contains proprietary and confidential information,
 including trade secrets, belonging to Gaussian, Inc.
  
 This software is provided under written license and may be
 used, copied, transmitted, or stored only in accord with that
 written license.
  
 The following legend is applicable only to US Government
 contracts under FAR:
  
                    RESTRICTED RIGHTS LEGEND
  
 Use, reproduction and disclosure by the US Government is
 subject to restrictions as set forth in subparagraphs (a)
 and (c) of the Commercial Computer Software - Restricted
 Rights clause in FAR 52.227-19.
  
 Gaussian, Inc.
 340 Quinnipiac St., Bldg. 40, Wallingford CT 06492
  
  
 ---------------------------------------------------------------
 Warning -- This program may not be used in any manner that
 competes with the business of Gaussian, Inc. or will provide
 assistance to any competitor of Gaussian, Inc.  The licensee
 of this program is prohibited from giving any competitor of
 Gaussian, Inc. access to this program.  By using this program,
 the user acknowledges that Gaussian, Inc. is engaged in the
 business of creating and licensing software in the field of
 computational chemistry and represents and warrants to the
 licensee that it is not a competitor of Gaussian, Inc. and that
 it will not use this program in any manner prohibited above.
 ---------------------------------------------------------------
  

 Cite this work as:
 Gaussian 16, Revision A.03,
 M. J. Frisch, G. W. Trucks, H. B. Schlegel, G. E. Scuseria, 
 M. A. Robb, J. R. Cheeseman, G. Scalmani, V. Barone, 
 G. A. Petersson, H. Nakatsuji, X. Li, M. Caricato, A. V. Marenich, 
 J. Bloino, B. G. Janesko, R. Gomperts, B. Mennucci, H. P. Hratchian, 
 J. V. Ortiz, A. F. Izmaylov, J. L. Sonnenberg, D. Williams-Young, 
 F. Ding, F. Lipparini, F. Egidi, J. Goings, B. Peng, A. Petrone, 
 T. Henderson, D. Ranasinghe, V. G. Zakrzewski, J. Gao, N. Rega, 
 G. Zheng, W. Liang, M. Hada, M. Ehara, K. Toyota, R. Fukuda, 
 J. Hasegawa, M. Ishida, T. Nakajima, Y. Honda, O. Kitao, H. Nakai, 
 T. Vreven, K. Throssell, J. A. Montgomery, Jr., J. E. Peralta, 
 F. Ogliaro, M. J. Bearpark, J. J. Heyd, E. N. Brothers, K. N. Kudin, 
 V. N. Staroverov, T. A. Keith, R. Kobayashi, J. Normand, 
 K. Raghavachari, A. P. Rendell, J. C. Burant, S. S. Iyengar, 
 J. Tomasi, M. Cossi, J. M. Millam, M. Klene, C. Adamo, R. Cammi, 
 J. W. Ochterski, R. L. Martin, K. Morokuma, O. Farkas, 
 J. B. Foresman, and D. J. Fox, Gaussian, Inc., Wallingford CT, 2016.
 
 ******************************************
 Gaussian 16:  ES64L-G16RevA.03 25-Dec-2016
                25-Jun-2021 
 ******************************************
 %nprocshared=28
 Will use up to   28 processors via shared memory.
 %mem=41GB
 %chk=hf_hf_mp2_avtz_opt_anharm.chk
 ----------------------------------------------
 # mp2/aug-cc-pVTZ opt freq=(vibrot,anharmonic)
 ----------------------------------------------
 1/18=20,19=15,38=1,80=1/1,3;
 2/9=110,12=2,17=6,18=5,40=1/2;
 3/5=16,6=1,7=10,11=9,25=1,30=1,71=1/1,2,3;
 4//1;
 5/5=2,38=5/2;
 8/6=4,10=1/1;
 9/15=2,16=-3/6;
 10/5=1/2;
 6/7=2,8=2,9=2,10=2/1;
 7/12=2/1,2,3,16;
 1/18=20,19=15,80=1/3(2);
 2/9=110/2;
 99//99;
 2/9=110/2;
 3/5=16,6=1,7=10,11=9,25=1,30=1,71=1/1,2,3;
 4/5=5,16=3,69=1/1;
 5/5=2,38=5/2;
 8/6=4,10=1/1;
 9/15=2,16=-3/6;
 10/5=1/2;
 7/12=2/1,2,3,16;
 1/18=20,19=15,80=1/3(-8);
 2/9=110/2;
 6/7=2,8=2,9=2,10=2/1;
 99//99;
 ---------
 HF --- FH
 ---------
 Symbolic Z-matrix:
 Charge =  0 Multiplicity = 1
 F                     0.03824   1.43883   0. 
 F                     0.03824  -1.31433   0. 
 H                     0.14421   0.51377   0. 
 H                    -0.83257  -1.6343    0. 
 
 Add virtual bond connecting atoms H3         and F2         Dist= 3.46D+00.

 GradGradGradGradGradGradGradGradGradGradGradGradGradGradGradGradGradGrad
 Berny optimization.
 Initialization pass.
                           ----------------------------
                           !    Initial Parameters    !
                           ! (Angstroms and Degrees)  !
 --------------------------                            --------------------------
 ! Name  Definition              Value          Derivative Info.                !
 --------------------------------------------------------------------------------
 ! R1    R(1,3)                  0.9311         estimate D2E/DX2                !
 ! R2    R(2,3)                  1.8312         estimate D2E/DX2                !
 ! R3    R(2,4)                  0.9277         estimate D2E/DX2                !
 ! A1    A(3,2,4)              113.493          estimate D2E/DX2                !
 ! A2    L(1,3,2,4,-1)         170.1478         estimate D2E/DX2                !
 ! A3    L(1,3,2,4,-2)         180.0            estimate D2E/DX2                !
 --------------------------------------------------------------------------------
 Trust Radius=3.00D-01 FncErr=1.00D-07 GrdErr=1.00D-07 EigMax=2.50D+02 EigMin=1.00D-04
 Number of steps in this run=     20 maximum allowed number of steps=    100.
 GradGradGradGradGradGradGradGradGradGradGradGradGradGradGradGradGradGrad

                          Input orientation:                          
 ---------------------------------------------------------------------
 Center     Atomic      Atomic             Coordinates (Angstroms)
 Number     Number       Type             X           Y           Z
 ---------------------------------------------------------------------
      1          9           0        0.038242    1.438830    0.000000
      2          9           0        0.038242   -1.314327    0.000000
      3          1           0        0.144208    0.513772    0.000000
      4          1           0       -0.832569   -1.634301    0.000000
 ---------------------------------------------------------------------
                    Distance matrix (angstroms):
                    1          2          3          4
     1  F    0.000000
     2  F    2.753157   0.000000
     3  H    0.931107   1.831168   0.000000
     4  H    3.194127   0.927737   2.359727   0.000000
 Stoichiometry    F2H2
 Framework group  CS[SG(F2H2)]
 Deg. of freedom     5
 Full point group                 CS      NOp   2
 Largest Abelian subgroup         CS      NOp   2
 Largest concise Abelian subgroup C1      NOp   1
                         Standard orientation:                         
 ---------------------------------------------------------------------
 Center     Atomic      Atomic             Coordinates (Angstroms)
 Number     Number       Type             X           Y           Z
 ---------------------------------------------------------------------
      1          9           0        0.038242    1.438830    0.000000
      2          9           0        0.038242   -1.314327    0.000000
      3          1           0        0.144208    0.513772    0.000000
      4          1           0       -0.832569   -1.634301    0.000000
 ---------------------------------------------------------------------
 Rotational constants (GHZ):         692.3761464           6.7293722           6.6645974
 Standard basis: Aug-CC-pVTZ (5D, 7F)
 There are   110 symmetry adapted cartesian basis functions of A'  symmetry.
 There are    50 symmetry adapted cartesian basis functions of A"  symmetry.
 There are    92 symmetry adapted basis functions of A'  symmetry.
 There are    46 symmetry adapted basis functions of A"  symmetry.
   138 basis functions,   198 primitive gaussians,   160 cartesian basis functions
    10 alpha electrons       10 beta electrons
       nuclear repulsion energy        30.1334963919 Hartrees.
 NAtoms=    4 NActive=    4 NUniq=    4 SFac= 1.00D+00 NAtFMM=   60 NAOKFM=F Big=F
 Integral buffers will be    131072 words long.
 Raffenetti 1 integral format.
 Two-electron integral symmetry is turned on.
 One-electron integrals computed using PRISM.
 NBasis=   138 RedAO= T EigKep=  1.55D-04  NBF=    92    46
 NBsUse=   138 1.00D-06 EigRej= -1.00D+00 NBFU=    92    46
 ExpMin= 2.53D-02 ExpMax= 1.95D+04 ExpMxC= 6.65D+02 IAcc=3 IRadAn=         5 AccDes= 0.00D+00
 Harris functional with IExCor=  205 and IRadAn=       5 diagonalized for initial guess.
 HarFok:  IExCor=  205 AccDes= 0.00D+00 IRadAn=         5 IDoV= 1 UseB2=F ITyADJ=14
 ICtDFT=  3500011 ScaDFX=  1.000000  1.000000  1.000000  1.000000
 FoFCou: FMM=F IPFlag=           0 FMFlag=      100000 FMFlg1=           0
         NFxFlg=           0 DoJE=T BraDBF=F KetDBF=T FulRan=T
         wScrn=  0.000000 ICntrl=       500 IOpCl=  0 I1Cent=   200000004 NGrid=           0
         NMat0=    1 NMatS0=      1 NMatT0=    0 NMatD0=    1 NMtDS0=    0 NMtDT0=    0
 Petite list used in FoFCou.
 Initial guess orbital symmetries:
       Occupied  (A') (A') (A') (A') (A') (A') (A') (A") (A') (A")
       Virtual   (A') (A') (A') (A') (A") (A') (A') (A') (A") (A')
                 (A") (A') (A') (A") (A') (A') (A') (A') (A') (A')
                 (A") (A') (A") (A") (A') (A') (A") (A') (A") (A')
                 (A") (A') (A") (A') (A') (A') (A") (A') (A') (A')
                 (A") (A') (A') (A") (A') (A') (A") (A') (A") (A')
                 (A') (A') (A') (A') (A") (A') (A') (A") (A') (A")
                 (A') (A") (A") (A') (A') (A') (A") (A') (A") (A')
                 (A') (A") (A') (A') (A') (A") (A") (A') (A') (A")
                 (A') (A") (A') (A') (A") (A") (A') (A') (A") (A")
                 (A') (A') (A') (A') (A') (A') (A") (A') (A") (A')
                 (A') (A') (A") (A') (A") (A') (A") (A') (A") (A')
                 (A") (A') (A') (A") (A") (A') (A") (A') (A') (A")
                 (A') (A') (A") (A') (A') (A') (A') (A')
 The electronic state of the initial guess is 1-A'.
 Keep R1 ints in memory in symmetry-blocked form, NReq=69339745.
 Requested convergence on RMS density matrix=1.00D-08 within 128 cycles.
 Requested convergence on MAX density matrix=1.00D-06.
 Requested convergence on             energy=1.00D-06.
 No special actions if energy rises.
 SCF Done:  E(RHF) =  -200.127009139     A.U. after   10 cycles
            NFock= 10  Conv=0.33D-08     -V/T= 2.0010
 ExpMin= 2.53D-02 ExpMax= 1.95D+04 ExpMxC= 6.65D+02 IAcc=3 IRadAn=         5 AccDes= 0.00D+00
 HarFok:  IExCor=  205 AccDes= 0.00D+00 IRadAn=         5 IDoV=-2 UseB2=F ITyADJ=14
 ICtDFT= 12500011 ScaDFX=  1.000000  1.000000  1.000000  1.000000
 Range of M.O.s used for correlation:     3   138
 NBasis=   138 NAE=    10 NBE=    10 NFC=     2 NFV=     0
 NROrb=    136 NOA=     8 NOB=     8 NVA=   128 NVB=   128

 **** Warning!!: The largest alpha MO coefficient is  0.25391394D+02

 Fully direct method using O(ONN) memory.
 JobTyp=1 Pass  1:  I=   3 to  10 NPSUse= 28 ParTrn=T ParDer=T DoDerP=T.
 Spin components of T(2) and E(2):
     alpha-alpha T2 =       0.1401114311D-01 E2=     -0.7180977073D-01
     alpha-beta  T2 =       0.7633372191D-01 E2=     -0.4186364906D+00
     beta-beta   T2 =       0.1401114311D-01 E2=     -0.7180977073D-01
 ANorm=    0.1050883442D+01
 E2 =    -0.5622560320D+00 EUMP2 =    -0.20068926517093D+03
          IDoAtm=1111
          Differentiating once with respect to electric field.
                with respect to dipole field.
          Differentiating once with respect to nuclear coordinates.
 Keep R1 ints in memory in symmetry-blocked form, NReq=69340669.
          There are     1 degrees of freedom in the 1st order CPHF.  IDoFFX=0 NUNeed=     1.
 LinEq1:  Iter=  0 NonCon=     1 RMS=3.97D-03 Max=4.40D-02 NDo=     1
 AX will form     1 AO Fock derivatives at one time.
 LinEq1:  Iter=  1 NonCon=     1 RMS=5.82D-04 Max=6.51D-03 NDo=     1
 LinEq1:  Iter=  2 NonCon=     1 RMS=2.09D-04 Max=1.61D-03 NDo=     1
 LinEq1:  Iter=  3 NonCon=     1 RMS=4.42D-05 Max=3.81D-04 NDo=     1
 LinEq1:  Iter=  4 NonCon=     1 RMS=5.96D-06 Max=4.15D-05 NDo=     1
 LinEq1:  Iter=  5 NonCon=     1 RMS=8.76D-07 Max=6.34D-06 NDo=     1
 LinEq1:  Iter=  6 NonCon=     1 RMS=3.03D-07 Max=3.48D-06 NDo=     1
 LinEq1:  Iter=  7 NonCon=     1 RMS=7.77D-08 Max=6.22D-07 NDo=     1
 LinEq1:  Iter=  8 NonCon=     1 RMS=1.15D-08 Max=9.52D-08 NDo=     1
 LinEq1:  Iter=  9 NonCon=     1 RMS=1.64D-09 Max=1.33D-08 NDo=     1
 LinEq1:  Iter= 10 NonCon=     1 RMS=3.38D-10 Max=2.59D-09 NDo=     1
 LinEq1:  Iter= 11 NonCon=     0 RMS=5.36D-11 Max=4.49D-10 NDo=     1
 Linear equations converged to 1.000D-10 1.000D-09 after    11 iterations.
 End of Minotr F.D. properties file   721 does not exist.
 End of Minotr F.D. properties file   722 does not exist.
 End of Minotr F.D. properties file   788 does not exist.

 **********************************************************************

            Population analysis using the SCF density.

 **********************************************************************

 Orbital symmetries:
       Occupied  (A') (A') (A') (A') (A') (A') (A") (A') (A') (A")
       Virtual   (A') (A') (A') (A') (A") (A') (A') (A") (A') (A')
                 (A") (A') (A') (A") (A') (A') (A') (A') (A') (A')
                 (A") (A') (A") (A') (A") (A") (A') (A') (A') (A")
                 (A') (A") (A') (A") (A') (A') (A') (A") (A') (A')
                 (A") (A') (A') (A") (A') (A') (A") (A') (A") (A')
                 (A') (A') (A') (A') (A') (A") (A") (A') (A') (A")
                 (A') (A") (A') (A') (A") (A') (A") (A') (A") (A')
                 (A') (A") (A') (A') (A') (A") (A") (A') (A') (A")
                 (A') (A") (A') (A") (A') (A') (A") (A') (A") (A")
                 (A') (A') (A') (A') (A') (A') (A") (A') (A") (A')
                 (A') (A') (A") (A") (A') (A') (A") (A') (A") (A')
                 (A") (A') (A") (A') (A") (A') (A') (A") (A') (A")
                 (A') (A') (A") (A') (A') (A') (A') (A')
 The electronic state is 1-A'.
 Alpha  occ. eigenvalues --  -26.34423 -26.27311  -1.64652  -1.57460  -0.81533
 Alpha  occ. eigenvalues --   -0.75227  -0.69546  -0.68649  -0.62573  -0.62560
 Alpha virt. eigenvalues --    0.01954   0.06223   0.12873   0.15668   0.16716
 Alpha virt. eigenvalues --    0.18462   0.21420   0.23781   0.24870   0.25806
 Alpha virt. eigenvalues --    0.27282   0.29793   0.34386   0.36159   0.40453
 Alpha virt. eigenvalues --    0.43227   0.44118   0.61854   0.65849   0.69026
 Alpha virt. eigenvalues --    0.72691   0.77067   0.80337   0.83747   0.84344
 Alpha virt. eigenvalues --    0.89205   0.89362   0.90504   0.95267   1.00070
 Alpha virt. eigenvalues --    1.04849   1.06399   1.07877   1.10024   1.11356
 Alpha virt. eigenvalues --    1.12028   1.17734   1.18664   1.19572   1.21039
 Alpha virt. eigenvalues --    1.22531   1.27319   1.33923   1.51190   1.52137
 Alpha virt. eigenvalues --    1.58951   1.65428   1.81075   1.84454   1.85469
 Alpha virt. eigenvalues --    2.02981   2.30957   2.36854   2.67185   2.79804
 Alpha virt. eigenvalues --    2.82833   2.83212   2.83642   2.85367   2.86692
 Alpha virt. eigenvalues --    2.95343   2.95350   2.98669   3.00140   3.00635
 Alpha virt. eigenvalues --    3.03820   3.10726   3.12310   3.16523   3.19410
 Alpha virt. eigenvalues --    3.30859   3.31871   3.36141   3.50657   3.56689
 Alpha virt. eigenvalues --    3.58178   3.73476   3.80652   4.02525   4.13697
 Alpha virt. eigenvalues --    4.17205   4.18867   4.22154   4.29164   4.29914
 Alpha virt. eigenvalues --    4.40970   4.43130   4.52384   4.81841   4.84319
 Alpha virt. eigenvalues --    4.87131   5.02751   5.06982   5.44890   5.63788
 Alpha virt. eigenvalues --    5.81998   6.00184   6.04300   6.10277   6.34745
 Alpha virt. eigenvalues --    7.59033   7.72375   8.83419   8.85228   8.85237
 Alpha virt. eigenvalues --    8.86370   8.95969   8.99174   9.00840   9.15883
 Alpha virt. eigenvalues --    9.18683   9.20732   9.31727   9.34672   9.38665
 Alpha virt. eigenvalues --    9.39731   9.40230   9.41428   9.42610   9.53190
 Alpha virt. eigenvalues --    9.57305   9.58691   9.66007   9.73765   9.87582
 Alpha virt. eigenvalues --    9.94424  14.51664  15.81825
          Condensed to atoms (all electrons):
               1          2          3          4
     1  F    9.295400  -0.022379   0.144629   0.001749
     2  F   -0.022379   9.293863  -0.047396   0.194448
     3  H    0.144629  -0.047396   0.470487  -0.003022
     4  H    0.001749   0.194448  -0.003022   0.404193
 Mulliken charges:
               1
     1  F   -0.419398
     2  F   -0.418536
     3  H    0.435302
     4  H    0.402632
 Sum of Mulliken charges =   0.00000
 Mulliken charges with hydrogens summed into heavy atoms:
               1
     1  F    0.015904
     2  F   -0.015904
 Electronic spatial extent (au):  <R**2>=            159.5409
 Charge=              0.0000 electrons
 Dipole moment (field-independent basis, Debye):
    X=             -1.6482    Y=             -3.0605    Z=              0.0000  Tot=              3.4761
 Quadrupole moment (field-independent basis, Debye-Ang):
   XX=             -9.1694   YY=            -12.2153   ZZ=            -11.3810
   XY=              3.2973   XZ=              0.0000   YZ=              0.0000
 Traceless Quadrupole moment (field-independent basis, Debye-Ang):
   XX=              1.7525   YY=             -1.2934   ZZ=             -0.4591
   XY=              3.2973   XZ=              0.0000   YZ=              0.0000
 Octapole moment (field-independent basis, Debye-Ang**2):
  XXX=             -2.0217  YYY=            -10.8776  ZZZ=              0.0000  XYY=             -6.0162
  XXY=             -3.8727  XXZ=              0.0000  XZZ=             -0.1246  YZZ=             -0.4145
  YYZ=              0.0000  XYZ=              0.0000
 Hexadecapole moment (field-independent basis, Debye-Ang**3):
 XXXX=             -6.8983 YYYY=           -125.5381 ZZZZ=             -7.5245 XXXY=              1.1187
 XXXZ=              0.0000 YYYX=              7.5293 YYYZ=              0.0000 ZZZX=              0.0000
 ZZZY=              0.0000 XXYY=            -18.0662 XXZZ=             -2.6656 YYZZ=            -23.5502
 XXYZ=              0.0000 YYXZ=              0.0000 ZZXY=             -0.5572
 N-N= 3.013349639194D+01 E-N=-5.403610942668D+02  KE= 1.999187577031D+02
 Symmetry A'   KE= 1.873970800765D+02
 Symmetry A"   KE= 1.252167762654D+01
 Calling FoFJK, ICntrl=  10002127 FMM=F ISym2X=1 I1Cent= 0 IOpClX= 0 NMat=1 NMatS=1 NMatT=0.
 ***** Axes restored to original set *****
 -------------------------------------------------------------------
 Center     Atomic                   Forces (Hartrees/Bohr)
 Number     Number              X              Y              Z
 -------------------------------------------------------------------
      1        9           0.000365558   -0.003462456   -0.000000000
      2        9          -0.002980701   -0.000838007   -0.000000000
      3        1          -0.000324825    0.003293305   -0.000000000
      4        1           0.002939968    0.001007159   -0.000000000
 -------------------------------------------------------------------
 Cartesian Forces:  Max     0.003462456 RMS     0.001877903

 GradGradGradGradGradGradGradGradGradGradGradGradGradGradGradGradGradGrad
 Berny optimization.
 FormGI is forming the generalized inverse of G from B-inverse, IUseBI=4.
 Internal  Forces:  Max     0.003481565 RMS     0.001906983
 Search for a local minimum.
 Step number   1 out of a maximum of   20
 All quantities printed in internal units (Hartrees-Bohrs-Radians)
 Mixed Optimization -- RFO/linear search
 Second derivative matrix not updated -- first step.
 The second derivative matrix:
                          R1        R2        R3        A1        A2
           R1           0.62183
           R2           0.00000   0.05773
           R3           0.00000   0.00000   0.63035
           A1           0.00000   0.00000   0.00000   0.16000
           A2           0.00000   0.00000   0.00000   0.00000   0.00230
           A3           0.00000   0.00000   0.00000   0.00000   0.00000
                          A3
           A3           0.00230
 ITU=  0
     Eigenvalues ---    0.00230   0.00230   0.05773   0.16000   0.62183
     Eigenvalues ---    0.63035
 RFO step:  Lambda=-3.66372797D-05 EMin= 2.30000000D-03
 Linear search not attempted -- first point.
 Iteration  1 RMS(Cart)=  0.01105303 RMS(Int)=  0.00012035
 Iteration  2 RMS(Cart)=  0.00010881 RMS(Int)=  0.00000000
 Iteration  3 RMS(Cart)=  0.00000000 RMS(Int)=  0.00000000
 ClnCor:  largest displacement from symmetrization is 0.00D+00 for atom     0.
 Variable       Old X    -DE/DX   Delta X   Delta X   Delta X     New X
                                 (Linear)    (Quad)   (Total)
    R1        1.75954  -0.00348   0.00000  -0.00560  -0.00560   1.75394
    R2        3.46041  -0.00017   0.00000  -0.00288  -0.00288   3.45752
    R3        1.75317  -0.00311   0.00000  -0.00493  -0.00493   1.74824
    A1        1.98083   0.00012   0.00000   0.00075   0.00075   1.98158
    A2        2.96964  -0.00005   0.00000  -0.02324  -0.02324   2.94640
    A3        3.14159  -0.00000   0.00000  -0.00000   0.00000   3.14159
         Item               Value     Threshold  Converged?
 Maximum Force            0.003482     0.000450     NO 
 RMS     Force            0.001907     0.000300     NO 
 Maximum Displacement     0.016220     0.001800     NO 
 RMS     Displacement     0.011076     0.001200     NO 
 Predicted change in Energy=-1.832972D-05
 GradGradGradGradGradGradGradGradGradGradGradGradGradGradGradGradGradGrad

                          Input orientation:                          
 ---------------------------------------------------------------------
 Center     Atomic      Atomic             Coordinates (Angstroms)
 Number     Number       Type             X           Y           Z
 ---------------------------------------------------------------------
      1          9           0        0.030629    1.432824    0.000000
      2          9           0        0.037252   -1.313237    0.000000
      3          1           0        0.152791    0.512754    0.000000
      4          1           0       -0.832550   -1.628367    0.000000
 ---------------------------------------------------------------------
                    Distance matrix (angstroms):
                    1          2          3          4
     1  F    0.000000
     2  F    2.746069   0.000000
     3  H    0.928145   1.829642   0.000000
     4  H    3.180561   0.925128   2.356967   0.000000
 Stoichiometry    F2H2
 Framework group  CS[SG(F2H2)]
 Deg. of freedom     5
 Full point group                 CS      NOp   2
 Largest Abelian subgroup         CS      NOp   2
 Largest concise Abelian subgroup C1      NOp   1
                         Standard orientation:                         
 ---------------------------------------------------------------------
 Center     Atomic      Atomic             Coordinates (Angstroms)
 Number     Number       Type             X           Y           Z
 ---------------------------------------------------------------------
      1          9           0        0.037531    1.434704    0.000000
      2          9           0        0.037531   -1.311365    0.000000
      3          1           0        0.157474    0.514342    0.000000
      4          1           0       -0.833029   -1.624396    0.000000
 ---------------------------------------------------------------------
 Rotational constants (GHZ):         689.3359374           6.7657841           6.7000238
 Standard basis: Aug-CC-pVTZ (5D, 7F)
 There are   110 symmetry adapted cartesian basis functions of A'  symmetry.
 There are    50 symmetry adapted cartesian basis functions of A"  symmetry.
 There are    92 symmetry adapted basis functions of A'  symmetry.
 There are    46 symmetry adapted basis functions of A"  symmetry.
   138 basis functions,   198 primitive gaussians,   160 cartesian basis functions
    10 alpha electrons       10 beta electrons
       nuclear repulsion energy        30.2132727280 Hartrees.
 NAtoms=    4 NActive=    4 NUniq=    4 SFac= 1.00D+00 NAtFMM=   60 NAOKFM=F Big=F
 Integral buffers will be    131072 words long.
 Raffenetti 1 integral format.
 Two-electron integral symmetry is turned on.
 One-electron integrals computed using PRISM.
 NBasis=   138 RedAO= T EigKep=  1.54D-04  NBF=    92    46
 NBsUse=   138 1.00D-06 EigRej= -1.00D+00 NBFU=    92    46
 Initial guess from the checkpoint file:  "hf_hf_mp2_avtz_opt_anharm.chk"
 B after Tr=     0.000000    0.000000    0.000000
         Rot=    1.000000    0.000000    0.000000    0.000203 Ang=   0.02 deg.
 Initial guess orbital symmetries:
       Occupied  (A') (A') (A') (A') (A') (A') (A") (A') (A') (A")
       Virtual   (A') (A') (A') (A') (A") (A') (A') (A") (A') (A')
                 (A") (A') (A') (A") (A') (A') (A') (A') (A') (A')
                 (A") (A') (A") (A') (A") (A") (A') (A') (A') (A")
                 (A') (A") (A') (A") (A') (A') (A') (A") (A') (A')
                 (A") (A') (A') (A") (A') (A') (A") (A') (A") (A')
                 (A') (A') (A') (A') (A') (A") (A") (A') (A') (A")
                 (A') (A") (A') (A') (A") (A') (A") (A') (A") (A')
                 (A') (A") (A') (A') (A') (A") (A") (A') (A') (A")
                 (A') (A") (A') (A") (A') (A') (A") (A') (A") (A")
                 (A') (A') (A') (A') (A') (A') (A") (A') (A") (A')
                 (A') (A') (A") (A") (A') (A') (A") (A') (A") (A')
                 (A") (A') (A") (A') (A") (A') (A') (A") (A') (A")
                 (A') (A') (A") (A') (A') (A') (A') (A')
 Keep R1 ints in memory in symmetry-blocked form, NReq=69339745.
 Requested convergence on RMS density matrix=1.00D-08 within 128 cycles.
 Requested convergence on MAX density matrix=1.00D-06.
 Requested convergence on             energy=1.00D-06.
 No special actions if energy rises.
 SCF Done:  E(RHF) =  -200.127328615     A.U. after    8 cycles
            NFock=  8  Conv=0.85D-08     -V/T= 2.0010
 ExpMin= 2.53D-02 ExpMax= 1.95D+04 ExpMxC= 6.65D+02 IAcc=3 IRadAn=         5 AccDes= 0.00D+00
 HarFok:  IExCor=  205 AccDes= 0.00D+00 IRadAn=         5 IDoV=-2 UseB2=F ITyADJ=14
 ICtDFT= 12500011 ScaDFX=  1.000000  1.000000  1.000000  1.000000
 Range of M.O.s used for correlation:     3   138
 NBasis=   138 NAE=    10 NBE=    10 NFC=     2 NFV=     0
 NROrb=    136 NOA=     8 NOB=     8 NVA=   128 NVB=   128

 **** Warning!!: The largest alpha MO coefficient is  0.25522742D+02

 Fully direct method using O(ONN) memory.
 JobTyp=1 Pass  1:  I=   3 to  10 NPSUse= 28 ParTrn=T ParDer=T DoDerP=T.
 Spin components of T(2) and E(2):
     alpha-alpha T2 =       0.1398471928D-01 E2=     -0.7177207485D-01
     alpha-beta  T2 =       0.7616996002D-01 E2=     -0.4184095369D+00
     beta-beta   T2 =       0.1398471928D-01 E2=     -0.7177207485D-01
 ANorm=    0.1050780376D+01
 E2 =    -0.5619536866D+00 EUMP2 =    -0.20068928230202D+03
          IDoAtm=1111
          Differentiating once with respect to electric field.
                with respect to dipole field.
          Differentiating once with respect to nuclear coordinates.
 Keep R1 ints in memory in symmetry-blocked form, NReq=69340669.
          There are     1 degrees of freedom in the 1st order CPHF.  IDoFFX=0 NUNeed=     1.
 LinEq1:  Iter=  0 NonCon=     1 RMS=3.96D-03 Max=4.38D-02 NDo=     1
 AX will form     1 AO Fock derivatives at one time.
 LinEq1:  Iter=  1 NonCon=     1 RMS=5.77D-04 Max=6.47D-03 NDo=     1
 LinEq1:  Iter=  2 NonCon=     1 RMS=2.08D-04 Max=1.61D-03 NDo=     1
 LinEq1:  Iter=  3 NonCon=     1 RMS=4.37D-05 Max=3.78D-04 NDo=     1
 LinEq1:  Iter=  4 NonCon=     1 RMS=5.88D-06 Max=4.11D-05 NDo=     1
 LinEq1:  Iter=  5 NonCon=     1 RMS=8.65D-07 Max=6.25D-06 NDo=     1
 LinEq1:  Iter=  6 NonCon=     1 RMS=2.98D-07 Max=3.41D-06 NDo=     1
 LinEq1:  Iter=  7 NonCon=     1 RMS=7.69D-08 Max=6.56D-07 NDo=     1
 LinEq1:  Iter=  8 NonCon=     1 RMS=1.14D-08 Max=9.62D-08 NDo=     1
 LinEq1:  Iter=  9 NonCon=     1 RMS=1.62D-09 Max=1.31D-08 NDo=     1
 LinEq1:  Iter= 10 NonCon=     1 RMS=3.34D-10 Max=2.49D-09 NDo=     1
 LinEq1:  Iter= 11 NonCon=     0 RMS=5.22D-11 Max=4.44D-10 NDo=     1
 Linear equations converged to 1.000D-10 1.000D-09 after    11 iterations.
 End of Minotr F.D. properties file   721 does not exist.
 End of Minotr F.D. properties file   722 does not exist.
 End of Minotr F.D. properties file   788 does not exist.
 Calling FoFJK, ICntrl=  10002127 FMM=F ISym2X=1 I1Cent= 0 IOpClX= 0 NMat=1 NMatS=1 NMatT=0.
 ***** Axes restored to original set *****
 -------------------------------------------------------------------
 Center     Atomic                   Forces (Hartrees/Bohr)
 Number     Number              X              Y              Z
 -------------------------------------------------------------------
      1        9           0.000131749   -0.000157170   -0.000000000
      2        9          -0.000133189   -0.000047069   -0.000000000
      3        1          -0.000182744    0.000148870   -0.000000000
      4        1           0.000184184    0.000055369   -0.000000000
 -------------------------------------------------------------------
 Cartesian Forces:  Max     0.000184184 RMS     0.000113491

 GradGradGradGradGradGradGradGradGradGradGradGradGradGradGradGradGradGrad
 Berny optimization.
 Using GEDIIS/GDIIS optimizer.
 FormGI is forming the generalized inverse of G from B-inverse, IUseBI=4.
 Internal  Forces:  Max     0.000192794 RMS     0.000131974
 Search for a local minimum.
 Step number   2 out of a maximum of   20
 All quantities printed in internal units (Hartrees-Bohrs-Radians)
 Mixed Optimization -- En-DIIS/RFO-DIIS
 Update second derivatives using D2CorX and points    1    2
 DE= -1.71D-05 DEPred=-1.83D-05 R= 9.35D-01
 TightC=F SS=  1.41D+00  RLast= 2.46D-02 DXNew= 5.0454D-01 7.3765D-02
 Trust test= 9.35D-01 RLast= 2.46D-02 DXMaxT set to 3.00D-01
 The second derivative matrix:
                          R1        R2        R3        A1        A2
           R1           0.57037
           R2          -0.00272   0.05759
           R3          -0.04909  -0.00258   0.58374
           A1           0.00285   0.00014   0.00264   0.15987
           A2           0.01580   0.00074   0.01386  -0.00047   0.00378
           A3           0.00000   0.00000   0.00000  -0.00000   0.00000
                          A3
           A3           0.00230
 ITU=  1  0
 Use linear search instead of GDIIS.
     Eigenvalues ---    0.00230   0.00292   0.05758   0.15983   0.52842
     Eigenvalues ---    0.62660
 RFO step:  Lambda=-1.38929832D-05 EMin= 2.30000000D-03
 Quartic linear search produced a step of -0.06364.
 Iteration  1 RMS(Cart)=  0.02970542 RMS(Int)=  0.00106136
 Iteration  2 RMS(Cart)=  0.00100884 RMS(Int)=  0.00000004
 Iteration  3 RMS(Cart)=  0.00000004 RMS(Int)=  0.00000000
 ClnCor:  largest displacement from symmetrization is 2.81D-15 for atom     4.
 Variable       Old X    -DE/DX   Delta X   Delta X   Delta X     New X
                                 (Linear)    (Quad)   (Total)
    R1        1.75394  -0.00017   0.00036  -0.00276  -0.00240   1.75154
    R2        3.45752  -0.00001   0.00018  -0.00148  -0.00129   3.45623
    R3        1.74824  -0.00019   0.00031  -0.00249  -0.00217   1.74607
    A1        1.98158   0.00002  -0.00005   0.00045   0.00040   1.98198
    A2        2.94640   0.00019   0.00148   0.06730   0.06878   3.01518
    A3        3.14159  -0.00000   0.00000  -0.00000   0.00000   3.14159
         Item               Value     Threshold  Converged?
 Maximum Force            0.000193     0.000450     YES
 RMS     Force            0.000132     0.000300     YES
 Maximum Displacement     0.051938     0.001800     NO 
 RMS     Displacement     0.029519     0.001200     NO 
 Predicted change in Energy=-7.123715D-06
 GradGradGradGradGradGradGradGradGradGradGradGradGradGradGradGradGradGrad

                          Input orientation:                          
 ---------------------------------------------------------------------
 Center     Atomic      Atomic             Coordinates (Angstroms)
 Number     Number       Type             X           Y           Z
 ---------------------------------------------------------------------
      1          9           0        0.053093    1.439412    0.000000
      2          9           0        0.036785   -1.311458    0.000000
      3          1           0        0.125307    0.515357    0.000000
      4          1           0       -0.827062   -1.639337    0.000000
 ---------------------------------------------------------------------
                    Distance matrix (angstroms):
                    1          2          3          4
     1  F    0.000000
     2  F    2.750919   0.000000
     3  H    0.926873   1.828959   0.000000
     4  H    3.202089   0.923979   2.355784   0.000000
 Stoichiometry    F2H2
 Framework group  CS[SG(F2H2)]
 Deg. of freedom     5
 Full point group                 CS      NOp   2
 Largest Abelian subgroup         CS      NOp   2
 Largest concise Abelian subgroup C1      NOp   1
                         Standard orientation:                         
 ---------------------------------------------------------------------
 Center     Atomic      Atomic             Coordinates (Angstroms)
 Number     Number       Type             X           Y           Z
 ---------------------------------------------------------------------
      1          9           0        0.039210    1.438290    0.000000
      2          9           0        0.039210   -1.312629    0.000000
      3          1           0        0.116901    0.514679    0.000000
      4          1           0       -0.822679   -1.645624    0.000000
 ---------------------------------------------------------------------
 Rotational constants (GHZ):         712.7307604           6.7363097           6.6732382
 Standard basis: Aug-CC-pVTZ (5D, 7F)
 There are   110 symmetry adapted cartesian basis functions of A'  symmetry.
 There are    50 symmetry adapted cartesian basis functions of A"  symmetry.
 There are    92 symmetry adapted basis functions of A'  symmetry.
 There are    46 symmetry adapted basis functions of A"  symmetry.
   138 basis functions,   198 primitive gaussians,   160 cartesian basis functions
    10 alpha electrons       10 beta electrons
       nuclear repulsion energy        30.1902184482 Hartrees.
 NAtoms=    4 NActive=    4 NUniq=    4 SFac= 1.00D+00 NAtFMM=   60 NAOKFM=F Big=F
 Integral buffers will be    131072 words long.
 Raffenetti 1 integral format.
 Two-electron integral symmetry is turned on.
 One-electron integrals computed using PRISM.
 NBasis=   138 RedAO= T EigKep=  1.52D-04  NBF=    92    46
 NBsUse=   138 1.00D-06 EigRej= -1.00D+00 NBFU=    92    46
 Initial guess from the checkpoint file:  "hf_hf_mp2_avtz_opt_anharm.chk"
 B after Tr=    -0.000000    0.000000    0.000000
         Rot=    1.000000   -0.000000   -0.000000   -0.000720 Ang=  -0.08 deg.
 Initial guess orbital symmetries:
       Occupied  (A') (A') (A') (A') (A') (A') (A") (A') (A') (A")
       Virtual   (A') (A') (A') (A') (A") (A') (A') (A") (A') (A')
                 (A") (A') (A') (A") (A') (A') (A') (A') (A') (A')
                 (A") (A') (A") (A') (A") (A") (A') (A') (A') (A")
                 (A') (A") (A') (A") (A') (A') (A') (A") (A') (A')
                 (A") (A') (A') (A") (A') (A') (A") (A') (A") (A')
                 (A') (A') (A') (A') (A') (A") (A") (A') (A') (A")
                 (A') (A") (A') (A') (A") (A') (A") (A') (A") (A')
                 (A') (A") (A') (A') (A') (A") (A") (A') (A') (A")
                 (A') (A") (A') (A") (A') (A') (A") (A') (A") (A")
                 (A') (A') (A') (A') (A') (A') (A") (A') (A") (A')
                 (A') (A') (A") (A") (A') (A') (A") (A') (A") (A')
                 (A") (A') (A") (A') (A") (A') (A') (A") (A') (A")
                 (A') (A') (A") (A') (A') (A') (A') (A')
 ExpMin= 2.53D-02 ExpMax= 1.95D+04 ExpMxC= 6.65D+02 IAcc=3 IRadAn=         5 AccDes= 0.00D+00
 Harris functional with IExCor=  205 and IRadAn=       5 diagonalized for initial guess.
 HarFok:  IExCor=  205 AccDes= 0.00D+00 IRadAn=         5 IDoV= 1 UseB2=F ITyADJ=14
 ICtDFT=  3500011 ScaDFX=  1.000000  1.000000  1.000000  1.000000
 FoFCou: FMM=F IPFlag=           0 FMFlag=      100000 FMFlg1=           0
         NFxFlg=           0 DoJE=T BraDBF=F KetDBF=T FulRan=T
         wScrn=  0.000000 ICntrl=       500 IOpCl=  0 I1Cent=   200000004 NGrid=           0
         NMat0=    1 NMatS0=      1 NMatT0=    0 NMatD0=    1 NMtDS0=    0 NMtDT0=    0
 Petite list used in FoFCou.
 Keep R1 ints in memory in symmetry-blocked form, NReq=69339745.
 Requested convergence on RMS density matrix=1.00D-08 within 128 cycles.
 Requested convergence on MAX density matrix=1.00D-06.
 Requested convergence on             energy=1.00D-06.
 No special actions if energy rises.
 SCF Done:  E(RHF) =  -200.127416351     A.U. after    9 cycles
            NFock=  9  Conv=0.47D-08     -V/T= 2.0010
 ExpMin= 2.53D-02 ExpMax= 1.95D+04 ExpMxC= 6.65D+02 IAcc=3 IRadAn=         5 AccDes= 0.00D+00
 HarFok:  IExCor=  205 AccDes= 0.00D+00 IRadAn=         5 IDoV=-2 UseB2=F ITyADJ=14
 ICtDFT= 12500011 ScaDFX=  1.000000  1.000000  1.000000  1.000000
 Range of M.O.s used for correlation:     3   138
 NBasis=   138 NAE=    10 NBE=    10 NFC=     2 NFV=     0
 NROrb=    136 NOA=     8 NOB=     8 NVA=   128 NVB=   128

 **** Warning!!: The largest alpha MO coefficient is  0.25702513D+02

 Fully direct method using O(ONN) memory.
 JobTyp=1 Pass  1:  I=   3 to  10 NPSUse= 28 ParTrn=T ParDer=T DoDerP=T.
 Spin components of T(2) and E(2):
     alpha-alpha T2 =       0.1397635244D-01 E2=     -0.7175824761D-01
     alpha-beta  T2 =       0.7611714742D-01 E2=     -0.4183372436D+00
     beta-beta   T2 =       0.1397635244D-01 E2=     -0.7175824761D-01
 ANorm=    0.1050747283D+01
 E2 =    -0.5618537388D+00 EUMP2 =    -0.20068927009016D+03
          IDoAtm=1111
          Differentiating once with respect to electric field.
                with respect to dipole field.
          Differentiating once with respect to nuclear coordinates.
 Keep R1 ints in memory in symmetry-blocked form, NReq=69340669.
          There are     1 degrees of freedom in the 1st order CPHF.  IDoFFX=0 NUNeed=     1.
 LinEq1:  Iter=  0 NonCon=     1 RMS=3.96D-03 Max=4.37D-02 NDo=     1
 AX will form     1 AO Fock derivatives at one time.
 LinEq1:  Iter=  1 NonCon=     1 RMS=5.77D-04 Max=6.33D-03 NDo=     1
 LinEq1:  Iter=  2 NonCon=     1 RMS=2.08D-04 Max=1.62D-03 NDo=     1
 LinEq1:  Iter=  3 NonCon=     1 RMS=4.37D-05 Max=3.77D-04 NDo=     1
 LinEq1:  Iter=  4 NonCon=     1 RMS=5.89D-06 Max=4.10D-05 NDo=     1
 LinEq1:  Iter=  5 NonCon=     1 RMS=8.47D-07 Max=6.19D-06 NDo=     1
 LinEq1:  Iter=  6 NonCon=     1 RMS=2.82D-07 Max=3.28D-06 NDo=     1
 LinEq1:  Iter=  7 NonCon=     1 RMS=7.47D-08 Max=5.48D-07 NDo=     1
 LinEq1:  Iter=  8 NonCon=     1 RMS=1.09D-08 Max=8.46D-08 NDo=     1
 LinEq1:  Iter=  9 NonCon=     1 RMS=1.55D-09 Max=1.29D-08 NDo=     1
 LinEq1:  Iter= 10 NonCon=     1 RMS=3.21D-10 Max=2.57D-09 NDo=     1
 LinEq1:  Iter= 11 NonCon=     0 RMS=5.13D-11 Max=4.32D-10 NDo=     1
 Linear equations converged to 1.000D-10 1.000D-09 after    11 iterations.
 End of Minotr F.D. properties file   721 does not exist.
 End of Minotr F.D. properties file   722 does not exist.
 End of Minotr F.D. properties file   788 does not exist.
 Calling FoFJK, ICntrl=  10002127 FMM=F ISym2X=1 I1Cent= 0 IOpClX= 0 NMat=1 NMatS=1 NMatT=0.
 ***** Axes restored to original set *****
 -------------------------------------------------------------------
 Center     Atomic                   Forces (Hartrees/Bohr)
 Number     Number              X              Y              Z
 -------------------------------------------------------------------
      1        9          -0.000366528    0.001146119   -0.000000000
      2        9           0.000759227    0.000710651   -0.000000000
      3        1           0.000608984   -0.001249533   -0.000000000
      4        1          -0.001001683   -0.000607237   -0.000000000
 -------------------------------------------------------------------
 Cartesian Forces:  Max     0.001249533 RMS     0.000697238

 GradGradGradGradGradGradGradGradGradGradGradGradGradGradGradGradGradGrad
 Berny optimization.
 Using GEDIIS/GDIIS optimizer.
 FormGI is forming the generalized inverse of G from B-inverse, IUseBI=4.
 Internal  Forces:  Max     0.001171193 RMS     0.000716286
 Search for a local minimum.
 Step number   3 out of a maximum of   20
 All quantities printed in internal units (Hartrees-Bohrs-Radians)
 Mixed Optimization -- En-DIIS/RFO-DIIS
 Swapping is turned off.
 Update second derivatives using D2CorX and points    1    2    3
 DE=  1.22D-05 DEPred=-7.12D-06 R=-1.71D+00
 Trust test=-1.71D+00 RLast= 6.89D-02 DXMaxT set to 1.50D-01
 The second derivative matrix:
                          R1        R2        R3        A1        A2
           R1           0.50057
           R2          -0.01355   0.05720
           R3          -0.10695  -0.01241   0.53635
           A1           0.02619   0.00018   0.02437   0.16206
           A2          -0.00583   0.00137  -0.00671  -0.00436   0.00947
           A3           0.00000  -0.00000   0.00000   0.00000  -0.00000
                          A3
           A3           0.00230
 ITU= -1  1  0
     Eigenvalues ---    0.00230   0.00917   0.05622   0.15714   0.41621
     Eigenvalues ---    0.62690
 En-DIIS/RFO-DIIS/Sim-DIIS IScMMF=       -3 using points:     3    2
 RFO step:  Lambda=-2.81933233D-05.
 DidBck=T Rises=T En-DIIS coefs:    0.38355    0.61645
 Iteration  1 RMS(Cart)=  0.02044900 RMS(Int)=  0.00051670
 Iteration  2 RMS(Cart)=  0.00049915 RMS(Int)=  0.00000003
 Iteration  3 RMS(Cart)=  0.00000003 RMS(Int)=  0.00000000
 ClnCor:  largest displacement from symmetrization is 4.44D-16 for atom     2.
 Variable       Old X    -DE/DX   Delta X   Delta X   Delta X     New X
                                 (Linear)    (Quad)   (Total)
    R1        1.75154   0.00117   0.00148   0.00071   0.00220   1.75373
    R2        3.45623  -0.00009   0.00080  -0.00029   0.00050   3.45674
    R3        1.74607   0.00115   0.00134   0.00064   0.00198   1.74805
    A1        1.98198   0.00037  -0.00024   0.00058   0.00034   1.98231
    A2        3.01518  -0.00048  -0.04240  -0.00582  -0.04822   2.96696
    A3        3.14159   0.00000   0.00000  -0.00000   0.00000   3.14159
         Item               Value     Threshold  Converged?
 Maximum Force            0.001171     0.000450     NO 
 RMS     Force            0.000716     0.000300     NO 
 Maximum Displacement     0.036543     0.001800     NO 
 RMS     Displacement     0.020546     0.001200     NO 
 Predicted change in Energy=-1.412954D-05
 GradGradGradGradGradGradGradGradGradGradGradGradGradGradGradGradGradGrad

                          Input orientation:                          
 ---------------------------------------------------------------------
 Center     Atomic      Atomic             Coordinates (Angstroms)
 Number     Number       Type             X           Y           Z
 ---------------------------------------------------------------------
      1          9           0        0.037431    1.435267    0.000000
      2          9           0        0.037070   -1.312614    0.000000
      3          1           0        0.144645    0.513445    0.000000
      4          1           0       -0.831023   -1.632124    0.000000
 ---------------------------------------------------------------------
                    Distance matrix (angstroms):
                    1          2          3          4
     1  F    0.000000
     2  F    2.747881   0.000000
     3  H    0.928035   1.829226   0.000000
     4  H    3.187961   0.925026   2.356989   0.000000
 Stoichiometry    F2H2
 Framework group  CS[SG(F2H2)]
 Deg. of freedom     5
 Full point group                 CS      NOp   2
 Largest Abelian subgroup         CS      NOp   2
 Largest concise Abelian subgroup C1      NOp   1
                         Standard orientation:                         
 ---------------------------------------------------------------------
 Center     Atomic      Atomic             Coordinates (Angstroms)
 Number     Number       Type             X           Y           Z
 ---------------------------------------------------------------------
      1          9           0        0.038036    1.436012    0.000000
      2          9           0        0.038036   -1.311869    0.000000
      3          1           0        0.145371    0.514205    0.000000
      4          1           0       -0.830016   -1.631492    0.000000
 ---------------------------------------------------------------------
 Rotational constants (GHZ):         696.4168666           6.7550317           6.6901394
 Standard basis: Aug-CC-pVTZ (5D, 7F)
 There are   110 symmetry adapted cartesian basis functions of A'  symmetry.
 There are    50 symmetry adapted cartesian basis functions of A"  symmetry.
 There are    92 symmetry adapted basis functions of A'  symmetry.
 There are    46 symmetry adapted basis functions of A"  symmetry.
   138 basis functions,   198 primitive gaussians,   160 cartesian basis functions
    10 alpha electrons       10 beta electrons
       nuclear repulsion energy        30.2012707010 Hartrees.
 NAtoms=    4 NActive=    4 NUniq=    4 SFac= 1.00D+00 NAtFMM=   60 NAOKFM=F Big=F
 Integral buffers will be    131072 words long.
 Raffenetti 1 integral format.
 Two-electron integral symmetry is turned on.
 One-electron integrals computed using PRISM.
 NBasis=   138 RedAO= T EigKep=  1.54D-04  NBF=    92    46
 NBsUse=   138 1.00D-06 EigRej= -1.00D+00 NBFU=    92    46
 Initial guess from the checkpoint file:  "hf_hf_mp2_avtz_opt_anharm.chk"
 B after Tr=    -0.000000   -0.000000    0.000000
         Rot=    1.000000    0.000000    0.000000    0.000498 Ang=   0.06 deg.
 Initial guess orbital symmetries:
       Occupied  (A') (A') (A') (A') (A') (A') (A") (A') (A') (A")
       Virtual   (A') (A') (A') (A') (A") (A') (A') (A") (A') (A')
                 (A") (A') (A') (A") (A') (A') (A') (A') (A') (A')
                 (A") (A') (A") (A') (A") (A") (A') (A') (A') (A")
                 (A') (A") (A') (A") (A') (A') (A') (A") (A') (A')
                 (A") (A') (A') (A") (A') (A') (A") (A') (A") (A')
                 (A') (A') (A') (A') (A') (A") (A") (A') (A') (A")
                 (A") (A') (A') (A') (A") (A') (A") (A') (A") (A')
                 (A") (A') (A') (A') (A') (A") (A") (A') (A') (A")
                 (A') (A") (A') (A") (A') (A') (A") (A') (A") (A")
                 (A') (A') (A') (A') (A') (A') (A") (A') (A") (A')
                 (A') (A') (A") (A") (A') (A') (A") (A') (A") (A')
                 (A") (A') (A") (A') (A") (A') (A') (A") (A') (A")
                 (A') (A') (A") (A') (A') (A') (A') (A')
 ExpMin= 2.53D-02 ExpMax= 1.95D+04 ExpMxC= 6.65D+02 IAcc=3 IRadAn=         5 AccDes= 0.00D+00
 Harris functional with IExCor=  205 and IRadAn=       5 diagonalized for initial guess.
 HarFok:  IExCor=  205 AccDes= 0.00D+00 IRadAn=         5 IDoV= 1 UseB2=F ITyADJ=14
 ICtDFT=  3500011 ScaDFX=  1.000000  1.000000  1.000000  1.000000
 FoFCou: FMM=F IPFlag=           0 FMFlag=      100000 FMFlg1=           0
         NFxFlg=           0 DoJE=T BraDBF=F KetDBF=T FulRan=T
         wScrn=  0.000000 ICntrl=       500 IOpCl=  0 I1Cent=   200000004 NGrid=           0
         NMat0=    1 NMatS0=      1 NMatT0=    0 NMatD0=    1 NMtDS0=    0 NMtDT0=    0
 Petite list used in FoFCou.
 Keep R1 ints in memory in symmetry-blocked form, NReq=69339745.
 Requested convergence on RMS density matrix=1.00D-08 within 128 cycles.
 Requested convergence on MAX density matrix=1.00D-06.
 Requested convergence on             energy=1.00D-06.
 No special actions if energy rises.
 SCF Done:  E(RHF) =  -200.127333633     A.U. after    9 cycles
            NFock=  9  Conv=0.32D-08     -V/T= 2.0010
 ExpMin= 2.53D-02 ExpMax= 1.95D+04 ExpMxC= 6.65D+02 IAcc=3 IRadAn=         5 AccDes= 0.00D+00
 HarFok:  IExCor=  205 AccDes= 0.00D+00 IRadAn=         5 IDoV=-2 UseB2=F ITyADJ=14
 ICtDFT= 12500011 ScaDFX=  1.000000  1.000000  1.000000  1.000000
 Range of M.O.s used for correlation:     3   138
 NBasis=   138 NAE=    10 NBE=    10 NFC=     2 NFV=     0
 NROrb=    136 NOA=     8 NOB=     8 NVA=   128 NVB=   128

 **** Warning!!: The largest alpha MO coefficient is  0.25564083D+02

 Fully direct method using O(ONN) memory.
 JobTyp=1 Pass  1:  I=   3 to  10 NPSUse= 28 ParTrn=T ParDer=T DoDerP=T.
 Spin components of T(2) and E(2):
     alpha-alpha T2 =       0.1398451092D-01 E2=     -0.7177146234D-01
     alpha-beta  T2 =       0.7616803561D-01 E2=     -0.4184077581D+00
     beta-beta   T2 =       0.1398451092D-01 E2=     -0.7177146234D-01
 ANorm=    0.1050779262D+01
 E2 =    -0.5619506828D+00 EUMP2 =    -0.20068928431567D+03
          IDoAtm=1111
          Differentiating once with respect to electric field.
                with respect to dipole field.
          Differentiating once with respect to nuclear coordinates.
 Keep R1 ints in memory in symmetry-blocked form, NReq=69340669.
          There are     1 degrees of freedom in the 1st order CPHF.  IDoFFX=0 NUNeed=     1.
 LinEq1:  Iter=  0 NonCon=     1 RMS=3.96D-03 Max=4.38D-02 NDo=     1
 AX will form     1 AO Fock derivatives at one time.
 LinEq1:  Iter=  1 NonCon=     1 RMS=5.77D-04 Max=6.44D-03 NDo=     1
 LinEq1:  Iter=  2 NonCon=     1 RMS=2.08D-04 Max=1.61D-03 NDo=     1
 LinEq1:  Iter=  3 NonCon=     1 RMS=4.38D-05 Max=3.78D-04 NDo=     1
 LinEq1:  Iter=  4 NonCon=     1 RMS=5.89D-06 Max=4.11D-05 NDo=     1
 LinEq1:  Iter=  5 NonCon=     1 RMS=8.62D-07 Max=6.25D-06 NDo=     1
 LinEq1:  Iter=  6 NonCon=     1 RMS=2.95D-07 Max=3.38D-06 NDo=     1
 LinEq1:  Iter=  7 NonCon=     1 RMS=7.63D-08 Max=6.26D-07 NDo=     1
 LinEq1:  Iter=  8 NonCon=     1 RMS=1.13D-08 Max=9.34D-08 NDo=     1
 LinEq1:  Iter=  9 NonCon=     1 RMS=1.61D-09 Max=1.31D-08 NDo=     1
 LinEq1:  Iter= 10 NonCon=     1 RMS=3.31D-10 Max=2.53D-09 NDo=     1
 LinEq1:  Iter= 11 NonCon=     0 RMS=5.21D-11 Max=4.39D-10 NDo=     1
 Linear equations converged to 1.000D-10 1.000D-09 after    11 iterations.
 End of Minotr F.D. properties file   721 does not exist.
 End of Minotr F.D. properties file   722 does not exist.
 End of Minotr F.D. properties file   788 does not exist.
 Calling FoFJK, ICntrl=  10002127 FMM=F ISym2X=1 I1Cent= 0 IOpClX= 0 NMat=1 NMatS=1 NMatT=0.
 ***** Axes restored to original set *****
 -------------------------------------------------------------------
 Center     Atomic                   Forces (Hartrees/Bohr)
 Number     Number              X              Y              Z
 -------------------------------------------------------------------
      1        9           0.000003539   -0.000071224   -0.000000000
      2        9          -0.000116825    0.000085845   -0.000000000
      3        1           0.000029437    0.000024634   -0.000000000
      4        1           0.000083849   -0.000039255   -0.000000000
 -------------------------------------------------------------------
 Cartesian Forces:  Max     0.000116825 RMS     0.000054885

 GradGradGradGradGradGradGradGradGradGradGradGradGradGradGradGradGradGrad
 Berny optimization.
 Using GEDIIS/GDIIS optimizer.
 FormGI is forming the generalized inverse of G from B-inverse, IUseBI=4.
 Internal  Forces:  Max     0.000115019 RMS     0.000064017
 Search for a local minimum.
 Step number   4 out of a maximum of   20
 All quantities printed in internal units (Hartrees-Bohrs-Radians)
 Mixed Optimization -- En-DIIS/RFO-DIIS
 Swapping is turned off.
 Update second derivatives using D2CorX and points    1    2    3    4
 DE= -1.42D-05 DEPred=-1.41D-05 R= 1.01D+00
 TightC=F SS=  1.41D+00  RLast= 4.83D-02 DXNew= 2.5227D-01 1.4494D-01
 Trust test= 1.01D+00 RLast= 4.83D-02 DXMaxT set to 1.50D-01
 The second derivative matrix:
                          R1        R2        R3        A1        A2
           R1           0.60518
           R2          -0.00341   0.05655
           R3          -0.01468  -0.00332   0.61777
           A1           0.00829   0.00300   0.00819   0.15244
           A2           0.00123   0.00129  -0.00054  -0.00350   0.00988
           A3           0.00000   0.00000   0.00000   0.00000  -0.00000
                          A3
           A3           0.00230
 ITU=  1 -1  1  0
     Eigenvalues ---    0.00230   0.00975   0.05645   0.15232   0.59584
     Eigenvalues ---    0.62746
 En-DIIS/RFO-DIIS/Sim-DIIS IScMMF=       -3 using points:     4    3    2
 RFO step:  Lambda=-1.47637452D-07.
 DidBck=T Rises=F RFO-DIIS coefs:    0.35221    0.18526    0.46253
 Iteration  1 RMS(Cart)=  0.00029111 RMS(Int)=  0.00000007
 Iteration  2 RMS(Cart)=  0.00000007 RMS(Int)=  0.00000000
 ClnCor:  largest displacement from symmetrization is 1.99D-15 for atom     4.
 Variable       Old X    -DE/DX   Delta X   Delta X   Delta X     New X
                                 (Linear)    (Quad)   (Total)
    R1        1.75373  -0.00007  -0.00031   0.00017  -0.00014   1.75360
    R2        3.45674  -0.00004   0.00027  -0.00069  -0.00042   3.45631
    R3        1.74805  -0.00007  -0.00028   0.00015  -0.00012   1.74792
    A1        1.98231   0.00012  -0.00040   0.00077   0.00037   1.98268
    A2        2.96696  -0.00001  -0.00058   0.00001  -0.00057   2.96640
    A3        3.14159   0.00000   0.00000   0.00000   0.00000   3.14159
         Item               Value     Threshold  Converged?
 Maximum Force            0.000115     0.000450     YES
 RMS     Force            0.000064     0.000300     YES
 Maximum Displacement     0.000392     0.001800     YES
 RMS     Displacement     0.000291     0.001200     YES
 Predicted change in Energy=-5.707140D-08
 Optimization completed.
    -- Stationary point found.
                           ----------------------------
                           !   Optimized Parameters   !
                           ! (Angstroms and Degrees)  !
 --------------------------                            --------------------------
 ! Name  Definition              Value          Derivative Info.                !
 --------------------------------------------------------------------------------
 ! R1    R(1,3)                  0.928          -DE/DX =   -0.0001              !
 ! R2    R(2,3)                  1.8292         -DE/DX =    0.0                 !
 ! R3    R(2,4)                  0.925          -DE/DX =   -0.0001              !
 ! A1    A(3,2,4)              113.578          -DE/DX =    0.0001              !
 ! A2    L(1,3,2,4,-1)         169.9945         -DE/DX =    0.0                 !
 ! A3    L(1,3,2,4,-2)         180.0            -DE/DX =    0.0                 !
 --------------------------------------------------------------------------------
 GradGradGradGradGradGradGradGradGradGradGradGradGradGradGradGradGradGrad

                          Input orientation:                          
 ---------------------------------------------------------------------
 Center     Atomic      Atomic             Coordinates (Angstroms)
 Number     Number       Type             X           Y           Z
 ---------------------------------------------------------------------
      1          9           0        0.037431    1.435267    0.000000
      2          9           0        0.037070   -1.312614    0.000000
      3          1           0        0.144645    0.513445    0.000000
      4          1           0       -0.831023   -1.632124    0.000000
 ---------------------------------------------------------------------
                    Distance matrix (angstroms):
                    1          2          3          4
     1  F    0.000000
     2  F    2.747881   0.000000
     3  H    0.928035   1.829226   0.000000
     4  H    3.187961   0.925026   2.356989   0.000000
 Stoichiometry    F2H2
 Framework group  CS[SG(F2H2)]
 Deg. of freedom     5
 Full point group                 CS      NOp   2
 Largest Abelian subgroup         CS      NOp   2
 Largest concise Abelian subgroup C1      NOp   1
                         Standard orientation:                         
 ---------------------------------------------------------------------
 Center     Atomic      Atomic             Coordinates (Angstroms)
 Number     Number       Type             X           Y           Z
 ---------------------------------------------------------------------
      1          9           0        0.038036    1.436012    0.000000
      2          9           0        0.038036   -1.311869    0.000000
      3          1           0        0.145371    0.514205    0.000000
      4          1           0       -0.830016   -1.631492    0.000000
 ---------------------------------------------------------------------
 Rotational constants (GHZ):         696.4168666           6.7550317           6.6901394

 **********************************************************************

            Population analysis using the SCF density.

 **********************************************************************

 Orbital symmetries:
       Occupied  (A') (A') (A') (A') (A') (A') (A") (A') (A') (A")
       Virtual   (A') (A') (A') (A') (A") (A') (A') (A") (A') (A')
                 (A") (A') (A') (A") (A') (A') (A') (A') (A') (A')
                 (A") (A') (A") (A') (A") (A") (A') (A') (A') (A")
                 (A') (A") (A') (A") (A') (A') (A') (A") (A') (A')
                 (A") (A') (A') (A") (A') (A') (A") (A') (A") (A')
                 (A') (A') (A') (A') (A') (A") (A") (A') (A') (A")
                 (A') (A") (A') (A') (A") (A') (A") (A') (A") (A')
                 (A') (A") (A') (A') (A') (A") (A") (A') (A') (A")
                 (A') (A") (A') (A") (A') (A') (A") (A') (A") (A")
                 (A') (A') (A') (A') (A') (A') (A") (A') (A") (A')
                 (A') (A') (A") (A") (A') (A') (A") (A') (A") (A')
                 (A") (A') (A") (A') (A") (A') (A') (A") (A') (A")
                 (A') (A') (A") (A') (A') (A') (A') (A')
 The electronic state is 1-A'.
 Alpha  occ. eigenvalues --  -26.34411 -26.27307  -1.64740  -1.57565  -0.81641
 Alpha  occ. eigenvalues --   -0.75328  -0.69568  -0.68687  -0.62605  -0.62592
 Alpha virt. eigenvalues --    0.01968   0.06222   0.12890   0.15673   0.16708
 Alpha virt. eigenvalues --    0.18465   0.21416   0.23783   0.24885   0.25839
 Alpha virt. eigenvalues --    0.27295   0.29824   0.34400   0.36189   0.40513
 Alpha virt. eigenvalues --    0.43254   0.44214   0.61880   0.65887   0.69113
 Alpha virt. eigenvalues --    0.72683   0.77072   0.80302   0.83749   0.84360
 Alpha virt. eigenvalues --    0.89193   0.89330   0.90551   0.95334   1.00126
 Alpha virt. eigenvalues --    1.04897   1.06442   1.07931   1.10084   1.11305
 Alpha virt. eigenvalues --    1.12031   1.17738   1.18751   1.19615   1.21125
 Alpha virt. eigenvalues --    1.22602   1.27340   1.34064   1.51368   1.52324
 Alpha virt. eigenvalues --    1.59073   1.65515   1.81260   1.84439   1.85499
 Alpha virt. eigenvalues --    2.03237   2.31266   2.37023   2.67353   2.79368
 Alpha virt. eigenvalues --    2.82814   2.83192   2.83620   2.85348   2.86789
 Alpha virt. eigenvalues --    2.95316   2.95325   2.98457   2.99936   3.00806
 Alpha virt. eigenvalues --    3.03683   3.10798   3.12451   3.16479   3.19474
 Alpha virt. eigenvalues --    3.31127   3.32009   3.36336   3.50729   3.56761
 Alpha virt. eigenvalues --    3.58281   3.73612   3.80908   4.02880   4.13989
 Alpha virt. eigenvalues --    4.17492   4.19202   4.22476   4.29350   4.30373
 Alpha virt. eigenvalues --    4.41300   4.43369   4.52869   4.82047   4.84303
 Alpha virt. eigenvalues --    4.87298   5.03332   5.07660   5.46171   5.64648
 Alpha virt. eigenvalues --    5.83020   6.01229   6.05302   6.11496   6.35834
 Alpha virt. eigenvalues --    7.59176   7.72172   8.83384   8.85198   8.85208
 Alpha virt. eigenvalues --    8.86319   8.95940   8.99234   9.00906   9.16150
 Alpha virt. eigenvalues --    9.18925   9.20768   9.31987   9.34893   9.38699
 Alpha virt. eigenvalues --    9.39794   9.40298   9.41472   9.42710   9.53224
 Alpha virt. eigenvalues --    9.57290   9.58705   9.66078   9.73902   9.88103
 Alpha virt. eigenvalues --    9.95031  14.55850  15.87425
          Condensed to atoms (all electrons):
               1          2          3          4
     1  F    9.294712  -0.022554   0.143834   0.001807
     2  F   -0.022554   9.292594  -0.047556   0.194253
     3  H    0.143834  -0.047556   0.472953  -0.003061
     4  H    0.001807   0.194253  -0.003061   0.406292
 Mulliken charges:
               1
     1  F   -0.417799
     2  F   -0.416738
     3  H    0.433829
     4  H    0.400708
 Sum of Mulliken charges =   0.00000
 Mulliken charges with hydrogens summed into heavy atoms:
               1
     1  F    0.016030
     2  F   -0.016030
 Electronic spatial extent (au):  <R**2>=            159.0166
 Charge=              0.0000 electrons
 Dipole moment (field-independent basis, Debye):
    X=             -1.6396    Y=             -3.0515    Z=              0.0000  Tot=              3.4641
 Quadrupole moment (field-independent basis, Debye-Ang):
   XX=             -9.1744   YY=            -12.2025   ZZ=            -11.3749
   XY=              3.2833   XZ=              0.0000   YZ=              0.0000
 Traceless Quadrupole moment (field-independent basis, Debye-Ang):
   XX=              1.7428   YY=             -1.2852   ZZ=             -0.4576
   XY=              3.2833   XZ=              0.0000   YZ=              0.0000
 Octapole moment (field-independent basis, Debye-Ang**2):
  XXX=             -2.0060  YYY=            -10.8229  ZZZ=              0.0000  XYY=             -5.9810
  XXY=             -3.8458  XXZ=              0.0000  XZZ=             -0.1248  YZZ=             -0.4143
  YYZ=              0.0000  XYZ=              0.0000
 Hexadecapole moment (field-independent basis, Debye-Ang**3):
 XXXX=             -6.8978 YYYY=           -125.0399 ZZZZ=             -7.5168 XXXY=              1.0999
 XXXZ=              0.0000 YYYX=              7.4633 YYYZ=              0.0000 ZZZX=              0.0000
 ZZZY=              0.0000 XXYY=            -18.0251 XXZZ=             -2.6610 YYZZ=            -23.4588
 XXYZ=              0.0000 YYXZ=              0.0000 ZZXY=             -0.5530
 N-N= 3.020127070101D+01 E-N=-5.404992992551D+02  KE= 1.999310017207D+02
 Symmetry A'   KE= 1.874092702405D+02
 Symmetry A"   KE= 1.252173148019D+01
 1\1\GINC-N2158\FOpt\RMP2-FC\Aug-CC-pVTZ\F2H2\GDS001\25-Jun-2021\0\\# m
 p2/aug-cc-pVTZ opt freq=(vibrot,anharmonic)\\HF --- FH\\0,1\F,0.037430
 8376,1.4352666143,0.\F,0.037070475,-1.3126142953,0.\H,0.1446450492,0.5
 134454583,0.\H,-0.8310233618,-1.6321237773,0.\\Version=ES64L-G16RevA.0
 3\State=1-A'\HF=-200.1273336\MP2=-200.6892843\RMSD=3.182e-09\RMSF=5.48
 8e-05\Dipole=-0.6073833,-1.1488288,0.\PG=CS [SG(F2H2)]\\@


 ERROR IS A HARDY PLANT... IT FLOURISHETH IN EVERY SOIL.
            MARTIN FARQUHAR TUPPER
 Job cpu time:       0 days  0 hours 13 minutes 51.2 seconds.
 Elapsed time:       0 days  0 hours  0 minutes 33.9 seconds.
 File lengths (MBytes):  RWF=     72 Int=      0 D2E=      0 Chk=      8 Scr=      8
 Normal termination of Gaussian 16 at Fri Jun 25 15:08:43 2021.
 Link1:  Proceeding to internal job step number  2.
 ----------------------------------------------------------------------
 #N Geom=AllCheck Guess=TCheck SCRF=Check GenChk RMP2(FC)/Aug-CC-pVTZ F
 req
 ----------------------------------------------------------------------
 1/10=4,29=7,30=1,38=21,40=1,80=1/1,6,3;
 2/12=2,40=1/2;
 3/5=16,6=1,7=10,11=1,14=-4,25=1,30=1,70=2,71=2,116=1,140=1/1,2,3;
 4/5=101,69=2/1;
 5/5=2,38=6,98=1/2;
 8/6=3,8=1,10=1,19=11,30=-1/1;
 9/15=3,16=-3/6;
 11/6=1,8=1,15=11,17=12,24=-1,27=1,28=-2,29=300,32=6,42=3/1,2,10;
 10/6=2,21=1,60=-2/2;
 8/6=4,8=1,10=1,19=11,30=-1/11,4;
 10/5=1,20=4,60=-2/2;
 11/12=2,14=11,16=1,17=2,28=-2,42=3/2,10,12;
 6/7=2,8=2,9=2,10=2,22=-1/1;
 7/10=1,12=2,25=1,44=2,70=1,71=2/1,2,3,16;
 1/38=20,80=1/6(3);
 7/8=1,25=202,44=-1,70=1,71=1,92=10/16,17;
 1/10=4,30=1,38=20,80=1/3;
 99//99;
 3/5=16,6=1,7=10,11=1,14=-2,25=1,30=1,70=5,71=2,116=1,140=1/1,2,3;
 4/5=5,16=3,69=2/1;
 5/5=2,38=5,98=1/2;
 8/6=3,8=1,10=1,19=11,30=-1/1;
 9/15=3,16=-3/6;
 11/6=1,8=1,15=11,17=12,24=-1,27=1,28=-2,29=300,32=6,42=3/1,2,10;
 10/6=2,21=1,60=-2/2;
 8/6=4,8=1,10=1,19=11,30=-1/11,4;
 10/5=1,20=4,60=-2/2;
 11/12=2,14=11,16=1,17=2,28=-2,42=3/2,10,12;
 6/7=2,8=2,9=2,10=2,22=-1/1;
 7/7=1,10=1,12=2,25=1,44=2,70=1,71=1/1,2,3,16;
 1/38=20,80=1/6(-12);
 7/8=1,25=202,44=-1,70=1,71=1,92=10/16,17;
 1/10=4,30=1,38=20,80=1/3;
 99//99;
 Structure from the checkpoint file:  "hf_hf_mp2_avtz_opt_anharm.chk"
 ---------
 HF --- FH
 ---------
 Charge =  0 Multiplicity = 1
 Redundant internal coordinates found in file.  (old form).
 F,0,0.0374308376,1.4352666143,0.
 F,0,0.037070475,-1.3126142953,0.
 H,0,0.1446450492,0.5134454583,0.
 H,0,-0.8310233618,-1.6321237773,0.
 Recover connectivity data from disk.
 Numerical evaluation of third derivatives.
 Nuclear step= 0.010000 Angstroms, electric field step= 0.000333 atomic units, NStep=1.

 GradGradGradGradGradGradGradGradGradGradGradGradGradGradGradGradGradGrad
 Berny optimization.
 Initialization pass.
                           ----------------------------
                           !    Initial Parameters    !
                           ! (Angstroms and Degrees)  !
 --------------------------                            --------------------------
 ! Name  Definition              Value          Derivative Info.                !
 --------------------------------------------------------------------------------
 ! R1    R(1,3)                  0.928          calculate D2E/DX2 analytically  !
 ! R2    R(2,3)                  1.8292         calculate D2E/DX2 analytically  !
 ! R3    R(2,4)                  0.925          calculate D2E/DX2 analytically  !
 ! A1    A(3,2,4)              113.578          calculate D2E/DX2 analytically  !
 ! A2    L(1,3,2,4,-1)         169.9945         calculate D2E/DX2 analytically  !
 ! A3    L(1,3,2,4,-2)         180.0            calculate D2E/DX2 analytically  !
 --------------------------------------------------------------------------------
 Trust Radius=3.00D-01 FncErr=1.00D-07 GrdErr=1.00D-07 EigMax=2.50D+02 EigMin=1.00D-04
 Number of steps in this run=      2 maximum allowed number of steps=      2.
 GradGradGradGradGradGradGradGradGradGradGradGradGradGradGradGradGradGrad

                          Input orientation:                          
 ---------------------------------------------------------------------
 Center     Atomic      Atomic             Coordinates (Angstroms)
 Number     Number       Type             X           Y           Z
 ---------------------------------------------------------------------
      1          9           0        0.037431    1.435267    0.000000
      2          9           0        0.037070   -1.312614    0.000000
      3          1           0        0.144645    0.513445    0.000000
      4          1           0       -0.831023   -1.632124    0.000000
 ---------------------------------------------------------------------
                    Distance matrix (angstroms):
                    1          2          3          4
     1  F    0.000000
     2  F    2.747881   0.000000
     3  H    0.928035   1.829226   0.000000
     4  H    3.187961   0.925026   2.356989   0.000000
 Stoichiometry    F2H2
 Framework group  CS[SG(F2H2)]
 Deg. of freedom     5
 Full point group                 CS      NOp   2
 Largest Abelian subgroup         CS      NOp   2
 Largest concise Abelian subgroup C1      NOp   1
                         Standard orientation:                         
 ---------------------------------------------------------------------
 Center     Atomic      Atomic             Coordinates (Angstroms)
 Number     Number       Type             X           Y           Z
 ---------------------------------------------------------------------
      1          9           0        0.038036    1.436012    0.000000
      2          9           0        0.038036   -1.311869    0.000000
      3          1           0        0.145371    0.514205    0.000000
      4          1           0       -0.830016   -1.631492    0.000000
 ---------------------------------------------------------------------
 Rotational constants (GHZ):         696.4168666           6.7550317           6.6901394
 Standard basis: Aug-CC-pVTZ (5D, 7F)
 There are   110 symmetry adapted cartesian basis functions of A'  symmetry.
 There are    50 symmetry adapted cartesian basis functions of A"  symmetry.
 There are    92 symmetry adapted basis functions of A'  symmetry.
 There are    46 symmetry adapted basis functions of A"  symmetry.
   138 basis functions,   198 primitive gaussians,   160 cartesian basis functions
    10 alpha electrons       10 beta electrons
       nuclear repulsion energy        30.2012707010 Hartrees.
 NAtoms=    4 NActive=    4 NUniq=    4 SFac= 1.00D+00 NAtFMM=   60 NAOKFM=F Big=F
 Integral buffers will be    131072 words long.
 Raffenetti 1 integral format.
 Two-electron integral symmetry is turned on.
 One-electron integrals computed using PRISM.
 NBasis=   138 RedAO= T EigKep=  1.54D-04  NBF=    92    46
 NBsUse=   138 1.00D-06 EigRej= -1.00D+00 NBFU=    92    46
 Initial guess from the checkpoint file:  "hf_hf_mp2_avtz_opt_anharm.chk"
 B after Tr=     0.000000    0.000000    0.000000
         Rot=    1.000000    0.000000    0.000000    0.000000 Ang=   0.00 deg.
 Initial guess orbital symmetries:
       Occupied  (A') (A') (A') (A') (A') (A') (A") (A') (A') (A")
       Virtual   (A') (A') (A') (A') (A") (A') (A') (A") (A') (A')
                 (A") (A') (A') (A") (A') (A') (A') (A') (A') (A')
                 (A") (A') (A") (A') (A") (A") (A') (A') (A') (A")
                 (A') (A") (A') (A") (A') (A') (A') (A") (A') (A')
                 (A") (A') (A') (A") (A') (A') (A") (A') (A") (A')
                 (A') (A') (A') (A') (A') (A") (A") (A') (A') (A")
                 (A') (A") (A') (A') (A") (A') (A") (A') (A") (A')
                 (A') (A") (A') (A') (A') (A") (A") (A') (A') (A")
                 (A') (A") (A') (A") (A') (A') (A") (A') (A") (A")
                 (A') (A') (A') (A') (A') (A') (A") (A') (A") (A')
                 (A') (A') (A") (A") (A') (A') (A") (A') (A") (A')
                 (A") (A') (A") (A') (A") (A') (A') (A") (A') (A")
                 (A') (A') (A") (A') (A') (A') (A') (A')
 Keep R1 ints in memory in symmetry-blocked form, NReq=69339745.
 Requested convergence on RMS density matrix=1.00D-08 within 128 cycles.
 Requested convergence on MAX density matrix=1.00D-06.
 Requested convergence on             energy=1.00D-06.
 No special actions if energy rises.
 SCF Done:  E(RHF) =  -200.127333633     A.U. after    1 cycles
            NFock=  1  Conv=0.64D-09     -V/T= 2.0010
 ExpMin= 2.53D-02 ExpMax= 1.95D+04 ExpMxC= 6.65D+02 IAcc=3 IRadAn=         5 AccDes= 0.00D+00
 HarFok:  IExCor=  205 AccDes= 0.00D+00 IRadAn=         5 IDoV=-2 UseB2=F ITyADJ=14
 ICtDFT= 12500011 ScaDFX=  1.000000  1.000000  1.000000  1.000000
 Range of M.O.s used for correlation:     3   138
 NBasis=   138 NAE=    10 NBE=    10 NFC=     2 NFV=     0
 NROrb=    136 NOA=     8 NOB=     8 NVA=   128 NVB=   128

 **** Warning!!: The largest alpha MO coefficient is  0.25564083D+02

 Disk-based method using ON**2 memory for  8 occupieds at a time.
 Permanent disk used for amplitudes=     2004160 words.
 Estimated scratch disk usage=    58784170 words.
 Actual    scratch disk usage=    57735594 words.
 JobTyp=1 Pass  1:  I=   3 to  10 NPSUse= 28 ParTrn=T ParDer=T DoDerP=T.
 (rs|ai) integrals will be sorted in core.
 Spin components of T(2) and E(2):
     alpha-alpha T2 =       0.1398451093D-01 E2=     -0.7177146242D-01
     alpha-beta  T2 =       0.7616803560D-01 E2=     -0.4184077583D+00
     beta-beta   T2 =       0.1398451093D-01 E2=     -0.7177146242D-01
 ANorm=    0.1050779262D+01
 E2 =    -0.5619506831D+00 EUMP2 =    -0.20068928431600D+03
 G2DrvN: will do     5 centers at a time, making    1 passes.
 Calling FoFCou, ICntrl=  3107 FMM=F I1Cent=   0 AccDes= 0.00D+00.
 End of G2Drv F.D. properties file   721 does not exist.
 End of G2Drv F.D. properties file   722 does not exist.
 End of G2Drv F.D. properties file   788 does not exist.
          IDoAtm=1111
          Differentiating once with respect to electric field.
                with respect to dipole field.
          Differentiating once with respect to nuclear coordinates.
 Keep R1 ints in memory in symmetry-blocked form, NReq=69340669.
          There are    15 degrees of freedom in the 1st order CPHF.  IDoFFX=6 NUNeed=    15.
     12 vectors produced by pass  0 Test12= 8.53D-15 6.67D-09 XBig12= 1.77D+00 4.61D-01.
 AX will form    12 AO Fock derivatives at one time.
     12 vectors produced by pass  1 Test12= 8.53D-15 6.67D-09 XBig12= 7.20D-02 6.44D-02.
     12 vectors produced by pass  2 Test12= 8.53D-15 6.67D-09 XBig12= 1.81D-03 1.06D-02.
     12 vectors produced by pass  3 Test12= 8.53D-15 6.67D-09 XBig12= 1.78D-05 1.18D-03.
     12 vectors produced by pass  4 Test12= 8.53D-15 6.67D-09 XBig12= 2.10D-07 1.21D-04.
     12 vectors produced by pass  5 Test12= 8.53D-15 6.67D-09 XBig12= 1.30D-09 8.53D-06.
      9 vectors produced by pass  6 Test12= 8.53D-15 6.67D-09 XBig12= 7.92D-12 6.07D-07.
      3 vectors produced by pass  7 Test12= 8.53D-15 6.67D-09 XBig12= 4.59D-14 3.34D-08.
 InvSVY:  IOpt=1 It=  1 EMax= 8.88D-16
 Solved reduced A of dimension    84 with    12 vectors.
 End of Minotr F.D. properties file   721 does not exist.
 End of Minotr F.D. properties file   722 does not exist.
 End of Minotr F.D. properties file   788 does not exist.
 MDV=  5502926848.
 Form MO integral derivatives with frozen-active canonical formalism.
 Discarding MO integrals.
 Reordered first order wavefunction length =      3276800
 In DefCFB: NBatch=  1 ICI= 10 ICA=128 LFMax= 64
            Large arrays: LIAPS=   113049600 LIARS=    78848000 words.
 Semi-Direct transformation.
 ModeAB=           2 MOrb=            10 LenV=    5502287267
 LASXX=     12466635 LTotXX=    12466635 LenRXX=    12466635
 LTotAB=    12733585 MaxLAS=    17774400 LenRXY=    17774400
 NonZer=    24933270 LenScr=    37748736 LnRSAI=           0
 LnScr1=           0 LExtra=           0 Total=     67989771
 MaxDsk=          -1 SrtSym=           F ITran=            4
 JobTyp=0 Pass  1:  I=   1 to  10.
 (rs|ai) integrals will be sorted in core.
 Spin components of T(2) and E(2):
     alpha-alpha T2 =       0.1398451093D-01 E2=     -0.7177146242D-01
     alpha-beta  T2 =       0.7616803560D-01 E2=     -0.4184077583D+00
     beta-beta   T2 =       0.1398451093D-01 E2=     -0.7177146242D-01
 ANorm=    0.1486026283D+01
 E2 =    -0.5619506831D+00 EUMP2 =    -0.20068928431600D+03
          IDoAtm=1111
          Differentiating once with respect to electric field.
                with respect to dipole field.
          Differentiating once with respect to nuclear coordinates.
          There are     1 degrees of freedom in the 1st order CPHF.  IDoFFX=0 NUNeed=     1.
 LinEq1:  Iter=  0 NonCon=     1 RMS=3.96D-03 Max=4.38D-02 NDo=     1
 LinEq1:  Iter=  1 NonCon=     1 RMS=5.77D-04 Max=6.44D-03 NDo=     1
 LinEq1:  Iter=  2 NonCon=     1 RMS=2.08D-04 Max=1.61D-03 NDo=     1
 LinEq1:  Iter=  3 NonCon=     1 RMS=4.38D-05 Max=3.78D-04 NDo=     1
 LinEq1:  Iter=  4 NonCon=     1 RMS=5.89D-06 Max=4.11D-05 NDo=     1
 LinEq1:  Iter=  5 NonCon=     1 RMS=8.62D-07 Max=6.25D-06 NDo=     1
 LinEq1:  Iter=  6 NonCon=     1 RMS=2.95D-07 Max=3.38D-06 NDo=     1
 LinEq1:  Iter=  7 NonCon=     1 RMS=7.63D-08 Max=6.26D-07 NDo=     1
 LinEq1:  Iter=  8 NonCon=     1 RMS=1.13D-08 Max=9.34D-08 NDo=     1
 LinEq1:  Iter=  9 NonCon=     1 RMS=1.61D-09 Max=1.31D-08 NDo=     1
 LinEq1:  Iter= 10 NonCon=     1 RMS=3.31D-10 Max=2.53D-09 NDo=     1
 LinEq1:  Iter= 11 NonCon=     0 RMS=5.21D-11 Max=4.39D-10 NDo=     1
 Linear equations converged to 1.000D-10 1.000D-09 after    11 iterations.
 End of Minotr F.D. properties file   721 does not exist.
 End of Minotr F.D. properties file   722 does not exist.
 End of Minotr F.D. properties file   788 does not exist.
 Symmetrizing basis deriv contribution to polar:
 IMax=3 JMax=2 DiffMx= 0.00D+00
 G2DrvN: will do     5 centers at a time, making    1 passes.
 Calling FoFCou, ICntrl=  3107 FMM=F I1Cent=   0 AccDes= 0.00D+00.
 End of G2Drv F.D. properties file   721 does not exist.
 End of G2Drv F.D. properties file   722 does not exist.
 End of G2Drv F.D. properties file   788 does not exist.
 R2 and R3 integrals will be kept in memory, NReq=   167993840.
 DD1Dir will call FoFMem   1 times, MxPair=       110
 NAB=    55 NAA=     0 NBB=     0.
 Discarding MO integrals.

 **********************************************************************

            Population analysis using the MP2 density.

 **********************************************************************

 Orbital symmetries:
       Occupied  (A') (A') (A') (A') (A') (A') (A") (A') (A') (A")
       Virtual   (A') (A') (A') (A') (A") (A') (A') (A") (A') (A')
                 (A") (A') (A') (A") (A') (A') (A') (A') (A') (A')
                 (A") (A') (A") (A') (A") (A") (A') (A') (A') (A")
                 (A') (A") (A') (A") (A') (A') (A') (A") (A') (A')
                 (A") (A') (A') (A") (A') (A') (A") (A') (A") (A')
                 (A') (A') (A') (A') (A') (A") (A") (A') (A') (A")
                 (A') (A") (A') (A') (A") (A') (A") (A') (A") (A')
                 (A') (A") (A') (A') (A') (A") (A") (A') (A') (A")
                 (A') (A") (A') (A") (A') (A') (A") (A') (A") (A")
                 (A') (A') (A') (A') (A') (A') (A") (A') (A") (A')
                 (A') (A') (A") (A") (A') (A') (A") (A') (A") (A')
                 (A") (A') (A") (A') (A") (A') (A') (A") (A') (A")
                 (A') (A') (A") (A') (A') (A') (A') (A')
 The electronic state is 1-A'.
 Alpha  occ. eigenvalues --  -26.34411 -26.27307  -1.64740  -1.57565  -0.81641
 Alpha  occ. eigenvalues --   -0.75328  -0.69568  -0.68687  -0.62605  -0.62592
 Alpha virt. eigenvalues --    0.01968   0.06222   0.12890   0.15673   0.16708
 Alpha virt. eigenvalues --    0.18465   0.21416   0.23783   0.24885   0.25839
 Alpha virt. eigenvalues --    0.27295   0.29824   0.34400   0.36189   0.40513
 Alpha virt. eigenvalues --    0.43254   0.44214   0.61880   0.65887   0.69113
 Alpha virt. eigenvalues --    0.72683   0.77072   0.80302   0.83749   0.84360
 Alpha virt. eigenvalues --    0.89193   0.89330   0.90551   0.95334   1.00126
 Alpha virt. eigenvalues --    1.04897   1.06442   1.07931   1.10084   1.11305
 Alpha virt. eigenvalues --    1.12031   1.17738   1.18751   1.19615   1.21125
 Alpha virt. eigenvalues --    1.22602   1.27340   1.34064   1.51368   1.52324
 Alpha virt. eigenvalues --    1.59073   1.65515   1.81260   1.84439   1.85499
 Alpha virt. eigenvalues --    2.03237   2.31266   2.37023   2.67353   2.79368
[...]
      6(2)                   949.785    768.338                     22.95206484

 Combination Bands
 -----------------
   Mode(n)     Mode(n)      E(harm)   E(anharm)                      I(anharm)
      2(1)        1(1)      8068.063   7731.486                      0.17509355
      3(1)        1(1)      4661.200   4389.201                      1.00698781
      3(1)        2(1)      4568.886   4362.150                      0.95874387
      4(1)        1(1)      4301.415   4089.460                      6.66696665
      4(1)        2(1)      4209.101   4038.243                      5.13200657
      4(1)        3(1)       802.238    612.308                      1.75561212
      5(1)        1(1)      4239.419   4047.404                      1.74423972
      5(1)        2(1)      4147.105   3984.444                      0.81753762
      5(1)        3(1)       740.243    578.619                      6.53507704
      5(1)        4(1)       380.458    294.703                      7.46666427
      6(1)        1(1)      4555.081   4335.029                      0.13509449
      6(1)        2(1)      4462.767   4296.263                      2.67212863
      6(1)        3(1)      1055.904    864.262                      0.11960414
      6(1)        4(1)       696.119    570.533                      0.03979651
      6(1)        5(1)       634.124    531.529                      2.30685000

 Units: Transition energies (E) in cm^-1
        Dipole strengths (DS) in 10^-40 esu^2.cm^2

 Fundamental Bands
 -----------------
   Mode(n)                  E(harm)   E(anharm)       DS(harm)      DS(anharm)
      1(1)                  4080.188   3913.932    134.06180253    122.53387790
      2(1)                  3987.874   3844.589    470.81949377    371.52817454
      3(1)                   581.011    466.067   1032.19831143   1187.43261178
      4(1)                   221.227    175.010   2854.93029238   3111.21136061
      5(1)                   159.231    131.867    131.32466415    289.63092797
      6(1)                   474.892    413.874   1457.72680844   1717.16703667

 Overtones
 ---------
   Mode(n)                  E(harm)   E(anharm)                     DS(anharm)
      1(2)                  8160.377   7665.853                      1.39169473
      2(2)                  7975.749   7501.444                      0.39871760
      3(2)                  1162.023    818.724                     76.85525243
      4(2)                   442.454    323.871                    253.29057696
      5(2)                   318.462    254.425                      9.48250413
      6(2)                   949.785    768.338                    119.17267955

 Combination Bands
 -----------------
   Mode(n)     Mode(n)      E(harm)   E(anharm)                     DS(anharm)
      2(1)        1(1)      8068.063   7731.486                      0.09034717
      3(1)        1(1)      4661.200   4389.201                      0.91526347
      3(1)        2(1)      4568.886   4362.150                      0.87681791
      4(1)        1(1)      4301.415   4089.460                      6.50383742
      4(1)        2(1)      4209.101   4038.243                      5.06993183
      4(1)        3(1)       802.238    612.308                     11.43842788
      5(1)        1(1)      4239.419   4047.404                      1.71924193
      5(1)        2(1)      4147.105   3984.444                      0.81855408
      5(1)        3(1)       740.243    578.619                     45.05735394
      5(1)        4(1)       380.458    294.703                    101.07643360
      6(1)        1(1)      4555.081   4335.029                      0.12432343
      6(1)        2(1)      4462.767   4296.263                      2.48126903
      6(1)        3(1)      1055.904    864.262                      0.55208789
      6(1)        4(1)       696.119    570.533                      0.27827341
      6(1)        5(1)       634.124    531.529                     17.31411033


 GradGradGradGradGradGradGradGradGradGradGradGradGradGradGradGradGradGrad
 Berny optimization.
 Internal  Forces:  Max     0.000115009 RMS     0.000064014
 Search for a local minimum.
 Step number   1 out of a maximum of    2
 All quantities printed in internal units (Hartrees-Bohrs-Radians)
 Second derivative matrix not updated -- analytic derivatives used.
 The second derivative matrix:
                          R1        R2        R3        A1        A2
           R1           0.58877
           R2           0.01143   0.01036
           R3          -0.00261   0.00230   0.60232
           A1           0.00157  -0.00077   0.00361   0.01106
           A2           0.00129   0.00203  -0.00055  -0.00504   0.01000
           A3          -0.00000  -0.00000  -0.00000   0.00000  -0.00000
                          A3
           A3           0.00282
 ITU=  0
     Eigenvalues ---    0.00282   0.00524   0.00969   0.01621   0.58853
     Eigenvalues ---    0.60283
 Angle between quadratic step and forces=  46.27 degrees.
 Linear search not attempted -- first point.
 Iteration  1 RMS(Cart)=  0.00802474 RMS(Int)=  0.00006199
 Iteration  2 RMS(Cart)=  0.00005099 RMS(Int)=  0.00000000
 Iteration  3 RMS(Cart)=  0.00000000 RMS(Int)=  0.00000000
 ClnCor:  largest displacement from symmetrization is 1.60D-15 for atom     4.
 Variable       Old X    -DE/DX   Delta X   Delta X   Delta X     New X
                                 (Linear)    (Quad)   (Total)
    R1        1.75373  -0.00007   0.00000  -0.00008  -0.00008   1.75365
    R2        3.45674  -0.00004   0.00000  -0.00451  -0.00451   3.45222
    R3        1.74805  -0.00007   0.00000  -0.00016  -0.00016   1.74788
    A1        1.98231   0.00012   0.00000   0.01324   0.01324   1.99555
    A2        2.96696  -0.00001   0.00000   0.00677   0.00677   2.97374
    A3        3.14159   0.00000   0.00000  -0.00000   0.00000   3.14159
         Item               Value     Threshold  Converged?
 Maximum Force            0.000115     0.000450     YES
 RMS     Force            0.000064     0.000300     YES
 Maximum Displacement     0.013800     0.001800     NO 
 RMS     Displacement     0.008013     0.001200     NO 
 Predicted change in Energy=-8.425132D-07
                           ----------------------------
                           ! Non-Optimized Parameters !
                           ! (Angstroms and Degrees)  !
 --------------------------                            --------------------------
 ! Name  Definition              Value          Derivative Info.                !
 --------------------------------------------------------------------------------
 ! R1    R(1,3)                  0.928          -DE/DX =   -0.0001              !
 ! R2    R(2,3)                  1.8268         -DE/DX =    0.0                 !
 ! R3    R(2,4)                  0.9249         -DE/DX =   -0.0001              !
 ! A1    A(3,2,4)              114.3368         -DE/DX =    0.0001              !
 ! A2    L(1,3,2,4,-1)         170.3826         -DE/DX =    0.0                 !
 ! A3    L(1,3,2,4,-2)         180.0            -DE/DX =    0.0                 !
 --------------------------------------------------------------------------------
 GradGradGradGradGradGradGradGradGradGradGradGradGradGradGradGradGradGrad


 ----------------------------------------------------------------------

 Electric dipole moment (input orientation):
 (Debye = 10**-18 statcoulomb cm , SI units = C m)
                  (au)            (Debye)         (10**-30 SI)
   Tot        0.129951D+01      0.330302D+01      0.110177D+02
   x         -0.607383D+00     -0.154381D+01     -0.514961D+01
   y         -0.114883D+01     -0.292003D+01     -0.974018D+01
   z          0.000000D+00      0.000000D+00      0.000000D+00

 Dipole polarizability, Alpha (input orientation).
 (esu units = cm**3 , SI units = C**2 m**2 J**-1)
 Alpha(0;0):
               (au)            (10**-24 esu)      (10**-40 SI)
   iso        0.110224D+02      0.163335D+01      0.181735D+01
   aniso      0.293978D+01      0.435631D+00      0.484705D+00
   xx         0.106725D+02      0.158150D+01      0.175965D+01
   yx         0.461945D+00      0.684532D-01      0.761645D-01
   yy         0.128022D+02      0.189709D+01      0.211080D+01
   zx         0.000000D+00      0.000000D+00      0.000000D+00
   zy         0.000000D+00      0.000000D+00      0.000000D+00
   zz         0.959251D+01      0.142146D+01      0.158159D+01

 ----------------------------------------------------------------------

 Dipole orientation:
     9         -1.06542367          0.56328719         -2.43083154
     9          1.07968359         -0.57082638          2.16012421
     1         -0.18728941          0.09901950         -0.98552458
     1          0.04707909         -0.02489061          3.46064204

 Electric dipole moment (dipole orientation):
 (Debye = 10**-18 statcoulomb cm , SI units = C m)
                  (au)            (Debye)         (10**-30 SI)
   Tot        0.129951D+01      0.330302D+01      0.110177D+02
   x          0.000000D+00      0.000000D+00      0.000000D+00
   y          0.000000D+00      0.000000D+00      0.000000D+00
   z          0.129951D+01      0.330302D+01      0.110177D+02

 Dipole polarizability, Alpha (dipole orientation).
 (esu units = cm**3 , SI units = C**2 m**2 J**-1)
 Alpha(0;0):
               (au)            (10**-24 esu)      (10**-40 SI)
   iso        0.110224D+02      0.163335D+01      0.181735D+01
   aniso      0.293978D+01      0.435631D+00      0.484705D+00
   xx         0.105018D+02      0.155621D+01      0.173152D+01
   yx        -0.480748D+00     -0.712395D-01     -0.792646D-01
   yy         0.984668D+01      0.145913D+01      0.162350D+01
   zx         0.548014D+00      0.812073D-01      0.903553D-01
   zy        -0.289734D+00     -0.429341D-01     -0.477706D-01
   zz         0.127187D+02      0.188472D+01      0.209703D+01

 ----------------------------------------------------------------------
 1\1\GINC-N2158\Freq\RMP2-FC\Aug-CC-pVTZ\F2H2\GDS001\25-Jun-2021\0\\#N 
 Geom=AllCheck Guess=TCheck SCRF=Check GenChk RMP2(FC)/Aug-CC-pVTZ Freq
 \\HF --- FH\\0,1\F,0.0374308376,1.4352666143,0.\F,0.037070475,-1.31261
 42953,0.\H,0.1446450492,0.5134454583,0.\H,-0.8310233618,-1.6321237773,
 0.\\Version=ES64L-G16RevA.03\State=1-A'\HF=-200.1273336\MP2=-200.68928
 43\RMSD=6.378e-10\RMSF=5.488e-05\ZeroPoint=0.0216527\Thermal=0.0260549
 \Dipole=-0.6073833,-1.1488288,0.\DipoleDeriv=-0.4134429,-0.0010238,0.,
 -0.0147959,-0.5260276,0.,0.,0.,-0.4118323,-0.3343056,-0.0414913,0.,-0.
 027614,-0.5688996,0.,0.,0.,-0.3621356,0.3560093,0.0192841,0.,0.0344311
 ,0.67057,0.,0.,0.,0.3593555,0.3917392,0.023231,0.,0.0079789,0.4243572,
 0.,0.,0.,0.4146124\Polar=10.6724825,0.4619452,12.8022157,0.,0.,9.59251
 18\Quadrupole=1.2216519,-0.8163686,-0.4052834,2.3163803,0.,0.\PG=CS [S
 G(F2H2)]\NImag=0\\0.01093671,-0.06647411,0.58112332,0.,0.,0.00347711,0
 .00306885,-0.00317952,0.,0.53139398,-0.00160864,-0.01173184,0.,0.19008
 871,0.08645191,0.,0.,0.00250600,0.,0.,0.00193917,-0.01341602,0.0669431
 3,0.,-0.00527520,0.00488195,0.,0.01844718,0.06644797,-0.56964368,0.,0.
 00581380,0.00151423,0.,-0.06725639,0.56859025,0.,0.,-0.00532663,0.,0.,
 -0.00389261,0.,0.,0.00818877,-0.00058954,0.00271050,0.,-0.52918763,-0.
 19336201,0.,0.00024403,-0.00500538,0.,0.52953314,0.00163478,0.00025220
 ,0.,-0.19272298,-0.07623430,0.,-0.00456869,-0.00046080,0.,0.19565689,0
 .07644290,0.,0.,-0.00065647,0.,0.,-0.00055255,0.,0.,0.00103048,0.,0.,0
 .00017854\\-0.00000354,0.00007122,0.,0.00011682,-0.00008584,0.,-0.0000
 2944,-0.00002463,0.,-0.00008385,0.00003925,0.\\0.00829101,-0.03622675,
 -0.01036508,0.,0.,-0.00019756,0.00129937,-0.00123865,0.,0.05650864,-0.
 00051157,-0.00703435,0.,-0.07291631,-0.05040716,0.,0.,0.00110612,0.,0.
 ,0.00043648,-0.00947681,0.03650522,0.,-0.00125485,0.00171526,0.,0.0112
 1745,0.03603988,0.01757286,0.,0.00173380,-0.00171316,0.,-0.03619062,-0
 .01608400,0.,0.,-0.00064154,0.,0.,-0.00107663,0.,0.,0.00116100,-0.0001
 1356,0.00096017,0.,-0.05655316,0.07171262,0.,-0.00048579,-0.00158306,0
 .,0.05715251,0.00069843,-0.00017343,0.,0.07242116,0.05915466,0.,-0.002
 02986,0.00022429,0.,-0.07108973,-0.05920552,0.,0.,-0.00026702,0.,0.,-0
 .00046597,0.,0.,0.00055717,0.,0.,0.00017583,0.03479477,-0.14703152,-0.
 03548438,0.,0.,0.00037301,-0.00008480,0.00115050,0.,0.18822561,-0.0002
 1912,0.00154651,0.,-0.22566797,-0.19460747,0.,0.,0.00024706,0.,0.,0.00
 256928,-0.03471581,0.14635942,0.,0.00078476,0.00115702,0.,0.03548053,0
 .14636709,0.03334253,0.,-0.00123403,0.00240374,0.,-0.14547713,-0.03577
 511,0.,0.,0.00006104,0.,0.,-0.00128072,0.,0.,-0.00025558,0.00000584,-0
 .00047839,0.,-0.18892556,0.22473007,0.,-0.00154948,0.00034407,0.,0.190
 46919,0.00088355,0.00059534,0.,0.22575150,0.19065722,0.,-0.00203931,0.
 00002883,0.,-0.22459575,-0.19128139,0.,0.,-0.00068111,0.,0.,-0.0015356
 2,0.,0.,0.00147526,0.,0.,0.00074147,0.,0.,0.,0.03841796,-0.32893599,0.
 ,0.,0.,0.00061346,0.,0.,0.,-0.00089107,0.,0.,-0.00027997,-0.00115137,0
 .,-0.04920426,-0.01574565,0.,0.,0.,-0.03848344,0.,0.,0.00215382,0.,0.,
 0.,0.32993728,0.,0.,0.00277727,0.,0.,-0.03834935,0.33052331,0.,0.00101
 120,0.00228006,0.,0.03785952,-0.33321031,0.,0.,0.,-0.00054798,0.,0.,0.
 04733041,0.,0.,-0.00052138,0.,0.,0.,-0.00011022,0.,0.,0.01411975,0.,0.
 ,0.00040695,0.,0.,0.00021135,-0.00043594,0.,0.04757960,0.01435666,0.,-
 0.00152990,0.00049576,0.,-0.04626105,-0.01441648,0.,0.06745754,-0.2896
 0620,-0.05539743,0.,0.,-0.00126525,0.00013318,-0.00159127,0.,-0.099237
 28,-0.00138718,0.00319013,0.,0.12175009,0.10490639,0.,0.,-0.00072411,0
 .,0.,-0.00542289,-0.06722778,0.29151440,0.,0.00458768,0.00234863,0.,0.
 06365696,0.29159815,0.05289537,0.,0.00527843,-0.00804650,0.,-0.2981857
 3,-0.04947292,0.,0.,0.00139931,0.,0.,0.00342195,0.,0.,-0.00228009,-0.0
 0036294,-0.00031694,0.,0.09451643,-0.12271155,0.,-0.00101685,0.0013091
 5,0.,-0.09313663,-0.00060478,-0.00068807,0.,-0.12543726,-0.10005002,0.
 ,0.00432269,0.00462405,0.,0.12171934,0.09611404,0.,0.,0.00059005,0.,0.
 ,0.00272504,0.,0.,-0.00254117,0.,0.,-0.00077392,-0.29710557,-0.2954115
 7,2.21594841,0.,0.,-0.33153632,-0.00213476,0.00599250,0.,0.35092043,-0
 .00080267,0.01903730,0.,0.16129643,-0.01563153,0.,0.,-0.00127694,0.,0.
 ,-0.05965396,0.29886796,0.29294768,0.,0.00528237,-0.00492748,0.,-0.304
 65596,0.29665327,-2.23606443,0.,-0.01340085,-0.01194138,0.,-0.29161785
 ,2.25081030,0.,0.,0.33288855,0.,0.,0.00285941,0.,0.,-0.33622853,0.0003
 7237,-0.00352861,0.,-0.35406804,-0.15556628,0.,0.00050563,0.00836543,0
 .,0.35319005,-0.00043903,0.00107873,0.,-0.15388808,0.00853561,0.,0.003
 59765,-0.00280450,0.,0.15072946,-0.00680983,0.,0.,-0.00007528,0.,0.,0.
 05807149,0.,0.,0.00048058,0.,0.,-0.05847679,0.05343610,0.05308042,-0.3
 9250255,0.,0.,0.05967794,0.00019783,-0.00076062,0.,1.98908412,-0.00034
 609,-0.00046263,0.,0.85700141,-0.02491965,0.,0.,0.00026271,0.,0.,-0.34
 572573,-0.05311274,-0.05294892,0.,-0.00071692,0.00159144,0.,0.05278595
 ,-0.05323385,0.39277011,0.,0.00080463,-0.00070834,0.,0.05411623,-0.390
 96915,0.,0.,-0.05951214,0.,0.,-0.00072893,0.,0.,0.05898755,-0.00052119
 ,0.00062911,0.,-1.98856503,-0.85824676,0.,0.00104372,-0.00168701,0.,1.
 98804251,0.00049951,0.00019507,0.,-0.85704542,0.02609061,0.,-0.0027587
 4,-0.00109262,0.,0.85930466,-0.02519306,0.,0.,-0.00042852,0.,0.,0.3461
 9195,0.,0.,0.00125352,0.,0.,-0.34701696,0.00619785,0.00438114,-0.02000
 502,0.,0.00000002,0.00195893,0.00066994,-0.00047164,0.,-0.10632481,0.0
 0008251,-0.00455838,0.,-0.05313538,0.03046756,0.,0.,0.00059056,0.,0.,0
 .01401104,-0.00686392,-0.00419957,0.,-0.00018486,0.00008209,0.,0.00754
 777,-0.00474564,0.02466652,-0.00000002,0.00032322,-0.00181448,0.,0.004
 87759,-0.02308624,0.,-0.00000002,-0.00244209,0.,0.,-0.00018108,0.,0.00
 000002,0.00239431,-0.00000388,0.00029007,0.,0.10583976,0.05297079,0.,-
 0.00049899,-0.00045517,0.,-0.10533689,0.00028200,-0.00010312,0.,0.0532
 8380,-0.02409471,0.,-0.00076011,0.00023421,0.,-0.05280569,0.02396363,0
 .,0.,-0.00010742,0.,0.,-0.01442048,0.,0.,0.00022886,0.,0.,0.01429904,0
 .11116037,0.05324053,-0.33774503,-0.00000001,-0.00000002,0.03941808,-0
 .00106145,-0.00052669,0.,-1.07049783,0.00099584,-0.00232387,0.,-0.5510
 4069,0.23469453,0.,0.,-0.00023935,0.,0.,0.14531388,-0.11083870,-0.0536
 8756,0.00000001,0.00213655,-0.00164887,0.,0.11069041,-0.05387416,0.339
 21577,0.00000002,0.00150188,0.00153972,0.,0.05377383,-0.34022164,0.000
 00001,0.00000002,-0.03916600,0.,0.,0.00121889,-0.00000001,-0.00000002,
 0.03838562,0.00073975,0.00097373,0.,1.06942275,0.55169373,0.,-0.001988
 25,-0.00140156,0.,-1.06817425,-0.00036221,0.00085310,0.,0.55006550,-0.
 23391039,0.,0.00156261,-0.00053385,0.,-0.55126590,0.23359114,0.,0.,-0.
 00001273,0.,0.,-0.14629340,0.,0.,-0.00043852,0.,0.,0.14674465,0.165197
 97,0.21362190,-1.63626387,0.,0.,0.57131480,-0.00052993,0.00086601,0.,-
 0.03258060,0.00101788,-0.00341593,0.,-0.01058643,-0.00508620,0.,0.,-0.
 00057141,0.,0.,0.01374490,-0.16473848,-0.21404134,0.,0.00194948,-0.002
 97408,0.,0.16286688,-0.21444834,1.63978366,0.,-0.00176988,0.00492306,0
 .,0.21581034,-1.64361426,0.,0.,-0.57101042,0.,0.,0.00220970,0.,0.,0.56
 807830,0.00007041,-0.00044657,0.,0.03116111,0.01254262,0.,-0.00007788,
 0.00040787,0.,-0.03115364,-0.00019145,-0.00010389,0.,0.01149030,0.0035
 7908,0.,0.00120508,-0.00109245,0.,-0.01250392,-0.00238274,0.,0.,0.0002
 6702,0.,0.,-0.01538318,0.,0.,0.00072242,0.,0.,0.01439374,0.43578998,0.
 19043685,-1.31280265,0.00000001,0.,0.15249622,-0.00206799,0.00279050,0
 .,-0.31483514,0.00062531,-0.00315685,0.,-0.13925551,0.06151230,0.,0.,-
 0.00046092,0.,0.,0.03994725,-0.43391833,-0.19281419,-0.00000001,0.0083
 8982,-0.01021468,0.,0.42561343,-0.19019988,1.31506938,0.,-0.00987314,0
 .00525329,0.,0.20056390,-1.31159477,-0.00000001,0.,-0.15207973,0.,0.,0
 .00120079,0.00000001,0.,0.14921933,0.00019633,-0.00041315,0.,0.3085133
 2,0.14884488,0.,-0.00008492,-0.00049088,0.,-0.30862473,-0.00086228,0.0
 0089010,0.,0.14633816,-0.06360874,0.,0.00246497,-0.00872789,0.,-0.1479
 4085,0.07144654,0.,0.,0.00004442,0.,0.,-0.04068710,0.,0.,0.00165961,0.
 ,0.,0.03898307,-1.55773057,-1.08616003,7.80849930,-0.00000001,0.000000
 01,-1.68109090,0.00255517,-0.00532242,0.,0.22792092,0.00109294,-0.0143
 4743,0.,0.07680080,-0.02526558,0.,0.,0.00164550,0.,0.,-0.05621439,1.55
 606576,1.08946640,0.00000001,-0.01039293,0.01125622,0.,-1.54512771,1.0
 8425588,-7.79244897,-0.00000001,0.02299056,0.02455709,0.,-1.09632646,7
 .76099526,0.00000001,-0.00000001,1.67961861,0.,0.,-0.00636636,-0.00000
 001,0.00000001,-1.67138653,-0.00089039,0.00201605,0.,-0.22008313,-0.08
 914996,0.,-0.00054512,-0.01091998,0.,0.22151863,0.00081121,-0.00170292
 ,0.,-0.09446895,0.01505594,0.,-0.00439616,0.00689664,0.,0.09805390,-0.
 02024966,0.,0.,-0.00017322,0.,0.,0.06093527,0.,0.,-0.00186572,0.,0.,-0
 .05889633,-0.04846880,-0.03570642,0.24408962,-0.00000002,0.,-0.0525735
 4,0.00003516,0.00173526,0.,6.91580526,-0.00063869,0.00179015,0.,3.1721
 2298,-0.55226717,0.,0.,0.00018287,0.,0.,-1.72384501,0.04871981,0.03564
 746,0.00000002,-0.00087249,0.00171277,0.,-0.04976246,0.03577269,-0.245
 40776,0.,-0.00504495,-0.00267475,0.,-0.03512785,0.24758444,0.00000002,
 0.,0.05269430,0.,0.,-0.00076409,-0.00000002,0.,-0.05333640,-0.00028618
 ,-0.00167630,0.,-6.91496791,-3.17319707,0.,0.00191514,0.00440012,0.,6.
 91333895,0.00057242,-0.00047202,0.,-3.16881329,0.55315175,0.,-0.002232
 38,0.00049807,0.,3.17047326,-0.55317780,0.,0.,-0.00030364,0.,0.,1.7244
 2623,0.,0.,0.00140619,0.,0.,-1.72552877\\@


       THE DEATH-KNELL OF THE ATOM

 SO THE ATOMS IN TURN, WE NOW CLEARLY DISCERN,
 FLY TO BITS WITH THE UTMOST FACILITY;
 THEY WEND ON THEIR WAY, AND, IN SPLITTING, DISPLAY
 AN ABSOLUTE LACK OF STABILITY.

          SIR WM. RAMSAY, 1905
 Job cpu time:       0 days  7 hours 37 minutes  5.5 seconds.
 Elapsed time:       0 days  0 hours 16 minutes 44.2 seconds.
 File lengths (MBytes):  RWF=   1640 Int=      0 D2E=      0 Chk=     48 Scr=      8
 Normal termination of Gaussian 16 at Fri Jun 25 15:25:32 2021.
