 Entering Gaussian System, Link 0=g16
 Input=hf_hf_mp2_avdz_opt_anharm.gjf
 Output=hf_hf_mp2_avdz_opt_anharm.log
 Initial command:
 /sw/contrib/gaussian/g16/A03/g16/l1.exe "/gscratch/scrubbed/gds001/Gau-30621.inp" -scrdir="/gscratch/scrubbed/gds001/"
 Entering Link 1 = /sw/contrib/gaussian/g16/A03/g16/l1.exe PID=     30622.
  
 Copyright (c) 1988,1990,1992,1993,1995,1998,2003,2009,2016,
            Gaussian, Inc.  All Rights Reserved.
  
 This is part of the Gaussian(R) 16 program.  It is based on
 the Gaussian(R) 09 system (copyright 2009, Gaussian, Inc.),
 the Gaussian(R) 03 system (copyright 2003, Gaussian, Inc.),
 the Gaussian(R) 98 system (copyright 1998, Gaussian, Inc.),
 the Gaussian(R) 94 system (copyright 1995, Gaussian, Inc.),
 the Gaussian 92(TM) system (copyright 1992, Gaussian, Inc.),
 the Gaussian 90(TM) system (copyright 1990, Gaussian, Inc.),
 the Gaussian 88(TM) system (copyright 1988, Gaussian, Inc.),
 the Gaussian 86(TM) system (copyright 1986, Carnegie Mellon
 University), and the Gaussian 82(TM) system (copyright 1983,
 Carnegie Mellon University). Gaussian is a federally registered
 trademark of Gaussian, Inc.
  
 This software contains proprietary and confidential information,
 including trade secrets, belonging to Gaussian, Inc.
  
 This software is provided under written license and may be
 used, copied, transmitted, or stored only in accord with that
 written license.
  
 The following legend is applicable only to US Government
 contracts under FAR:
  
                    RESTRICTED RIGHTS LEGEND
  
 Use, reproduction and disclosure by the US Government is
 subject to restrictions as set forth in subparagraphs (a)
 and (c) of the Commercial Computer Software - Restricted
 Rights clause in FAR 52.227-19.
  
 Gaussian, Inc.
 340 Quinnipiac St., Bldg. 40, Wallingford CT 06492
  
  
 ---------------------------------------------------------------
 Warning -- This program may not be used in any manner that
 competes with the business of Gaussian, Inc. or will provide
 assistance to any competitor of Gaussian, Inc.  The licensee
 of this program is prohibited from giving any competitor of
 Gaussian, Inc. access to this program.  By using this program,
 the user acknowledges that Gaussian, Inc. is engaged in the
 business of creating and licensing software in the field of
 computational chemistry and represents and warrants to the
 licensee that it is not a competitor of Gaussian, Inc. and that
 it will not use this program in any manner prohibited above.
 ---------------------------------------------------------------
  

 Cite this work as:
 Gaussian 16, Revision A.03,
 M. J. Frisch, G. W. Trucks, H. B. Schlegel, G. E. Scuseria, 
 M. A. Robb, J. R. Cheeseman, G. Scalmani, V. Barone, 
 G. A. Petersson, H. Nakatsuji, X. Li, M. Caricato, A. V. Marenich, 
 J. Bloino, B. G. Janesko, R. Gomperts, B. Mennucci, H. P. Hratchian, 
 J. V. Ortiz, A. F. Izmaylov, J. L. Sonnenberg, D. Williams-Young, 
 F. Ding, F. Lipparini, F. Egidi, J. Goings, B. Peng, A. Petrone, 
 T. Henderson, D. Ranasinghe, V. G. Zakrzewski, J. Gao, N. Rega, 
 G. Zheng, W. Liang, M. Hada, M. Ehara, K. Toyota, R. Fukuda, 
 J. Hasegawa, M. Ishida, T. Nakajima, Y. Honda, O. Kitao, H. Nakai, 
 T. Vreven, K. Throssell, J. A. Montgomery, Jr., J. E. Peralta, 
 F. Ogliaro, M. J. Bearpark, J. J. Heyd, E. N. Brothers, K. N. Kudin, 
 V. N. Staroverov, T. A. Keith, R. Kobayashi, J. Normand, 
 K. Raghavachari, A. P. Rendell, J. C. Burant, S. S. Iyengar, 
 J. Tomasi, M. Cossi, J. M. Millam, M. Klene, C. Adamo, R. Cammi, 
 J. W. Ochterski, R. L. Martin, K. Morokuma, O. Farkas, 
 J. B. Foresman, and D. J. Fox, Gaussian, Inc., Wallingford CT, 2016.
 
 ******************************************
 Gaussian 16:  ES64L-G16RevA.03 25-Dec-2016
                26-Nov-2021 
 ******************************************
 %nprocshared=28
 Will use up to   28 processors via shared memory.
 %mem=41GB
 ----------------------------------------------
 # mp2/aug-cc-pVDZ opt freq=(vibrot,anharmonic)
 ----------------------------------------------
 1/18=20,19=15,38=1,80=1/1,3;
 2/9=110,12=2,17=6,18=5,40=1/2;
 3/5=16,7=10,11=9,25=1,30=1,71=1/1,2,3;
 4//1;
 5/5=2,38=5/2;
 8/6=4,10=1/1;
 9/15=2,16=-3/6;
 10/5=1/2;
 6/7=2,8=2,9=2,10=2/1;
 7/12=2/1,2,3,16;
 1/18=20,19=15,80=1/3(2);
 2/9=110/2;
 99//99;
 2/9=110/2;
 3/5=16,7=10,11=9,25=1,30=1,71=1/1,2,3;
 4/5=5,16=3,69=1/1;
 5/5=2,38=5/2;
 8/6=4,10=1/1;
 9/15=2,16=-3/6;
 10/5=1/2;
 7/12=2/1,2,3,16;
 1/18=20,19=15,80=1/3(-8);
 2/9=110/2;
 6/7=2,8=2,9=2,10=2/1;
 99//99;
 ----
 bleh
 ----
 Symbolic Z-matrix:
 Charge =  0 Multiplicity = 1
 F                     0.03804   1.43601   0. 
 F                     0.03804  -1.31187   0. 
 H                     0.14537   0.51421   0. 
 H                    -0.83002  -1.63149   0. 
 
 Add virtual bond connecting atoms H3         and F2         Dist= 3.46D+00.

 GradGradGradGradGradGradGradGradGradGradGradGradGradGradGradGradGradGrad
 Berny optimization.
 Initialization pass.
                           ----------------------------
                           !    Initial Parameters    !
                           ! (Angstroms and Degrees)  !
 --------------------------                            --------------------------
 ! Name  Definition              Value          Derivative Info.                !
 --------------------------------------------------------------------------------
 ! R1    R(1,3)                  0.928          estimate D2E/DX2                !
 ! R2    R(2,3)                  1.8292         estimate D2E/DX2                !
 ! R3    R(2,4)                  0.925          estimate D2E/DX2                !
 ! A1    A(3,2,4)              113.578          estimate D2E/DX2                !
 ! A2    L(1,3,2,4,-1)         169.9945         estimate D2E/DX2                !
 ! A3    L(1,3,2,4,-2)         180.0            estimate D2E/DX2                !
 --------------------------------------------------------------------------------
 Trust Radius=3.00D-01 FncErr=1.00D-07 GrdErr=1.00D-07 EigMax=2.50D+02 EigMin=1.00D-04
 Number of steps in this run=     20 maximum allowed number of steps=    100.
 GradGradGradGradGradGradGradGradGradGradGradGradGradGradGradGradGradGrad

                          Input orientation:                          
 ---------------------------------------------------------------------
 Center     Atomic      Atomic             Coordinates (Angstroms)
 Number     Number       Type             X           Y           Z
 ---------------------------------------------------------------------
      1          9           0        0.038036    1.436012    0.000000
      2          9           0        0.038036   -1.311869    0.000000
      3          1           0        0.145371    0.514205    0.000000
      4          1           0       -0.830016   -1.631492    0.000000
 ---------------------------------------------------------------------
                    Distance matrix (angstroms):
                    1          2          3          4
     1  F    0.000000
     2  F    2.747881   0.000000
     3  H    0.928035   1.829226   0.000000
     4  H    3.187961   0.925026   2.356989   0.000000
 Stoichiometry    F2H2
 Framework group  CS[SG(F2H2)]
 Deg. of freedom     5
 Full point group                 CS      NOp   2
 Largest Abelian subgroup         CS      NOp   2
 Largest concise Abelian subgroup C1      NOp   1
                         Standard orientation:                         
 ---------------------------------------------------------------------
 Center     Atomic      Atomic             Coordinates (Angstroms)
 Number     Number       Type             X           Y           Z
 ---------------------------------------------------------------------
      1          9           0        0.038036    1.436012    0.000000
      2          9           0        0.038036   -1.311869    0.000000
      3          1           0        0.145371    0.514205    0.000000
      4          1           0       -0.830016   -1.631492    0.000000
 ---------------------------------------------------------------------
 Rotational constants (GHZ):         696.4167660           6.7550315           6.6901392
 Standard basis: Aug-CC-pVDZ (5D, 7F)
 There are    50 symmetry adapted cartesian basis functions of A'  symmetry.
 There are    18 symmetry adapted cartesian basis functions of A"  symmetry.
 There are    46 symmetry adapted basis functions of A'  symmetry.
 There are    18 symmetry adapted basis functions of A"  symmetry.
    64 basis functions,   108 primitive gaussians,    68 cartesian basis functions
    10 alpha electrons       10 beta electrons
       nuclear repulsion energy        30.2012710247 Hartrees.
 NAtoms=    4 NActive=    4 NUniq=    4 SFac= 1.00D+00 NAtFMM=   60 NAOKFM=F Big=F
 Integral buffers will be    131072 words long.
 Raffenetti 1 integral format.
 Two-electron integral symmetry is turned on.
 One-electron integrals computed using PRISM.
 NBasis=    64 RedAO= T EigKep=  1.66D-03  NBF=    46    18
 NBsUse=    64 1.00D-06 EigRej= -1.00D+00 NBFU=    46    18
 ExpMin= 2.97D-02 ExpMax= 1.47D+04 ExpMxC= 5.03D+02 IAcc=3 IRadAn=         5 AccDes= 0.00D+00
 Harris functional with IExCor=  205 and IRadAn=       5 diagonalized for initial guess.
 HarFok:  IExCor=  205 AccDes= 0.00D+00 IRadAn=         5 IDoV= 1 UseB2=F ITyADJ=14
 ICtDFT=  3500011 ScaDFX=  1.000000  1.000000  1.000000  1.000000
 FoFCou: FMM=F IPFlag=           0 FMFlag=      100000 FMFlg1=           0
         NFxFlg=           0 DoJE=T BraDBF=F KetDBF=T FulRan=T
         wScrn=  0.000000 ICntrl=       500 IOpCl=  0 I1Cent=   200000004 NGrid=           0
         NMat0=    1 NMatS0=      1 NMatT0=    0 NMatD0=    1 NMtDS0=    0 NMtDT0=    0
 Petite list used in FoFCou.
 Initial guess orbital symmetries:
       Occupied  (A') (A') (A') (A') (A') (A') (A') (A") (A') (A")
       Virtual   (A') (A') (A') (A') (A") (A') (A') (A') (A") (A')
                 (A') (A') (A") (A') (A") (A') (A') (A') (A') (A')
                 (A") (A') (A") (A') (A") (A') (A") (A') (A") (A')
                 (A') (A") (A') (A') (A') (A') (A") (A") (A') (A')
                 (A') (A') (A') (A') (A") (A') (A") (A') (A") (A')
                 (A") (A') (A') (A')
 The electronic state of the initial guess is 1-A'.
 Keep R1 ints in memory in symmetry-blocked form, NReq=7989816.
 Requested convergence on RMS density matrix=1.00D-08 within 128 cycles.
 Requested convergence on MAX density matrix=1.00D-06.
 Requested convergence on             energy=1.00D-06.
 No special actions if energy rises.
 SCF Done:  E(RHF) =  -200.072397335     A.U. after   10 cycles
            NFock= 10  Conv=0.48D-08     -V/T= 2.0010
 ExpMin= 2.97D-02 ExpMax= 1.47D+04 ExpMxC= 5.03D+02 IAcc=3 IRadAn=         5 AccDes= 0.00D+00
 HarFok:  IExCor=  205 AccDes= 0.00D+00 IRadAn=         5 IDoV=-2 UseB2=F ITyADJ=14
 ICtDFT= 12500011 ScaDFX=  1.000000  1.000000  1.000000  1.000000
 Range of M.O.s used for correlation:     3    64
 NBasis=    64 NAE=    10 NBE=    10 NFC=     2 NFV=     0
 NROrb=     62 NOA=     8 NOB=     8 NVA=    54 NVB=    54

 **** Warning!!: The largest alpha MO coefficient is  0.10061139D+02

 Fully direct method using O(ONN) memory.
 JobTyp=1 Pass  1:  I=   3 to  10 NPSUse= 28 ParTrn=T ParDer=T DoDerP=T.
 Spin components of T(2) and E(2):
     alpha-alpha T2 =       0.1327346381D-01 E2=     -0.5993846361D-01
     alpha-beta  T2 =       0.7014979451D-01 E2=     -0.3267830641D+00
     beta-beta   T2 =       0.1327346381D-01 E2=     -0.5993846361D-01
 ANorm=    0.1047232888D+01
 E2 =    -0.4466599914D+00 EUMP2 =    -0.20051905732672D+03
          IDoAtm=1111
          Differentiating once with respect to electric field.
                with respect to dipole field.
          Differentiating once with respect to nuclear coordinates.
 Keep R1 ints in memory in symmetry-blocked form, NReq=7991706.
          There are     1 degrees of freedom in the 1st order CPHF.  IDoFFX=0 NUNeed=     1.
 LinEq1:  Iter=  0 NonCon=     1 RMS=6.97D-03 Max=5.56D-02 NDo=     1
 AX will form     1 AO Fock derivatives at one time.
 LinEq1:  Iter=  1 NonCon=     1 RMS=1.75D-03 Max=1.09D-02 NDo=     1
 LinEq1:  Iter=  2 NonCon=     1 RMS=3.90D-04 Max=2.53D-03 NDo=     1
 LinEq1:  Iter=  3 NonCon=     1 RMS=4.40D-05 Max=2.64D-04 NDo=     1
 LinEq1:  Iter=  4 NonCon=     1 RMS=5.55D-06 Max=3.46D-05 NDo=     1
 LinEq1:  Iter=  5 NonCon=     1 RMS=1.91D-06 Max=9.42D-06 NDo=     1
 LinEq1:  Iter=  6 NonCon=     1 RMS=4.69D-07 Max=2.63D-06 NDo=     1
 LinEq1:  Iter=  7 NonCon=     1 RMS=7.78D-08 Max=3.98D-07 NDo=     1
 LinEq1:  Iter=  8 NonCon=     1 RMS=9.92D-09 Max=5.39D-08 NDo=     1
 LinEq1:  Iter=  9 NonCon=     1 RMS=1.34D-09 Max=6.44D-09 NDo=     1
 LinEq1:  Iter= 10 NonCon=     1 RMS=2.73D-10 Max=1.56D-09 NDo=     1
 LinEq1:  Iter= 11 NonCon=     0 RMS=4.15D-11 Max=2.58D-10 NDo=     1
 Linear equations converged to 1.000D-10 1.000D-09 after    11 iterations.
 End of Minotr F.D. properties file   721 does not exist.
 End of Minotr F.D. properties file   722 does not exist.
 End of Minotr F.D. properties file   788 does not exist.

 **********************************************************************

            Population analysis using the SCF density.

 **********************************************************************

 Orbital symmetries:
       Occupied  (A') (A') (A') (A') (A') (A') (A") (A') (A') (A")
       Virtual   (A') (A') (A') (A") (A') (A') (A') (A") (A') (A')
                 (A') (A") (A') (A") (A') (A') (A') (A') (A') (A')
                 (A") (A') (A") (A") (A') (A') (A") (A') (A') (A")
                 (A') (A") (A') (A') (A') (A') (A") (A") (A') (A')
                 (A') (A') (A') (A') (A") (A") (A') (A") (A') (A')
                 (A') (A") (A') (A')
 The electronic state is 1-A'.
 Alpha  occ. eigenvalues --  -26.35612 -26.28486  -1.65229  -1.58052  -0.81905
 Alpha  occ. eigenvalues --   -0.75552  -0.69584  -0.68776  -0.62642  -0.62627
 Alpha virt. eigenvalues --    0.02423   0.07235   0.17554   0.20542   0.20645
 Alpha virt. eigenvalues --    0.23616   0.27228   0.28831   0.30283   0.30936
 Alpha virt. eigenvalues --    0.37274   0.38319   0.39997   0.47887   0.49316
 Alpha virt. eigenvalues --    0.55699   0.64686   0.87311   0.92568   1.00756
 Alpha virt. eigenvalues --    1.34450   1.36410   1.36724   1.39220   1.39403
 Alpha virt. eigenvalues --    1.42877   1.48808   1.49455   1.60864   1.63959
 Alpha virt. eigenvalues --    1.64306   1.76791   1.78347   1.80524   2.02301
 Alpha virt. eigenvalues --    2.07698   2.12106   2.23194   2.35581   2.50909
 Alpha virt. eigenvalues --    2.65177   2.97307   3.62562   3.66551   4.85074
 Alpha virt. eigenvalues --    4.87643   4.87659   4.88314   4.88816   4.97680
 Alpha virt. eigenvalues --    5.00666   5.00782   5.12454   5.35043
          Condensed to atoms (all electrons):
               1          2          3          4
     1  F    9.162518  -0.035059   0.252355  -0.001222
     2  F   -0.035059   9.091144   0.010861   0.289139
     3  H    0.252355   0.010861   0.367266   0.000216
     4  H   -0.001222   0.289139   0.000216   0.346493
 Mulliken charges:
               1
     1  F   -0.378592
     2  F   -0.356085
     3  H    0.369303
     4  H    0.365374
 Sum of Mulliken charges =  -0.00000
 Mulliken charges with hydrogens summed into heavy atoms:
               1
     1  F   -0.009289
     2  F    0.009289
 Electronic spatial extent (au):  <R**2>=            159.1487
 Charge=              0.0000 electrons
 Dipole moment (field-independent basis, Debye):
    X=             -1.6478    Y=             -3.0539    Z=              0.0000  Tot=              3.4700
 Quadrupole moment (field-independent basis, Debye-Ang):
   XX=             -9.2271   YY=            -12.2719   ZZ=            -11.4305
   XY=              3.2936   XZ=              0.0000   YZ=              0.0000
 Traceless Quadrupole moment (field-independent basis, Debye-Ang):
   XX=              1.7494   YY=             -1.2954   ZZ=             -0.4540
   XY=              3.2936   XZ=              0.0000   YZ=              0.0000
 Octapole moment (field-independent basis, Debye-Ang**2):
  XXX=             -2.0203  YYY=            -10.8976  ZZZ=              0.0000  XYY=             -6.0179
  XXY=             -3.8499  XXZ=              0.0000  XZZ=             -0.1333  YZZ=             -0.4209
  YYZ=              0.0000  XYZ=              0.0000
 Hexadecapole moment (field-independent basis, Debye-Ang**3):
 XXXX=             -7.0128 YYYY=           -125.8417 ZZZZ=             -7.5709 XXXY=              1.0968
 XXXZ=              0.0000 YYYX=              7.5176 YYYZ=              0.0000 ZZZX=              0.0000
 ZZZY=              0.0000 XXYY=            -18.1999 XXZZ=             -2.6900 YYZZ=            -23.6140
 XXYZ=              0.0000 YYXZ=              0.0000 ZZXY=             -0.5463
 N-N= 3.020127102470D+01 E-N=-5.402439194194D+02  KE= 1.998658526629D+02
 Symmetry A'   KE= 1.873919952618D+02
 Symmetry A"   KE= 1.247385740116D+01
 Calling FoFJK, ICntrl=  10002127 FMM=F ISym2X=1 I1Cent= 0 IOpClX= 0 NMat=1 NMatS=1 NMatT=0.
 ***** Axes restored to original set *****
 -------------------------------------------------------------------
 Center     Atomic                   Forces (Hartrees/Bohr)
 Number     Number              X              Y              Z
 -------------------------------------------------------------------
      1        9          -0.000367814    0.003378840   -0.000000000
      2        9           0.002856568    0.000924983   -0.000000000
      3        1           0.000360832   -0.003257101   -0.000000000
      4        1          -0.002849586   -0.001046721   -0.000000000
 -------------------------------------------------------------------
 Cartesian Forces:  Max     0.003378840 RMS     0.001837618

 GradGradGradGradGradGradGradGradGradGradGradGradGradGradGradGradGradGrad
 Berny optimization.
 FormGI is forming the generalized inverse of G from B-inverse, IUseBI=4.
 Internal  Forces:  Max     0.003398705 RMS     0.001861167
 Search for a local minimum.
 Step number   1 out of a maximum of   20
 All quantities printed in internal units (Hartrees-Bohrs-Radians)
 Mixed Optimization -- RFO/linear search
 Second derivative matrix not updated -- first step.
 The second derivative matrix:
                          R1        R2        R3        A1        A2
           R1           0.62958
           R2           0.00000   0.05794
           R3           0.00000   0.00000   0.63731
           A1           0.00000   0.00000   0.00000   0.16000
           A2           0.00000   0.00000   0.00000   0.00000   0.00230
           A3           0.00000   0.00000   0.00000   0.00000   0.00000
                          A3
           A3           0.00230
 ITU=  0
     Eigenvalues ---    0.00230   0.00230   0.05794   0.16000   0.62958
     Eigenvalues ---    0.63731
 RFO step:  Lambda=-3.39126523D-05 EMin= 2.30000000D-03
 Linear search not attempted -- first point.
 Iteration  1 RMS(Cart)=  0.00934494 RMS(Int)=  0.00008199
 Iteration  2 RMS(Cart)=  0.00007317 RMS(Int)=  0.00000000
 Iteration  3 RMS(Cart)=  0.00000000 RMS(Int)=  0.00000000
 ClnCor:  largest displacement from symmetrization is 0.00D+00 for atom     0.
 Variable       Old X    -DE/DX   Delta X   Delta X   Delta X     New X
                                 (Linear)    (Quad)   (Total)
    R1        1.75373   0.00340   0.00000   0.00540   0.00540   1.75913
    R2        3.45674   0.00012   0.00000   0.00209   0.00209   3.45883
    R3        1.74805   0.00304   0.00000   0.00476   0.00476   1.75281
    A1        1.98231  -0.00000   0.00000  -0.00003  -0.00003   1.98228
    A2        2.96696   0.00004   0.00000   0.01912   0.01912   2.98609
    A3        3.14159  -0.00000   0.00000  -0.00000   0.00000   3.14159
         Item               Value     Threshold  Converged?
 Maximum Force            0.003399     0.000450     NO 
 RMS     Force            0.001861     0.000300     NO 
 Maximum Displacement     0.013253     0.001800     NO 
 RMS     Displacement     0.009337     0.001200     NO 
 Predicted change in Energy=-1.696348D-05
 GradGradGradGradGradGradGradGradGradGradGradGradGradGradGradGradGradGrad

                          Input orientation:                          
 ---------------------------------------------------------------------
 Center     Atomic      Atomic             Coordinates (Angstroms)
 Number     Number       Type             X           Y           Z
 ---------------------------------------------------------------------
      1          9           0        0.044389    1.441186    0.000000
      2          9           0        0.038856   -1.312575    0.000000
      3          1           0        0.138358    0.515050    0.000000
      4          1           0       -0.830176   -1.636805    0.000000
 ---------------------------------------------------------------------
                    Distance matrix (angstroms):
                    1          2          3          4
     1  F    0.000000
     2  F    2.753767   0.000000
     3  H    0.930892   1.830331   0.000000
     4  H    3.199828   0.927547   2.359775   0.000000
 Stoichiometry    F2H2
 Framework group  CS[SG(F2H2)]
 Deg. of freedom     5
 Full point group                 CS      NOp   2
 Largest Abelian subgroup         CS      NOp   2
 Largest concise Abelian subgroup C1      NOp   1
                         Standard orientation:                         
 ---------------------------------------------------------------------
 Center     Atomic      Atomic             Coordinates (Angstroms)
 Number     Number       Type             X           Y           Z
 ---------------------------------------------------------------------
      1          9           0        0.038627    1.439480    0.000000
      2          9           0        0.038627   -1.314287    0.000000
      3          1           0        0.134457    0.513534    0.000000
      4          1           0       -0.829752   -1.640263    0.000000
 ---------------------------------------------------------------------
 Rotational constants (GHZ):         698.5496558           6.7246827           6.6605639
 Standard basis: Aug-CC-pVDZ (5D, 7F)
 There are    50 symmetry adapted cartesian basis functions of A'  symmetry.
 There are    18 symmetry adapted cartesian basis functions of A"  symmetry.
 There are    46 symmetry adapted basis functions of A'  symmetry.
 There are    18 symmetry adapted basis functions of A"  symmetry.
    64 basis functions,   108 primitive gaussians,    68 cartesian basis functions
    10 alpha electrons       10 beta electrons
       nuclear repulsion energy        30.1308134728 Hartrees.
 NAtoms=    4 NActive=    4 NUniq=    4 SFac= 1.00D+00 NAtFMM=   60 NAOKFM=F Big=F
 Integral buffers will be    131072 words long.
 Raffenetti 1 integral format.
 Two-electron integral symmetry is turned on.
 One-electron integrals computed using PRISM.
 NBasis=    64 RedAO= T EigKep=  1.67D-03  NBF=    46    18
 NBsUse=    64 1.00D-06 EigRej= -1.00D+00 NBFU=    46    18
 Initial guess from the checkpoint file:  "/gscratch/scrubbed/gds001/Gau-30622.chk"
 B after Tr=     0.000000   -0.000000    0.000000
         Rot=    1.000000   -0.000000   -0.000000   -0.000171 Ang=  -0.02 deg.
 Initial guess orbital symmetries:
       Occupied  (A') (A') (A') (A') (A') (A') (A") (A') (A') (A")
       Virtual   (A') (A') (A') (A") (A') (A') (A') (A") (A') (A')
                 (A') (A") (A') (A") (A') (A') (A') (A') (A') (A')
                 (A") (A') (A") (A") (A') (A') (A") (A') (A') (A")
                 (A') (A") (A') (A') (A') (A') (A") (A") (A') (A')
                 (A') (A') (A') (A') (A") (A") (A') (A") (A') (A')
                 (A') (A") (A') (A')
 Keep R1 ints in memory in symmetry-blocked form, NReq=7989816.
 Requested convergence on RMS density matrix=1.00D-08 within 128 cycles.
 Requested convergence on MAX density matrix=1.00D-06.
 Requested convergence on             energy=1.00D-06.
 No special actions if energy rises.
 SCF Done:  E(RHF) =  -200.072102902     A.U. after    8 cycles
            NFock=  8  Conv=0.65D-08     -V/T= 2.0011
 ExpMin= 2.97D-02 ExpMax= 1.47D+04 ExpMxC= 5.03D+02 IAcc=3 IRadAn=         5 AccDes= 0.00D+00
 HarFok:  IExCor=  205 AccDes= 0.00D+00 IRadAn=         5 IDoV=-2 UseB2=F ITyADJ=14
 ICtDFT= 12500011 ScaDFX=  1.000000  1.000000  1.000000  1.000000
 Range of M.O.s used for correlation:     3    64
 NBasis=    64 NAE=    10 NBE=    10 NFC=     2 NFV=     0
 NROrb=     62 NOA=     8 NOB=     8 NVA=    54 NVB=    54

 **** Warning!!: The largest alpha MO coefficient is  0.10086466D+02

 Fully direct method using O(ONN) memory.
 JobTyp=1 Pass  1:  I=   3 to  10 NPSUse= 28 ParTrn=T ParDer=T DoDerP=T.
 Spin components of T(2) and E(2):
     alpha-alpha T2 =       0.1329838305D-01 E2=     -0.5997724368D-01
     alpha-beta  T2 =       0.7030389138D-01 E2=     -0.3270165579D+00
     beta-beta   T2 =       0.1329838305D-01 E2=     -0.5997724368D-01
 ANorm=    0.1047330252D+01
 E2 =    -0.4469710452D+00 EUMP2 =    -0.20051907394691D+03
          IDoAtm=1111
          Differentiating once with respect to electric field.
                with respect to dipole field.
          Differentiating once with respect to nuclear coordinates.
 Keep R1 ints in memory in symmetry-blocked form, NReq=7991662.
          There are     1 degrees of freedom in the 1st order CPHF.  IDoFFX=0 NUNeed=     1.
 LinEq1:  Iter=  0 NonCon=     1 RMS=6.99D-03 Max=5.58D-02 NDo=     1
 AX will form     1 AO Fock derivatives at one time.
 LinEq1:  Iter=  1 NonCon=     1 RMS=1.76D-03 Max=1.10D-02 NDo=     1
 LinEq1:  Iter=  2 NonCon=     1 RMS=3.93D-04 Max=2.55D-03 NDo=     1
 LinEq1:  Iter=  3 NonCon=     1 RMS=4.45D-05 Max=2.66D-04 NDo=     1
 LinEq1:  Iter=  4 NonCon=     1 RMS=5.65D-06 Max=3.39D-05 NDo=     1
 LinEq1:  Iter=  5 NonCon=     1 RMS=1.94D-06 Max=9.77D-06 NDo=     1
 LinEq1:  Iter=  6 NonCon=     1 RMS=4.78D-07 Max=2.71D-06 NDo=     1
 LinEq1:  Iter=  7 NonCon=     1 RMS=7.87D-08 Max=3.94D-07 NDo=     1
 LinEq1:  Iter=  8 NonCon=     1 RMS=1.00D-08 Max=5.23D-08 NDo=     1
 LinEq1:  Iter=  9 NonCon=     1 RMS=1.36D-09 Max=6.46D-09 NDo=     1
 LinEq1:  Iter= 10 NonCon=     1 RMS=2.79D-10 Max=1.58D-09 NDo=     1
 LinEq1:  Iter= 11 NonCon=     0 RMS=4.27D-11 Max=2.64D-10 NDo=     1
 Linear equations converged to 1.000D-10 1.000D-09 after    11 iterations.
 End of Minotr F.D. properties file   721 does not exist.
 End of Minotr F.D. properties file   722 does not exist.
 End of Minotr F.D. properties file   788 does not exist.
 Calling FoFJK, ICntrl=  10002127 FMM=F ISym2X=1 I1Cent= 0 IOpClX= 0 NMat=1 NMatS=1 NMatT=0.
 ***** Axes restored to original set *****
 -------------------------------------------------------------------
 Center     Atomic                   Forces (Hartrees/Bohr)
 Number     Number              X              Y              Z
 -------------------------------------------------------------------
      1        9          -0.000106217    0.000220740   -0.000000000
      2        9           0.000125988    0.000124743   -0.000000000
      3        1           0.000168445   -0.000232410   -0.000000000
      4        1          -0.000188217   -0.000113073   -0.000000000
 -------------------------------------------------------------------
 Cartesian Forces:  Max     0.000232410 RMS     0.000136027

 GradGradGradGradGradGradGradGradGradGradGradGradGradGradGradGradGradGrad
 Berny optimization.
 Using GEDIIS/GDIIS optimizer.
 FormGI is forming the generalized inverse of G from B-inverse, IUseBI=4.
 Internal  Forces:  Max     0.000230336 RMS     0.000145027
 Search for a local minimum.
 Step number   2 out of a maximum of   20
 All quantities printed in internal units (Hartrees-Bohrs-Radians)
 Mixed Optimization -- En-DIIS/RFO-DIIS
 Update second derivatives using D2CorX and points    1    2
 DE= -1.66D-05 DEPred=-1.70D-05 R= 9.80D-01
 TightC=F SS=  1.41D+00  RLast= 2.05D-02 DXNew= 5.0454D-01 6.1619D-02
 Trust test= 9.80D-01 RLast= 2.05D-02 DXMaxT set to 3.00D-01
 The second derivative matrix:
                          R1        R2        R3        A1        A2
           R1           0.58012
           R2          -0.00024   0.05799
           R3          -0.04511  -0.00025   0.59619
           A1          -0.00644  -0.00026  -0.00573   0.16016
           A2           0.01318   0.00056   0.01172  -0.00041   0.00331
           A3           0.00000   0.00000   0.00000  -0.00000   0.00000
                          A3
           A3           0.00230
 ITU=  1  0
 Use linear search instead of GDIIS.
     Eigenvalues ---    0.00230   0.00272   0.05800   0.15997   0.54311
     Eigenvalues ---    0.63398
 RFO step:  Lambda=-9.23202500D-06 EMin= 2.30000000D-03
 Quartic linear search produced a step of -0.01621.
 Iteration  1 RMS(Cart)=  0.02458719 RMS(Int)=  0.00073477
 Iteration  2 RMS(Cart)=  0.00070624 RMS(Int)=  0.00000006
 Iteration  3 RMS(Cart)=  0.00000006 RMS(Int)=  0.00000000
 ClnCor:  largest displacement from symmetrization is 4.44D-16 for atom     2.
 Variable       Old X    -DE/DX   Delta X   Delta X   Delta X     New X
                                 (Linear)    (Quad)   (Total)
    R1        1.75913   0.00023  -0.00009   0.00192   0.00183   1.76096
    R2        3.45883  -0.00001  -0.00003   0.00046   0.00043   3.45925
    R3        1.75281   0.00022  -0.00008   0.00171   0.00163   1.75444
    A1        1.98228   0.00007   0.00000   0.00043   0.00043   1.98271
    A2        2.98609  -0.00015  -0.00031  -0.05712  -0.05743   2.92866
    A3        3.14159  -0.00000   0.00000  -0.00000   0.00000   3.14159
         Item               Value     Threshold  Converged?
 Maximum Force            0.000230     0.000450     YES
 RMS     Force            0.000145     0.000300     YES
 Maximum Displacement     0.043371     0.001800     NO 
 RMS     Displacement     0.024736     0.001200     NO 
 Predicted change in Energy=-4.621106D-06
 GradGradGradGradGradGradGradGradGradGradGradGradGradGradGradGradGradGrad

                          Input orientation:                          
 ---------------------------------------------------------------------
 Center     Atomic      Atomic             Coordinates (Angstroms)
 Number     Number       Type             X           Y           Z
 ---------------------------------------------------------------------
      1          9           0        0.025636    1.434916    0.000000
      2          9           0        0.039079   -1.313489    0.000000
      3          1           0        0.161309    0.512984    0.000000
      4          1           0       -0.834597   -1.627555    0.000000
 ---------------------------------------------------------------------
                    Distance matrix (angstroms):
                    1          2          3          4
     1  F    0.000000
     2  F    2.748438   0.000000
     3  H    0.931862   1.830559   0.000000
     4  H    3.180995   0.928411   2.360876   0.000000
 Stoichiometry    F2H2
 Framework group  CS[SG(F2H2)]
 Deg. of freedom     5
 Full point group                 CS      NOp   2
 Largest Abelian subgroup         CS      NOp   2
 Largest concise Abelian subgroup C1      NOp   1
                         Standard orientation:                         
 ---------------------------------------------------------------------
 Center     Atomic      Atomic             Coordinates (Angstroms)
 Number     Number       Type             X           Y           Z
 ---------------------------------------------------------------------
      1          9           0        0.037202    1.435838    0.000000
      2          9           0        0.037202   -1.312601    0.000000
      3          1           0        0.168364    0.513253    0.000000
      4          1           0       -0.838000   -1.622389    0.000000
 ---------------------------------------------------------------------
 Rotational constants (GHZ):         679.2941353           6.7552729           6.6887562
 Standard basis: Aug-CC-pVDZ (5D, 7F)
 There are    50 symmetry adapted cartesian basis functions of A'  symmetry.
 There are    18 symmetry adapted cartesian basis functions of A"  symmetry.
 There are    46 symmetry adapted basis functions of A'  symmetry.
 There are    18 symmetry adapted basis functions of A"  symmetry.
    64 basis functions,   108 primitive gaussians,    68 cartesian basis functions
    10 alpha electrons       10 beta electrons
       nuclear repulsion energy        30.1592667734 Hartrees.
 NAtoms=    4 NActive=    4 NUniq=    4 SFac= 1.00D+00 NAtFMM=   60 NAOKFM=F Big=F
 Integral buffers will be    131072 words long.
 Raffenetti 1 integral format.
 Two-electron integral symmetry is turned on.
 One-electron integrals computed using PRISM.
 NBasis=    64 RedAO= T EigKep=  1.68D-03  NBF=    46    18
 NBsUse=    64 1.00D-06 EigRej= -1.00D+00 NBFU=    46    18
 Initial guess from the checkpoint file:  "/gscratch/scrubbed/gds001/Gau-30622.chk"
 B after Tr=    -0.000000   -0.000000    0.000000
         Rot=    1.000000   -0.000000   -0.000000    0.000594 Ang=   0.07 deg.
 Initial guess orbital symmetries:
       Occupied  (A') (A') (A') (A') (A') (A') (A") (A') (A') (A")
       Virtual   (A') (A') (A') (A") (A') (A') (A') (A") (A') (A')
                 (A') (A") (A') (A") (A') (A') (A') (A') (A') (A')
                 (A") (A') (A") (A") (A') (A') (A") (A') (A') (A")
                 (A') (A") (A') (A') (A') (A') (A") (A") (A') (A')
                 (A') (A') (A') (A') (A") (A") (A') (A") (A') (A')
                 (A') (A") (A') (A')
 ExpMin= 2.97D-02 ExpMax= 1.47D+04 ExpMxC= 5.03D+02 IAcc=3 IRadAn=         5 AccDes= 0.00D+00
 Harris functional with IExCor=  205 and IRadAn=       5 diagonalized for initial guess.
 HarFok:  IExCor=  205 AccDes= 0.00D+00 IRadAn=         5 IDoV= 1 UseB2=F ITyADJ=14
 ICtDFT=  3500011 ScaDFX=  1.000000  1.000000  1.000000  1.000000
 FoFCou: FMM=F IPFlag=           0 FMFlag=      100000 FMFlg1=           0
         NFxFlg=           0 DoJE=T BraDBF=F KetDBF=T FulRan=T
         wScrn=  0.000000 ICntrl=       500 IOpCl=  0 I1Cent=   200000004 NGrid=           0
         NMat0=    1 NMatS0=      1 NMatT0=    0 NMatD0=    1 NMtDS0=    0 NMtDT0=    0
 Petite list used in FoFCou.
 Keep R1 ints in memory in symmetry-blocked form, NReq=7989816.
 Requested convergence on RMS density matrix=1.00D-08 within 128 cycles.
 Requested convergence on MAX density matrix=1.00D-06.
 Requested convergence on             energy=1.00D-06.
 No special actions if energy rises.
 SCF Done:  E(RHF) =  -200.072013026     A.U. after    9 cycles
            NFock=  9  Conv=0.40D-08     -V/T= 2.0011
 ExpMin= 2.97D-02 ExpMax= 1.47D+04 ExpMxC= 5.03D+02 IAcc=3 IRadAn=         5 AccDes= 0.00D+00
 HarFok:  IExCor=  205 AccDes= 0.00D+00 IRadAn=         5 IDoV=-2 UseB2=F ITyADJ=14
 ICtDFT= 12500011 ScaDFX=  1.000000  1.000000  1.000000  1.000000
 Range of M.O.s used for correlation:     3    64
 NBasis=    64 NAE=    10 NBE=    10 NFC=     2 NFV=     0
 NROrb=     62 NOA=     8 NOB=     8 NVA=    54 NVB=    54
 Fully direct method using O(ONN) memory.
 JobTyp=1 Pass  1:  I=   3 to  10 NPSUse= 28 ParTrn=T ParDer=T DoDerP=T.
 Spin components of T(2) and E(2):
     alpha-alpha T2 =       0.1330420553D-01 E2=     -0.5998792424D-01
     alpha-beta  T2 =       0.7034142238D-01 E2=     -0.3270765689D+00
     beta-beta   T2 =       0.1330420553D-01 E2=     -0.5998792424D-01
 ANorm=    0.1047353729D+01
 E2 =    -0.4470524174D+00 EUMP2 =    -0.20051906544347D+03
          IDoAtm=1111
          Differentiating once with respect to electric field.
                with respect to dipole field.
          Differentiating once with respect to nuclear coordinates.
 Keep R1 ints in memory in symmetry-blocked form, NReq=7991618.
          There are     1 degrees of freedom in the 1st order CPHF.  IDoFFX=0 NUNeed=     1.
 LinEq1:  Iter=  0 NonCon=     1 RMS=6.99D-03 Max=5.59D-02 NDo=     1
 AX will form     1 AO Fock derivatives at one time.
 LinEq1:  Iter=  1 NonCon=     1 RMS=1.76D-03 Max=1.10D-02 NDo=     1
 LinEq1:  Iter=  2 NonCon=     1 RMS=3.93D-04 Max=2.57D-03 NDo=     1
 LinEq1:  Iter=  3 NonCon=     1 RMS=4.45D-05 Max=2.65D-04 NDo=     1
 LinEq1:  Iter=  4 NonCon=     1 RMS=5.75D-06 Max=3.71D-05 NDo=     1
 LinEq1:  Iter=  5 NonCon=     1 RMS=2.00D-06 Max=9.80D-06 NDo=     1
 LinEq1:  Iter=  6 NonCon=     1 RMS=4.83D-07 Max=2.64D-06 NDo=     1
 LinEq1:  Iter=  7 NonCon=     1 RMS=8.07D-08 Max=4.41D-07 NDo=     1
 LinEq1:  Iter=  8 NonCon=     1 RMS=1.04D-08 Max=6.09D-08 NDo=     1
 LinEq1:  Iter=  9 NonCon=     1 RMS=1.40D-09 Max=6.82D-09 NDo=     1
 LinEq1:  Iter= 10 NonCon=     1 RMS=2.84D-10 Max=1.63D-09 NDo=     1
 LinEq1:  Iter= 11 NonCon=     0 RMS=4.29D-11 Max=2.65D-10 NDo=     1
 Linear equations converged to 1.000D-10 1.000D-09 after    11 iterations.
 End of Minotr F.D. properties file   721 does not exist.
 End of Minotr F.D. properties file   722 does not exist.
 End of Minotr F.D. properties file   788 does not exist.
 Calling FoFJK, ICntrl=  10002127 FMM=F ISym2X=1 I1Cent= 0 IOpClX= 0 NMat=1 NMatS=1 NMatT=0.
 ***** Axes restored to original set *****
 -------------------------------------------------------------------
 Center     Atomic                   Forces (Hartrees/Bohr)
 Number     Number              X              Y              Z
 -------------------------------------------------------------------
      1        9           0.000341667   -0.000714671   -0.000000000
      2        9          -0.000506582   -0.000500433   -0.000000000
      3        1          -0.000525089    0.000818645   -0.000000000
      4        1           0.000690005    0.000396459   -0.000000000
 -------------------------------------------------------------------
 Cartesian Forces:  Max     0.000818645 RMS     0.000475547

 GradGradGradGradGradGradGradGradGradGradGradGradGradGradGradGradGradGrad
 Berny optimization.
 Using GEDIIS/GDIIS optimizer.
 FormGI is forming the generalized inverse of G from B-inverse, IUseBI=4.
 Internal  Forces:  Max     0.000783437 RMS     0.000487290
 Search for a local minimum.
 Step number   3 out of a maximum of   20
 All quantities printed in internal units (Hartrees-Bohrs-Radians)
 Mixed Optimization -- En-DIIS/RFO-DIIS
 Swapping is turned off.
 Update second derivatives using D2CorX and points    1    2    3
 DE=  8.50D-06 DEPred=-4.62D-06 R=-1.84D+00
 Trust test=-1.84D+00 RLast= 5.75D-02 DXMaxT set to 1.50D-01
 The second derivative matrix:
                          R1        R2        R3        A1        A2
           R1           0.47882
           R2          -0.00971   0.05793
           R3          -0.13010  -0.00895   0.52558
           A1           0.00449  -0.00090   0.00495   0.16231
           A2          -0.00564   0.00160  -0.00663  -0.00401   0.00934
           A3          -0.00000   0.00000  -0.00000  -0.00000   0.00000
                          A3
           A3           0.00230
 ITU= -1  1  0
     Eigenvalues ---    0.00230   0.00901   0.05740   0.16219   0.37100
     Eigenvalues ---    0.63439
 En-DIIS/RFO-DIIS/Sim-DIIS IScMMF=       -3 using points:     3    2
 RFO step:  Lambda=-1.95361061D-05.
 DidBck=T Rises=T En-DIIS coefs:    0.38064    0.61936
 Iteration  1 RMS(Cart)=  0.01825944 RMS(Int)=  0.00039791
 Iteration  2 RMS(Cart)=  0.00037818 RMS(Int)=  0.00000001
 Iteration  3 RMS(Cart)=  0.00000001 RMS(Int)=  0.00000000
 ClnCor:  largest displacement from symmetrization is 4.97D-16 for atom     4.
 Variable       Old X    -DE/DX   Delta X   Delta X   Delta X     New X
                                 (Linear)    (Quad)   (Total)
    R1        1.76096  -0.00076  -0.00114  -0.00030  -0.00144   1.75953
    R2        3.45925   0.00009  -0.00027   0.00023  -0.00003   3.45922
    R3        1.75444  -0.00078  -0.00101  -0.00030  -0.00131   1.75313
    A1        1.98271  -0.00025  -0.00026  -0.00013  -0.00039   1.98232
    A2        2.92866   0.00041   0.03557   0.00656   0.04213   2.97079
    A3        3.14159   0.00000   0.00000  -0.00000   0.00000   3.14159
         Item               Value     Threshold  Converged?
 Maximum Force            0.000783     0.000450     NO 
 RMS     Force            0.000487     0.000300     NO 
 Maximum Displacement     0.031796     0.001800     NO 
 RMS     Displacement     0.018181     0.001200     NO 
 Predicted change in Energy=-9.785422D-06
 GradGradGradGradGradGradGradGradGradGradGradGradGradGradGradGradGradGrad

                          Input orientation:                          
 ---------------------------------------------------------------------
 Center     Atomic      Atomic             Coordinates (Angstroms)
 Number     Number       Type             X           Y           Z
 ---------------------------------------------------------------------
      1          9           0        0.039405    1.439683    0.000000
      2          9           0        0.038896   -1.312963    0.000000
      3          1           0        0.144483    0.514530    0.000000
      4          1           0       -0.831357   -1.634395    0.000000
 ---------------------------------------------------------------------
                    Distance matrix (angstroms):
                    1          2          3          4
     1  F    0.000000
     2  F    2.752646   0.000000
     3  H    0.931101   1.830541   0.000000
     4  H    3.195025   0.927717   2.360115   0.000000
 Stoichiometry    F2H2
 Framework group  CS[SG(F2H2)]
 Deg. of freedom     5
 Full point group                 CS      NOp   2
 Largest Abelian subgroup         CS      NOp   2
 Largest concise Abelian subgroup C1      NOp   1
                         Standard orientation:                         
 ---------------------------------------------------------------------
 Center     Atomic      Atomic             Coordinates (Angstroms)
 Number     Number       Type             X           Y           Z
 ---------------------------------------------------------------------
      1          9           0        0.038247    1.438659    0.000000
      2          9           0        0.038247   -1.313987    0.000000
      3          1           0        0.143496    0.513526    0.000000
      4          1           0       -0.831946   -1.635580    0.000000
 ---------------------------------------------------------------------
 Rotational constants (GHZ):         693.5526287           6.7313852           6.6666807
 Standard basis: Aug-CC-pVDZ (5D, 7F)
 There are    50 symmetry adapted cartesian basis functions of A'  symmetry.
 There are    18 symmetry adapted cartesian basis functions of A"  symmetry.
 There are    46 symmetry adapted basis functions of A'  symmetry.
 There are    18 symmetry adapted basis functions of A"  symmetry.
    64 basis functions,   108 primitive gaussians,    68 cartesian basis functions
    10 alpha electrons       10 beta electrons
       nuclear repulsion energy        30.1369634197 Hartrees.
 NAtoms=    4 NActive=    4 NUniq=    4 SFac= 1.00D+00 NAtFMM=   60 NAOKFM=F Big=F
 Integral buffers will be    131072 words long.
 Raffenetti 1 integral format.
 Two-electron integral symmetry is turned on.
 One-electron integrals computed using PRISM.
 NBasis=    64 RedAO= T EigKep=  1.67D-03  NBF=    46    18
 NBsUse=    64 1.00D-06 EigRej= -1.00D+00 NBFU=    46    18
 Initial guess from the checkpoint file:  "/gscratch/scrubbed/gds001/Gau-30622.chk"
 B after Tr=    -0.000000    0.000000    0.000000
         Rot=    1.000000   -0.000000   -0.000000   -0.000437 Ang=  -0.05 deg.
 Initial guess orbital symmetries:
       Occupied  (A') (A') (A') (A') (A') (A') (A") (A') (A') (A")
       Virtual   (A') (A') (A') (A") (A') (A') (A') (A") (A') (A')
                 (A') (A") (A') (A") (A') (A') (A') (A') (A') (A')
                 (A") (A') (A") (A") (A') (A') (A") (A') (A') (A")
                 (A') (A") (A') (A') (A') (A') (A") (A") (A') (A')
                 (A') (A') (A') (A') (A") (A') (A") (A") (A') (A')
                 (A") (A') (A') (A')
 ExpMin= 2.97D-02 ExpMax= 1.47D+04 ExpMxC= 5.03D+02 IAcc=3 IRadAn=         5 AccDes= 0.00D+00
 Harris functional with IExCor=  205 and IRadAn=       5 diagonalized for initial guess.
 HarFok:  IExCor=  205 AccDes= 0.00D+00 IRadAn=         5 IDoV= 1 UseB2=F ITyADJ=14
 ICtDFT=  3500011 ScaDFX=  1.000000  1.000000  1.000000  1.000000
 FoFCou: FMM=F IPFlag=           0 FMFlag=      100000 FMFlg1=           0
         NFxFlg=           0 DoJE=T BraDBF=F KetDBF=T FulRan=T
         wScrn=  0.000000 ICntrl=       500 IOpCl=  0 I1Cent=   200000004 NGrid=           0
         NMat0=    1 NMatS0=      1 NMatT0=    0 NMatD0=    1 NMtDS0=    0 NMtDT0=    0
 Petite list used in FoFCou.
 Keep R1 ints in memory in symmetry-blocked form, NReq=7989816.
 Requested convergence on RMS density matrix=1.00D-08 within 128 cycles.
 Requested convergence on MAX density matrix=1.00D-06.
 Requested convergence on             energy=1.00D-06.
 No special actions if energy rises.
 SCF Done:  E(RHF) =  -200.072088974     A.U. after    9 cycles
            NFock=  9  Conv=0.56D-08     -V/T= 2.0011
 ExpMin= 2.97D-02 ExpMax= 1.47D+04 ExpMxC= 5.03D+02 IAcc=3 IRadAn=         5 AccDes= 0.00D+00
 HarFok:  IExCor=  205 AccDes= 0.00D+00 IRadAn=         5 IDoV=-2 UseB2=F ITyADJ=14
 ICtDFT= 12500011 ScaDFX=  1.000000  1.000000  1.000000  1.000000
 Range of M.O.s used for correlation:     3    64
 NBasis=    64 NAE=    10 NBE=    10 NFC=     2 NFV=     0
 NROrb=     62 NOA=     8 NOB=     8 NVA=    54 NVB=    54

 **** Warning!!: The largest alpha MO coefficient is  0.10024669D+02

 Fully direct method using O(ONN) memory.
 JobTyp=1 Pass  1:  I=   3 to  10 NPSUse= 28 ParTrn=T ParDer=T DoDerP=T.
 Spin components of T(2) and E(2):
     alpha-alpha T2 =       0.1329945617D-01 E2=     -0.5997917072D-01
     alpha-beta  T2 =       0.7031109234D-01 E2=     -0.3270278480D+00
     beta-beta   T2 =       0.1329945617D-01 E2=     -0.5997917072D-01
 ANorm=    0.1047334715D+01
 E2 =    -0.4469861894D+00 EUMP2 =    -0.20051907516296D+03
          IDoAtm=1111
          Differentiating once with respect to electric field.
                with respect to dipole field.
          Differentiating once with respect to nuclear coordinates.
 Keep R1 ints in memory in symmetry-blocked form, NReq=7991618.
          There are     1 degrees of freedom in the 1st order CPHF.  IDoFFX=0 NUNeed=     1.
 LinEq1:  Iter=  0 NonCon=     1 RMS=6.99D-03 Max=5.58D-02 NDo=     1
 AX will form     1 AO Fock derivatives at one time.
 LinEq1:  Iter=  1 NonCon=     1 RMS=1.76D-03 Max=1.10D-02 NDo=     1
 LinEq1:  Iter=  2 NonCon=     1 RMS=3.93D-04 Max=2.55D-03 NDo=     1
 LinEq1:  Iter=  3 NonCon=     1 RMS=4.45D-05 Max=2.66D-04 NDo=     1
 LinEq1:  Iter=  4 NonCon=     1 RMS=5.68D-06 Max=3.48D-05 NDo=     1
 LinEq1:  Iter=  5 NonCon=     1 RMS=1.96D-06 Max=9.80D-06 NDo=     1
 LinEq1:  Iter=  6 NonCon=     1 RMS=4.79D-07 Max=2.69D-06 NDo=     1
 LinEq1:  Iter=  7 NonCon=     1 RMS=7.92D-08 Max=4.00D-07 NDo=     1
 LinEq1:  Iter=  8 NonCon=     1 RMS=1.01D-08 Max=5.41D-08 NDo=     1
 LinEq1:  Iter=  9 NonCon=     1 RMS=1.37D-09 Max=6.52D-09 NDo=     1
 LinEq1:  Iter= 10 NonCon=     1 RMS=2.80D-10 Max=1.59D-09 NDo=     1
 LinEq1:  Iter= 11 NonCon=     0 RMS=4.27D-11 Max=2.64D-10 NDo=     1
 Linear equations converged to 1.000D-10 1.000D-09 after    11 iterations.
 End of Minotr F.D. properties file   721 does not exist.
 End of Minotr F.D. properties file   722 does not exist.
 End of Minotr F.D. properties file   788 does not exist.
 Calling FoFJK, ICntrl=  10002127 FMM=F ISym2X=1 I1Cent= 0 IOpClX= 0 NMat=1 NMatS=1 NMatT=0.
 ***** Axes restored to original set *****
 -------------------------------------------------------------------
 Center     Atomic                   Forces (Hartrees/Bohr)
 Number     Number              X              Y              Z
 -------------------------------------------------------------------
      1        9          -0.000001971    0.000015294   -0.000000000
      2        9           0.000019750   -0.000012804   -0.000000000
      3        1          -0.000000540   -0.000003140   -0.000000000
      4        1          -0.000017239    0.000000650   -0.000000000
 -------------------------------------------------------------------
 Cartesian Forces:  Max     0.000019750 RMS     0.000009572

 GradGradGradGradGradGradGradGradGradGradGradGradGradGradGradGradGradGrad
 Berny optimization.
 Using GEDIIS/GDIIS optimizer.
 FormGI is forming the generalized inverse of G from B-inverse, IUseBI=4.
 Internal  Forces:  Max     0.000015943 RMS     0.000011321
 Search for a local minimum.
 Step number   4 out of a maximum of   20
 All quantities printed in internal units (Hartrees-Bohrs-Radians)
 Mixed Optimization -- En-DIIS/RFO-DIIS
 Swapping is turned off.
 Update second derivatives using D2CorX and points    1    2    3    4
 DE= -9.72D-06 DEPred=-9.79D-06 R= 9.93D-01
 TightC=F SS=  1.41D+00  RLast= 4.22D-02 DXNew= 2.5227D-01 1.2652D-01
 Trust test= 9.93D-01 RLast= 4.22D-02 DXMaxT set to 1.50D-01
 The second derivative matrix:
                          R1        R2        R3        A1        A2
           R1           0.60124
           R2          -0.00322   0.05787
           R3          -0.02313  -0.00308   0.61906
           A1           0.00086  -0.00065   0.00160   0.16195
           A2           0.00147   0.00172  -0.00048  -0.00397   0.00979
           A3           0.00000  -0.00000   0.00000   0.00000   0.00000
                          A3
           A3           0.00230
 ITU=  1 -1  1  0
     Eigenvalues ---    0.00230   0.00962   0.05789   0.16205   0.58541
     Eigenvalues ---    0.63495
 En-DIIS/RFO-DIIS/Sim-DIIS IScMMF=       -3 using points:     4    3    2
 RFO step:  Lambda=-2.81878241D-09.
 DIIS inversion failure, remove point   3.
 RFO-DIIS uses    2 points instead of    3
 DidBck=F Rises=F RFO-DIIS coefs:    0.99730    0.00270    0.00000
 Iteration  1 RMS(Cart)=  0.00009033 RMS(Int)=  0.00000000
 Iteration  2 RMS(Cart)=  0.00000000 RMS(Int)=  0.00000000
 ClnCor:  largest displacement from symmetrization is 1.36D-14 for atom     3.
 Variable       Old X    -DE/DX   Delta X   Delta X   Delta X     New X
                                 (Linear)    (Quad)   (Total)
    R1        1.75953   0.00002   0.00000   0.00002   0.00003   1.75955
    R2        3.45922   0.00001   0.00000   0.00021   0.00021   3.45943
    R3        1.75313   0.00002   0.00000   0.00002   0.00003   1.75316
    A1        1.98232  -0.00001   0.00000  -0.00007  -0.00007   1.98225
    A2        2.97079  -0.00000  -0.00011   0.00000  -0.00011   2.97067
    A3        3.14159   0.00000  -0.00000   0.00000   0.00000   3.14159
         Item               Value     Threshold  Converged?
 Maximum Force            0.000016     0.000450     YES
 RMS     Force            0.000011     0.000300     YES
 Maximum Displacement     0.000142     0.001800     YES
 RMS     Displacement     0.000090     0.001200     YES
 Predicted change in Energy=-2.164065D-09
 Optimization completed.
    -- Stationary point found.
                           ----------------------------
                           !   Optimized Parameters   !
                           ! (Angstroms and Degrees)  !
 --------------------------                            --------------------------
 ! Name  Definition              Value          Derivative Info.                !
 --------------------------------------------------------------------------------
 ! R1    R(1,3)                  0.9311         -DE/DX =    0.0                 !
 ! R2    R(2,3)                  1.8305         -DE/DX =    0.0                 !
 ! R3    R(2,4)                  0.9277         -DE/DX =    0.0                 !
 ! A1    A(3,2,4)              113.5786         -DE/DX =    0.0                 !
 ! A2    L(1,3,2,4,-1)         170.2135         -DE/DX =    0.0                 !
 ! A3    L(1,3,2,4,-2)         180.0            -DE/DX =    0.0                 !
 --------------------------------------------------------------------------------
 GradGradGradGradGradGradGradGradGradGradGradGradGradGradGradGradGradGrad

                          Input orientation:                          
 ---------------------------------------------------------------------
 Center     Atomic      Atomic             Coordinates (Angstroms)
 Number     Number       Type             X           Y           Z
 ---------------------------------------------------------------------
      1          9           0        0.039405    1.439683    0.000000
      2          9           0        0.038896   -1.312963    0.000000
      3          1           0        0.144483    0.514530    0.000000
      4          1           0       -0.831357   -1.634395    0.000000
 ---------------------------------------------------------------------
                    Distance matrix (angstroms):
                    1          2          3          4
     1  F    0.000000
     2  F    2.752646   0.000000
     3  H    0.931101   1.830541   0.000000
     4  H    3.195025   0.927717   2.360115   0.000000
 Stoichiometry    F2H2
 Framework group  CS[SG(F2H2)]
 Deg. of freedom     5
 Full point group                 CS      NOp   2
 Largest Abelian subgroup         CS      NOp   2
 Largest concise Abelian subgroup C1      NOp   1
                         Standard orientation:                         
 ---------------------------------------------------------------------
 Center     Atomic      Atomic             Coordinates (Angstroms)
 Number     Number       Type             X           Y           Z
 ---------------------------------------------------------------------
      1          9           0        0.038247    1.438659    0.000000
      2          9           0        0.038247   -1.313987    0.000000
      3          1           0        0.143496    0.513526    0.000000
      4          1           0       -0.831946   -1.635580    0.000000
 ---------------------------------------------------------------------
 Rotational constants (GHZ):         693.5526287           6.7313852           6.6666807

 **********************************************************************

            Population analysis using the SCF density.

 **********************************************************************

 Orbital symmetries:
       Occupied  (A') (A') (A') (A') (A') (A') (A") (A') (A') (A")
       Virtual   (A') (A') (A') (A") (A') (A') (A') (A") (A') (A')
                 (A') (A") (A') (A") (A') (A') (A') (A') (A') (A')
                 (A") (A') (A") (A") (A') (A') (A") (A') (A') (A")
                 (A') (A") (A') (A') (A') (A') (A") (A") (A') (A')
                 (A') (A') (A') (A') (A") (A") (A') (A") (A') (A')
                 (A') (A") (A') (A')
 The electronic state is 1-A'.
 Alpha  occ. eigenvalues --  -26.35626 -26.28484  -1.65145  -1.57942  -0.81803
 Alpha  occ. eigenvalues --   -0.75446  -0.69565  -0.68739  -0.62606  -0.62591
 Alpha virt. eigenvalues --    0.02406   0.07236   0.17529   0.20549   0.20626
 Alpha virt. eigenvalues --    0.23613   0.27228   0.28835   0.30265   0.30888
 Alpha virt. eigenvalues --    0.37220   0.38276   0.39967   0.47836   0.49222
 Alpha virt. eigenvalues --    0.55638   0.64540   0.87341   0.92422   1.00638
 Alpha virt. eigenvalues --    1.34426   1.36433   1.36727   1.39193   1.39380
 Alpha virt. eigenvalues --    1.42845   1.48855   1.49423   1.60858   1.63925
 Alpha virt. eigenvalues --    1.64189   1.76670   1.78260   1.80487   2.02264
 Alpha virt. eigenvalues --    2.07564   2.11928   2.22938   2.35255   2.50426
 Alpha virt. eigenvalues --    2.64463   2.96439   3.62258   3.66531   4.85047
 Alpha virt. eigenvalues --    4.87667   4.87689   4.88331   4.88805   4.97577
 Alpha virt. eigenvalues --    5.00642   5.00860   5.12109   5.34748
          Condensed to atoms (all electrons):
               1          2          3          4
     1  F    9.167175  -0.034886   0.251327  -0.001203
     2  F   -0.034886   9.095091   0.010915   0.287903
     3  H    0.251327   0.010915   0.364698   0.000246
     4  H   -0.001203   0.287903   0.000246   0.344434
 Mulliken charges:
               1
     1  F   -0.382412
     2  F   -0.359023
     3  H    0.372814
     4  H    0.368620
 Sum of Mulliken charges =   0.00000
 Mulliken charges with hydrogens summed into heavy atoms:
               1
     1  F   -0.009597
     2  F    0.009597
 Electronic spatial extent (au):  <R**2>=            159.6313
 Charge=             -0.0000 electrons
 Dipole moment (field-independent basis, Debye):
    X=             -1.6566    Y=             -3.0669    Z=              0.0000  Tot=              3.4857
 Quadrupole moment (field-independent basis, Debye-Ang):
   XX=             -9.2257   YY=            -12.2720   ZZ=            -11.4365
   XY=              3.3083   XZ=              0.0000   YZ=              0.0000
 Traceless Quadrupole moment (field-independent basis, Debye-Ang):
   XX=              1.7524   YY=             -1.2939   ZZ=             -0.4585
   XY=              3.3083   XZ=              0.0000   YZ=              0.0000
 Octapole moment (field-independent basis, Debye-Ang**2):
  XXX=             -2.0326  YYY=            -10.9824  ZZZ=              0.0000  XYY=             -6.0595
  XXY=             -3.8753  XXZ=              0.0000  XZZ=             -0.1331  YZZ=             -0.4215
  YYZ=              0.0000  XYZ=              0.0000
 Hexadecapole moment (field-independent basis, Debye-Ang**3):
 XXXX=             -7.0163 YYYY=           -126.2356 ZZZZ=             -7.5784 XXXY=              1.1127
 XXXZ=              0.0000 YYYX=              7.6067 YYYZ=              0.0000 ZZZX=              0.0000
 ZZZY=              0.0000 XXYY=            -18.2343 XXZZ=             -2.6944 YYZZ=            -23.6995
 XXYZ=              0.0000 YYXZ=              0.0000 ZZXY=             -0.5504
 N-N= 3.013696341967D+01 E-N=-5.401127052133D+02  KE= 1.998535499232D+02
 Symmetry A'   KE= 1.873799654956D+02
 Symmetry A"   KE= 1.247358442763D+01
 1\1\GINC-N2184\FOpt\RMP2-FC\Aug-CC-pVDZ\F2H2\GDS001\26-Nov-2021\0\\# m
 p2/aug-cc-pVDZ opt freq=(vibrot,anharmonic)\\bleh\\0,1\F,0.039405176,1
 .439683246,0.\F,0.0388959604,-1.3129629489,0.\H,0.1444829554,0.5145303
 862,0.\H,-0.8313570918,-1.6343946833,0.\\Version=ES64L-G16RevA.03\Stat
 e=1-A'\HF=-200.072089\MP2=-200.5190752\RMSD=5.632e-09\RMSF=9.572e-06\D
 ipole=-0.6125738,-1.1534735,0.\PG=CS [SG(F2H2)]\\@


 IF THERE IS ONE WAY BETTER THAN ANOTHER IT IS THE WAY OF NATURE.

                          -- ARISTOTLE
 Job cpu time:       0 days  0 hours  4 minutes 43.6 seconds.
 Elapsed time:       0 days  0 hours  0 minutes 12.4 seconds.
 File lengths (MBytes):  RWF=     72 Int=      0 D2E=      0 Chk=      8 Scr=      8
 Normal termination of Gaussian 16 at Fri Nov 26 10:02:28 2021.
 Link1:  Proceeding to internal job step number  2.
 ----------------------------------------------------------------------
 #N Geom=AllCheck Guess=TCheck SCRF=Check GenChk RMP2(FC)/Aug-CC-pVDZ F
 req
 ----------------------------------------------------------------------
 1/10=4,29=7,30=1,38=21,40=1,80=1/1,6,3;
 2/12=2,40=1/2;
 3/5=16,7=10,11=1,14=-4,25=1,30=1,70=2,71=2,116=1,140=1/1,2,3;
 4/5=101,69=2/1;
 5/5=2,38=6,98=1/2;
 8/6=3,8=1,10=1,19=11,30=-1/1;
 9/15=3,16=-3/6;
 11/6=1,8=1,15=11,17=12,24=-1,27=1,28=-2,29=300,32=6,42=3/1,2,10;
 10/6=2,21=1,60=-2/2;
 8/6=4,8=1,10=1,19=11,30=-1/11,4;
 10/5=1,20=4,60=-2/2;
 11/12=2,14=11,16=1,17=2,28=-2,42=3/2,10,12;
 6/7=2,8=2,9=2,10=2,22=-1/1;
 7/10=1,12=2,25=1,44=2,70=1,71=2/1,2,3,16;
 1/38=20,80=1/6(3);
 7/8=1,25=202,44=-1,70=1,71=1,92=10/16,17;
 1/10=4,30=1,38=20,80=1/3;
 99//99;
 3/5=16,7=10,11=1,14=-2,25=1,30=1,70=5,71=2,116=1,140=1/1,2,3;
 4/5=5,16=3,69=2/1;
 5/5=2,38=5,98=1/2;
 8/6=3,8=1,10=1,19=11,30=-1/1;
 9/15=3,16=-3/6;
 11/6=1,8=1,15=11,17=12,24=-1,27=1,28=-2,29=300,32=6,42=3/1,2,10;
 10/6=2,21=1,60=-2/2;
 8/6=4,8=1,10=1,19=11,30=-1/11,4;
 10/5=1,20=4,60=-2/2;
 11/12=2,14=11,16=1,17=2,28=-2,42=3/2,10,12;
 6/7=2,8=2,9=2,10=2,22=-1/1;
 7/7=1,10=1,12=2,25=1,44=2,70=1,71=1/1,2,3,16;
 1/38=20,80=1/6(-12);
 7/8=1,25=202,44=-1,70=1,71=1,92=10/16,17;
 1/10=4,30=1,38=20,80=1/3;
 99//99;
 Structure from the checkpoint file:  "/gscratch/scrubbed/gds001/Gau-30622.chk"
 ----
 bleh
 ----
 Charge =  0 Multiplicity = 1
 Redundant internal coordinates found in file.  (old form).
 F,0,0.039405176,1.439683246,0.
 F,0,0.0388959604,-1.3129629489,0.
 H,0,0.1444829554,0.5145303862,0.
 H,0,-0.8313570918,-1.6343946833,0.
 Recover connectivity data from disk.
 Numerical evaluation of third derivatives.
 Nuclear step= 0.010000 Angstroms, electric field step= 0.000333 atomic units, NStep=1.

 GradGradGradGradGradGradGradGradGradGradGradGradGradGradGradGradGradGrad
 Berny optimization.
 Initialization pass.
                           ----------------------------
                           !    Initial Parameters    !
                           ! (Angstroms and Degrees)  !
 --------------------------                            --------------------------
 ! Name  Definition              Value          Derivative Info.                !
 --------------------------------------------------------------------------------
 ! R1    R(1,3)                  0.9311         calculate D2E/DX2 analytically  !
 ! R2    R(2,3)                  1.8305         calculate D2E/DX2 analytically  !
 ! R3    R(2,4)                  0.9277         calculate D2E/DX2 analytically  !
 ! A1    A(3,2,4)              113.5786         calculate D2E/DX2 analytically  !
 ! A2    L(1,3,2,4,-1)         170.2135         calculate D2E/DX2 analytically  !
 ! A3    L(1,3,2,4,-2)         180.0            calculate D2E/DX2 analytically  !
 --------------------------------------------------------------------------------
 Trust Radius=3.00D-01 FncErr=1.00D-07 GrdErr=1.00D-07 EigMax=2.50D+02 EigMin=1.00D-04
 Number of steps in this run=      2 maximum allowed number of steps=      2.
 GradGradGradGradGradGradGradGradGradGradGradGradGradGradGradGradGradGrad

                          Input orientation:                          
 ---------------------------------------------------------------------
 Center     Atomic      Atomic             Coordinates (Angstroms)
 Number     Number       Type             X           Y           Z
 ---------------------------------------------------------------------
      1          9           0        0.039405    1.439683    0.000000
      2          9           0        0.038896   -1.312963    0.000000
      3          1           0        0.144483    0.514530    0.000000
      4          1           0       -0.831357   -1.634395    0.000000
 ---------------------------------------------------------------------
                    Distance matrix (angstroms):
                    1          2          3          4
     1  F    0.000000
     2  F    2.752646   0.000000
     3  H    0.931101   1.830541   0.000000
     4  H    3.195025   0.927717   2.360115   0.000000
 Stoichiometry    F2H2
 Framework group  CS[SG(F2H2)]
 Deg. of freedom     5
 Full point group                 CS      NOp   2
 Largest Abelian subgroup         CS      NOp   2
 Largest concise Abelian subgroup C1      NOp   1
                         Standard orientation:                         
 ---------------------------------------------------------------------
 Center     Atomic      Atomic             Coordinates (Angstroms)
 Number     Number       Type             X           Y           Z
 ---------------------------------------------------------------------
      1          9           0        0.038247    1.438659    0.000000
      2          9           0        0.038247   -1.313987    0.000000
      3          1           0        0.143496    0.513526    0.000000
      4          1           0       -0.831946   -1.635580    0.000000
 ---------------------------------------------------------------------
 Rotational constants (GHZ):         693.5526287           6.7313852           6.6666807
 Standard basis: Aug-CC-pVDZ (5D, 7F)
 There are    50 symmetry adapted cartesian basis functions of A'  symmetry.
 There are    18 symmetry adapted cartesian basis functions of A"  symmetry.
 There are    46 symmetry adapted basis functions of A'  symmetry.
 There are    18 symmetry adapted basis functions of A"  symmetry.
    64 basis functions,   108 primitive gaussians,    68 cartesian basis functions
    10 alpha electrons       10 beta electrons
       nuclear repulsion energy        30.1369634197 Hartrees.
 NAtoms=    4 NActive=    4 NUniq=    4 SFac= 1.00D+00 NAtFMM=   60 NAOKFM=F Big=F
 Integral buffers will be    131072 words long.
 Raffenetti 1 integral format.
 Two-electron integral symmetry is turned on.
 One-electron integrals computed using PRISM.
 NBasis=    64 RedAO= T EigKep=  1.67D-03  NBF=    46    18
 NBsUse=    64 1.00D-06 EigRej= -1.00D+00 NBFU=    46    18
 Initial guess from the checkpoint file:  "/gscratch/scrubbed/gds001/Gau-30622.chk"
 B after Tr=     0.000000    0.000000    0.000000
         Rot=    1.000000   -0.000000    0.000000    0.000000 Ang=   0.00 deg.
 Initial guess orbital symmetries:
       Occupied  (A') (A') (A') (A') (A') (A') (A") (A') (A') (A")
       Virtual   (A') (A') (A') (A") (A') (A') (A') (A") (A') (A')
                 (A') (A") (A') (A") (A') (A') (A') (A') (A') (A')
                 (A") (A') (A") (A") (A') (A') (A") (A') (A') (A")
                 (A') (A") (A') (A') (A') (A') (A") (A") (A') (A')
                 (A') (A') (A') (A') (A") (A") (A') (A") (A') (A')
                 (A') (A") (A') (A')
 Keep R1 ints in memory in symmetry-blocked form, NReq=7989816.
 Requested convergence on RMS density matrix=1.00D-08 within 128 cycles.
 Requested convergence on MAX density matrix=1.00D-06.
 Requested convergence on             energy=1.00D-06.
 No special actions if energy rises.
 SCF Done:  E(RHF) =  -200.072088974     A.U. after    1 cycles
            NFock=  1  Conv=0.16D-08     -V/T= 2.0011
 ExpMin= 2.97D-02 ExpMax= 1.47D+04 ExpMxC= 5.03D+02 IAcc=3 IRadAn=         5 AccDes= 0.00D+00
 HarFok:  IExCor=  205 AccDes= 0.00D+00 IRadAn=         5 IDoV=-2 UseB2=F ITyADJ=14
 ICtDFT= 12500011 ScaDFX=  1.000000  1.000000  1.000000  1.000000
 Range of M.O.s used for correlation:     3    64
 NBasis=    64 NAE=    10 NBE=    10 NFC=     2 NFV=     0
 NROrb=     62 NOA=     8 NOB=     8 NVA=    54 NVB=    54

 **** Warning!!: The largest alpha MO coefficient is  0.10024669D+02

 Disk-based method using ON**2 memory for  8 occupieds at a time.
 Permanent disk used for amplitudes=      355995 words.
 Estimated scratch disk usage=     4590592 words.
 Actual    scratch disk usage=     4590592 words.
 JobTyp=1 Pass  1:  I=   3 to  10 NPSUse= 28 ParTrn=T ParDer=T DoDerP=T.
 (rs|ai) integrals will be sorted in core.
 Spin components of T(2) and E(2):
     alpha-alpha T2 =       0.1329945618D-01 E2=     -0.5997917072D-01
     alpha-beta  T2 =       0.7031109244D-01 E2=     -0.3270278481D+00
     beta-beta   T2 =       0.1329945618D-01 E2=     -0.5997917072D-01
 ANorm=    0.1047334715D+01
 E2 =    -0.4469861896D+00 EUMP2 =    -0.20051907516309D+03
 G2DrvN: will do     5 centers at a time, making    1 passes.
 Calling FoFCou, ICntrl=  3107 FMM=F I1Cent=   0 AccDes= 0.00D+00.
 End of G2Drv F.D. properties file   721 does not exist.
 End of G2Drv F.D. properties file   722 does not exist.
 End of G2Drv F.D. properties file   788 does not exist.
          IDoAtm=1111
          Differentiating once with respect to electric field.
                with respect to dipole field.
          Differentiating once with respect to nuclear coordinates.
 Keep R1 ints in memory in symmetry-blocked form, NReq=7990518.
          There are    15 degrees of freedom in the 1st order CPHF.  IDoFFX=6 NUNeed=    15.
     12 vectors produced by pass  0 Test12= 3.60D-15 6.67D-09 XBig12= 1.72D+00 4.32D-01.
 AX will form    12 AO Fock derivatives at one time.
     12 vectors produced by pass  1 Test12= 3.60D-15 6.67D-09 XBig12= 7.29D-02 7.16D-02.
     12 vectors produced by pass  2 Test12= 3.60D-15 6.67D-09 XBig12= 2.23D-03 1.22D-02.
     12 vectors produced by pass  3 Test12= 3.60D-15 6.67D-09 XBig12= 2.03D-05 1.24D-03.
     12 vectors produced by pass  4 Test12= 3.60D-15 6.67D-09 XBig12= 2.09D-07 1.34D-04.
     12 vectors produced by pass  5 Test12= 3.60D-15 6.67D-09 XBig12= 8.98D-10 7.16D-06.
      9 vectors produced by pass  6 Test12= 3.60D-15 6.67D-09 XBig12= 6.56D-12 8.27D-07.
      3 vectors produced by pass  7 Test12= 3.60D-15 6.67D-09 XBig12= 4.11D-14 4.62D-08.
 InvSVY:  IOpt=1 It=  1 EMax= 8.88D-16
 Solved reduced A of dimension    84 with    12 vectors.
 End of Minotr F.D. properties file   721 does not exist.
 End of Minotr F.D. properties file   722 does not exist.
 End of Minotr F.D. properties file   788 does not exist.
 MDV=  5502926848.
 Form MO integral derivatives with frozen-active canonical formalism.
 Discarding MO integrals.
 Reordered first order wavefunction length =       583200
 In DefCFB: NBatch=  1 ICI= 10 ICA= 54 LFMax= 54
            Large arrays: LIAPS=     9400320 LIARS=     6426000 words.
 Semi-Direct transformation.
 ModeAB=           2 MOrb=            10 LenV=    5502677708
 LASXX=      1154070 LTotXX=     1154070 LenRXX=     1154070
 LTotAB=     1207900 MaxLAS=     1501440 LenRXY=     1501440
 NonZer=     2308140 LenScr=     3670016 LnRSAI=           0
 LnScr1=           0 LExtra=           0 Total=      6325526
 MaxDsk=          -1 SrtSym=           F ITran=            4
 JobTyp=0 Pass  1:  I=   1 to  10.
 (rs|ai) integrals will be sorted in core.
 Spin components of T(2) and E(2):
     alpha-alpha T2 =       0.1329945618D-01 E2=     -0.5997917072D-01
     alpha-beta  T2 =       0.7031109244D-01 E2=     -0.3270278481D+00
     beta-beta   T2 =       0.1329945618D-01 E2=     -0.5997917072D-01
 ANorm=    0.1481154958D+01
 E2 =    -0.4469861896D+00 EUMP2 =    -0.20051907516309D+03
          IDoAtm=1111
          Differentiating once with respect to electric field.
                with respect to dipole field.
          Differentiating once with respect to nuclear coordinates.
          There are     1 degrees of freedom in the 1st order CPHF.  IDoFFX=0 NUNeed=     1.
 LinEq1:  Iter=  0 NonCon=     1 RMS=6.99D-03 Max=5.58D-02 NDo=     1
 LinEq1:  Iter=  1 NonCon=     1 RMS=1.76D-03 Max=1.10D-02 NDo=     1
 LinEq1:  Iter=  2 NonCon=     1 RMS=3.93D-04 Max=2.55D-03 NDo=     1
 LinEq1:  Iter=  3 NonCon=     1 RMS=4.45D-05 Max=2.66D-04 NDo=     1
 LinEq1:  Iter=  4 NonCon=     1 RMS=5.68D-06 Max=3.48D-05 NDo=     1
 LinEq1:  Iter=  5 NonCon=     1 RMS=1.96D-06 Max=9.80D-06 NDo=     1
 LinEq1:  Iter=  6 NonCon=     1 RMS=4.79D-07 Max=2.69D-06 NDo=     1
 LinEq1:  Iter=  7 NonCon=     1 RMS=7.92D-08 Max=4.00D-07 NDo=     1
 LinEq1:  Iter=  8 NonCon=     1 RMS=1.01D-08 Max=5.41D-08 NDo=     1
 LinEq1:  Iter=  9 NonCon=     1 RMS=1.37D-09 Max=6.52D-09 NDo=     1
 LinEq1:  Iter= 10 NonCon=     1 RMS=2.80D-10 Max=1.59D-09 NDo=     1
 LinEq1:  Iter= 11 NonCon=     0 RMS=4.27D-11 Max=2.64D-10 NDo=     1
 Linear equations converged to 1.000D-10 1.000D-09 after    11 iterations.
 End of Minotr F.D. properties file   721 does not exist.
 End of Minotr F.D. properties file   722 does not exist.
 End of Minotr F.D. properties file   788 does not exist.
 Symmetrizing basis deriv contribution to polar:
 IMax=3 JMax=2 DiffMx= 0.00D+00
 G2DrvN: will do     5 centers at a time, making    1 passes.
 Calling FoFCou, ICntrl=  3107 FMM=F I1Cent=   0 AccDes= 0.00D+00.
 End of G2Drv F.D. properties file   721 does not exist.
 End of G2Drv F.D. properties file   722 does not exist.
 End of G2Drv F.D. properties file   788 does not exist.
 R2 and R3 integrals will be kept in memory, NReq=     6326062.
 DD1Dir will call FoFMem   1 times, MxPair=       110
 NAB=    55 NAA=     0 NBB=     0.
 Discarding MO integrals.

 **********************************************************************

            Population analysis using the MP2 density.

 **********************************************************************

 Orbital symmetries:
       Occupied  (A') (A') (A') (A') (A') (A') (A") (A') (A') (A")
       Virtual   (A') (A') (A') (A") (A') (A') (A') (A") (A') (A')
                 (A') (A") (A') (A") (A') (A') (A') (A') (A') (A')
                 (A") (A') (A") (A") (A') (A') (A") (A') (A') (A")
                 (A') (A") (A') (A') (A') (A') (A") (A") (A') (A')
                 (A') (A') (A') (A') (A") (A") (A') (A") (A') (A')
                 (A') (A") (A') (A')
 The electronic state is 1-A'.
 Alpha  occ. eigenvalues --  -26.35626 -26.28484  -1.65145  -1.57942  -0.81803
 Alpha  occ. eigenvalues --   -0.75446  -0.69565  -0.68739  -0.62606  -0.62591
 Alpha virt. eigenvalues --    0.02406   0.07236   0.17529   0.20549   0.20626
 Alpha virt. eigenvalues --    0.23613   0.27228   0.28835   0.30265   0.30888
 Alpha virt. eigenvalues --    0.37220   0.38276   0.39967   0.47836   0.49222
 Alpha virt. eigenvalues --    0.55638   0.64540   0.87341   0.92422   1.00638
 Alpha virt. eigenvalues --    1.34426   1.36433   1.36727   1.39193   1.39380
 Alpha virt. eigenvalues --    1.42845   1.48855   1.49423   1.60858   1.63925
 Alpha virt. eigenvalues --    1.64189   1.76670   1.78260   1.80487   2.02264
 Alpha virt. eigenvalues --    2.07564   2.11928   2.22938   2.35255   2.50426
 Alpha virt. eigenvalues --    2.64463   2.96439   3.62258   3.66531   4.85047
 Alpha virt. eigenvalues --    4.87667   4.87689   4.88331   4.88805   4.97577
 Alpha virt. eigenvalues --    5.00642   5.00860   5.12109   5.34748
          Condensed to atoms (all electrons):
               1          2          3          4
     1  F    9.090464  -0.033070   0.259633  -0.001645
     2  F   -0.033070   9.028356   0.013204   0.281828
     3  H    0.259633   0.013204   0.434130   0.001223
     4  H   -0.001645   0.281828   0.001223   0.404705
 Mulliken charges:
               1
     1  F   -0.315381
     2  F   -0.290319
     3  H    0.291810
     4  H    0.313889
 Sum of Mulliken charges =   0.00000
 Mulliken charges with hydrogens summed into heavy atoms:
               1
     1  F   -0.023571
     2  F    0.023571
 APT charges:
               1
     1  F   -0.449769
     2  F   -0.421453
     3  H    0.462427
     4  H    0.408795
 Sum of APT charges =   0.00000
 APT charges with hydrogens summed into heavy atoms:
               1
     1  F    0.012658
     2  F   -0.012658
 Electronic spatial extent (au):  <R**2>=            160.4572
 Charge=              0.0000 electrons
 Dipole moment (field-independent basis, Debye):
    X=             -1.5565    Y=             -2.9321    Z=              0.0000  Tot=              3.3196
 Quadrupole moment (field-independent basis, Debye-Ang):
   XX=             -9.7015   YY=            -12.4570   ZZ=            -11.8866
   XY=              3.1278   XZ=              0.0000   YZ=              0.0000
 Traceless Quadrupole moment (field-independent basis, Debye-Ang):
   XX=              1.6469   YY=             -1.1086   ZZ=             -0.5382
   XY=              3.1278   XZ=              0.0000   YZ=              0.0000
 Octapole moment (field-independent basis, Debye-Ang**2):
  XXX=             -1.8849  YYY=            -10.0962  ZZZ=              0.0000  XYY=             -5.8130
  XXY=             -3.8207  XXZ=              0.0000  XZZ=             -0.1060  YZZ=             -0.4182
  YYZ=              0.0000  XYZ=              0.0000
 Hexadecapole moment (field-independent basis, Debye-Ang**3):
 XXXX=             -8.1825 YYYY=           -130.4785 ZZZZ=             -8.6978 XXXY=              0.7700
 XXXZ=              0.0000 YYYX=              6.9917 YYYZ=              0.0000 ZZZX=              0.0000
 ZZZY=              0.0000 XXYY=            -19.4364 XXZZ=             -3.0657 YYZZ=            -24.7969
 XXYZ=              0.0000 YYXZ=              0.0000 ZZXY=             -0.6275
 N-N= 3.013696341967D+01 E-N=-5.392574387454D+02  KE= 1.998814659402D+02
 Symmetry A'   KE= 1.875061856252D+02
 Symmetry A"   KE= 1.237528031497D+01
  Exact polarizability:   9.978   0.494  12.420   0.000   0.000   8.644
 Approx polarizability:   7.820   0.336   8.553  -0.000  -0.000   6.459
 Calling FoFJK, ICntrl=  10100127 FMM=F ISym2X=1 I1Cent= 0 IOpClX= 0 NMat=1 NMatS=1 NMatT=0.
 Full mass-weighted force constant matrix:
 Low frequencies ---  -16.9544   -3.0715   -2.5890   -0.0008    0.0003    0.0010
 Low frequencies ---  157.6351  213.5710  470.5709
 Diagonal vibrational polarizability:
       13.9776686     100.8840134      21.3380003
 Harmonic frequencies (cm**-1), IR intensities (KM/Mole), Raman scattering
 activities (A**4/AMU), depolarization ratios for plane and unpolarized
 incident light, reduced masses (AMU), force constants (mDyne/A),
 and normal coordinates:
                      1                      2                      3
                     A'                     A'                     A"
 Frequencies --    157.6351               213.5710               470.5709
 Red. masses --      3.1886                 1.3794                 1.0399
 Frc consts  --      0.0467                 0.0371                 0.1357
 IR Inten    --     13.3834               147.2834               175.5782
  Atom  AN      X      Y      Z        X      Y      Z        X      Y      Z
     1   9     0.03   0.26  -0.00    -0.03   0.07   0.00    -0.00  -0.00  -0.03
     2   9    -0.02  -0.23  -0.00     0.02  -0.12   0.00     0.00   0.00  -0.02
     3   1    -0.27   0.23   0.00     0.49   0.13  -0.00    -0.00  -0.00   0.99
     4   1     0.21  -0.84   0.00    -0.31   0.79  -0.00    -0.00   0.00   0.12
                      4                      5                      6
                     A'                     A'                     A'
 Frequencies --    575.4006              3939.6611              4038.9633
 Red. masses --      1.0509                 1.0584                 1.0580
 Frc consts  --      0.2050                 9.6791                10.1691
 IR Inten    --    153.0818               463.5002               136.1794
  Atom  AN      X      Y      Z        X      Y      Z        X      Y      Z
     1   9    -0.02  -0.01  -0.00     0.01  -0.05  -0.00    -0.00   0.01  -0.00
     2   9    -0.03   0.03  -0.00    -0.01  -0.00  -0.00    -0.05  -0.02  -0.00
     3   1     0.89   0.10   0.00    -0.12   0.98  -0.00     0.01  -0.15  -0.00
     4   1     0.14  -0.42   0.00     0.14   0.05  -0.00     0.93   0.35  -0.00

 -------------------
 - Thermochemistry -
 -------------------
 Temperature   298.150 Kelvin.  Pressure   1.00000 Atm.
 Atom     1 has atomic number  9 and mass  18.99840
 Atom     2 has atomic number  9 and mass  18.99840
 Atom     3 has atomic number  1 and mass   1.00783
 Atom     4 has atomic number  1 and mass   1.00783
 Molecular mass:    40.01246 amu.
 Principal axes and moments of inertia in atomic units:
                           1         2         3
     Eigenvalues --     2.60217 268.10844 270.71061
           X            0.02035   0.99979   0.00000
           Y            0.99979  -0.02035   0.00000
           Z            0.00000  -0.00000   1.00000
 This molecule is an asymmetric top.
 Rotational symmetry number  1.
 Rotational temperatures (Kelvin)     33.28528     0.32306     0.31995
 Rotational constants (GHZ):         693.55263     6.73139     6.66668
 Zero-point vibrational energy      56199.4 (Joules/Mol)
                                   13.43197 (Kcal/Mol)
 Warning -- explicit consideration of   4 degrees of freedom as
           vibrations may cause significant error
 Vibrational temperatures:    226.80   307.28   677.05   827.87  5668.29
          (Kelvin)           5811.17
 
 Zero-point correction=                           0.021405 (Hartree/Particle)
 Thermal correction to Energy=                    0.025829
 Thermal correction to Enthalpy=                  0.026773
[...]
      1(2)                  8077.927   7517.840                      2.87951774
      2(2)                  7879.322   7357.942                      0.93665004
      3(2)                  1150.801    761.952                     15.66937875
      4(2)                   427.142    310.396                     14.58210798
      5(2)                   315.270    237.078                      0.86490444
      6(2)                   941.142    759.849                     23.70165557

 Combination Bands
 -----------------
   Mode(n)     Mode(n)      E(harm)   E(anharm)                      I(anharm)
      2(1)        1(1)      7978.624   7612.232                      0.16647016
      3(1)        1(1)      4614.364   4306.844                      0.95768211
      3(1)        2(1)      4515.062   4286.938                      0.82058118
      4(1)        1(1)      4252.534   4020.019                      6.18436638
      4(1)        2(1)      4153.232   3971.994                      5.07829174
      4(1)        3(1)       788.972    582.443                      1.78567163
      5(1)        1(1)      4196.598   3978.069                      2.68435800
      5(1)        2(1)      4097.296   3919.795                      1.23694870
      5(1)        3(1)       733.036    545.291                      7.66887242
      5(1)        4(1)       371.206    275.571                     11.07714930
      6(1)        1(1)      4509.534   4267.650                      0.09515553
      6(1)        2(1)      4410.232   4232.193                      2.49832586
      6(1)        3(1)      1045.971    834.103                      0.13433561
      6(1)        4(1)       684.142    554.527                      0.09270818
      6(1)        5(1)       628.206    516.679                      2.56311422

 Units: Transition energies (E) in cm^-1
        Dipole strengths (DS) in 10^-40 esu^2.cm^2

 Fundamental Bands
 -----------------
   Mode(n)                  E(harm)   E(anharm)       DS(harm)      DS(anharm)
      1(1)                  4038.963   3851.777    134.50824612    120.14841158
      2(1)                  3939.661   3783.771    469.35176987    370.84203854
      3(1)                   575.401    444.967   1061.35495397   1271.93161949
      4(1)                   213.571    167.184   2751.17905021   3147.35012739
      5(1)                   157.635    124.418    338.70364355    687.37955753
      6(1)                   470.571    408.534   1488.51430421   1769.54529766

 Overtones
 ---------
   Mode(n)                  E(harm)   E(anharm)                     DS(anharm)
      1(2)                  8077.927   7517.840                      1.52803776
      2(2)                  7879.322   7357.942                      0.50784175
      3(2)                  1150.801    761.952                     82.04111415
      4(2)                   427.142    310.396                    187.41807141
      5(2)                   315.270    237.078                     14.55407887
      6(2)                   941.142    759.849                    124.43968194

 Combination Bands
 -----------------
   Mode(n)     Mode(n)      E(harm)   E(anharm)                     DS(anharm)
      2(1)        1(1)      7978.624   7612.232                      0.08724324
      3(1)        1(1)      4614.364   4306.844                      0.88709407
      3(1)        2(1)      4515.062   4286.938                      0.76362788
      4(1)        1(1)      4252.534   4020.019                      6.13725933
      4(1)        2(1)      4153.232   3971.994                      5.10054311
      4(1)        3(1)       788.972    582.443                     12.23081105
      5(1)        1(1)      4196.598   3978.069                      2.69200261
      5(1)        2(1)      4097.296   3919.795                      1.25891313
      5(1)        3(1)       733.036    545.291                     56.10615019
      5(1)        4(1)       371.206    275.571                    160.36192070
      6(1)        1(1)      4509.534   4267.650                      0.08895137
      6(1)        2(1)      4410.232   4232.193                      2.35500065
      6(1)        3(1)      1045.971    834.103                      0.64250870
      6(1)        4(1)       684.142    554.527                      0.66696487
      6(1)        5(1)       628.206    516.679                     19.79039860


 GradGradGradGradGradGradGradGradGradGradGradGradGradGradGradGradGradGrad
 Berny optimization.
 Internal  Forces:  Max     0.000015946 RMS     0.000011318
 Search for a local minimum.
 Step number   1 out of a maximum of    2
 All quantities printed in internal units (Hartrees-Bohrs-Radians)
 Second derivative matrix not updated -- analytic derivatives used.
 The second derivative matrix:
                          R1        R2        R3        A1        A2
           R1           0.57401
           R2           0.01122   0.01067
           R3          -0.00260   0.00183   0.59040
           A1           0.00166  -0.00107   0.00398   0.01088
           A2           0.00108   0.00203  -0.00066  -0.00524   0.00965
           A3          -0.00000  -0.00000  -0.00000   0.00000  -0.00000
                          A3
           A3           0.00278
 ITU=  0
     Eigenvalues ---    0.00278   0.00486   0.00975   0.01632   0.57384
     Eigenvalues ---    0.59082
 Angle between quadratic step and forces=  57.81 degrees.
 Linear search not attempted -- first point.
 Iteration  1 RMS(Cart)=  0.00094701 RMS(Int)=  0.00000093
 Iteration  2 RMS(Cart)=  0.00000078 RMS(Int)=  0.00000000
 ClnCor:  largest displacement from symmetrization is 1.90D-15 for atom     4.
 Variable       Old X    -DE/DX   Delta X   Delta X   Delta X     New X
                                 (Linear)    (Quad)   (Total)
    R1        1.75953   0.00002   0.00000   0.00001   0.00001   1.75954
    R2        3.45922   0.00001   0.00000   0.00117   0.00117   3.46039
    R3        1.75313   0.00002   0.00000   0.00003   0.00003   1.75316
    A1        1.98232  -0.00001   0.00000  -0.00148  -0.00148   1.98084
    A2        2.97079  -0.00000   0.00000  -0.00109  -0.00109   2.96969
    A3        3.14159  -0.00000   0.00000   0.00000   0.00000   3.14159
         Item               Value     Threshold  Converged?
 Maximum Force            0.000016     0.000450     YES
 RMS     Force            0.000011     0.000300     YES
 Maximum Displacement     0.001355     0.001800     YES
 RMS     Displacement     0.000947     0.001200     YES
 Predicted change in Energy=-1.611785D-08
 Optimization completed.
    -- Stationary point found.
                           ----------------------------
                           !   Optimized Parameters   !
                           ! (Angstroms and Degrees)  !
 --------------------------                            --------------------------
 ! Name  Definition              Value          Derivative Info.                !
 --------------------------------------------------------------------------------
 ! R1    R(1,3)                  0.9311         -DE/DX =    0.0                 !
 ! R2    R(2,3)                  1.8305         -DE/DX =    0.0                 !
 ! R3    R(2,4)                  0.9277         -DE/DX =    0.0                 !
 ! A1    A(3,2,4)              113.5786         -DE/DX =    0.0                 !
 ! A2    L(1,3,2,4,-1)         170.2135         -DE/DX =    0.0                 !
 ! A3    L(1,3,2,4,-2)         180.0            -DE/DX =    0.0                 !
 --------------------------------------------------------------------------------
 GradGradGradGradGradGradGradGradGradGradGradGradGradGradGradGradGradGrad


 ----------------------------------------------------------------------

 Electric dipole moment (input orientation):
 (Debye = 10**-18 statcoulomb cm , SI units = C m)
                  (au)            (Debye)         (10**-30 SI)
   Tot        0.130604D+01      0.331963D+01      0.110731D+02
   x         -0.612574D+00     -0.155701D+01     -0.519362D+01
   y         -0.115347D+01     -0.293184D+01     -0.977956D+01
   z          0.000000D+00      0.000000D+00      0.000000D+00

 Dipole polarizability, Alpha (input orientation).
 (esu units = cm**3 , SI units = C**2 m**2 J**-1)
 Alpha(0;0):
               (au)            (10**-24 esu)      (10**-40 SI)
   iso        0.103475D+02      0.153334D+01      0.170607D+01
   aniso      0.342473D+01      0.507492D+00      0.564662D+00
   xx         0.997829D+01      0.147863D+01      0.164520D+01
   yx         0.494133D+00      0.732229D-01      0.814715D-01
   yy         0.124197D+02      0.184041D+01      0.204773D+01
   zx         0.000000D+00      0.000000D+00      0.000000D+00
   zy         0.000000D+00      0.000000D+00      0.000000D+00
   zz         0.864442D+01      0.128097D+01      0.142527D+01

 ----------------------------------------------------------------------

 Dipole orientation:
     9         -1.06889871          0.56765878         -2.43771753
     9          1.08511858         -0.57627264          2.15682354
     1         -0.18980496          0.10079949         -0.98679775
     1          0.05397658         -0.02866528          3.46462340

 Electric dipole moment (dipole orientation):
 (Debye = 10**-18 statcoulomb cm , SI units = C m)
                  (au)            (Debye)         (10**-30 SI)
   Tot        0.130604D+01      0.331963D+01      0.110731D+02
   x          0.000000D+00      0.000000D+00      0.000000D+00
   y          0.000000D+00      0.000000D+00      0.000000D+00
   z          0.130604D+01      0.331963D+01      0.110731D+02

 Dipole polarizability, Alpha (dipole orientation).
 (esu units = cm**3 , SI units = C**2 m**2 J**-1)
 Alpha(0;0):
               (au)            (10**-24 esu)      (10**-40 SI)
   iso        0.103475D+02      0.153334D+01      0.170607D+01
   aniso      0.342473D+01      0.507492D+00      0.564662D+00
   xx         0.978446D+01      0.144991D+01      0.161324D+01
   yx        -0.605444D+00     -0.897176D-01     -0.998243D-01
   yy         0.896595D+01      0.132862D+01      0.147829D+01
   zx         0.648790D+00      0.961408D-01      0.106971D+00
   zy        -0.344552D+00     -0.510574D-01     -0.568090D-01
   zz         0.122920D+02      0.182149D+01      0.202668D+01

 ----------------------------------------------------------------------
 1\1\GINC-N2184\Freq\RMP2-FC\Aug-CC-pVDZ\F2H2\GDS001\26-Nov-2021\0\\#N 
 Geom=AllCheck Guess=TCheck SCRF=Check GenChk RMP2(FC)/Aug-CC-pVDZ Freq
 \\bleh\\0,1\F,0.039405176,1.439683246,0.\F,0.0388959604,-1.3129629489,
 0.\H,0.1444829554,0.5145303862,0.\H,-0.8313570918,-1.6343946833,0.\\Ve
 rsion=ES64L-G16RevA.03\State=1-A'\HF=-200.072089\MP2=-200.5190752\RMSD
 =1.550e-09\RMSF=9.570e-06\ZeroPoint=0.0214052\Thermal=0.0258285\Dipole
 =-0.6125738,-1.1534735,0.\DipoleDeriv=-0.4137442,0.0004052,0.,-0.01598
 43,-0.5217009,0.,0.,0.,-0.4138625,-0.3308991,-0.0412635,0.,-0.0252601,
 -0.5685001,0.,0.,0.,-0.3649594,0.3574558,0.0178152,0.,0.0370916,0.6672
 426,0.,0.,0.,0.3625828,0.3871875,0.023043,0.,0.0041529,0.4229583,0.,0.
 ,0.,0.4162391\Polar=9.9782895,0.4941327,12.4197045,0.,0.,8.6444156\Qua
 drupole=1.2252586,-0.8250901,-0.4001685,2.3250267,0.,0.\PG=CS [SG(F2H2
 )]\NImag=0\\0.01024043,-0.06341817,0.56687315,0.,0.,0.00339658,0.00299
 992,-0.00325985,0.,0.52008854,-0.00173160,-0.01147371,0.,0.18717958,0.
 08641725,0.,0.,0.00246944,0.,0.,0.00177197,-0.01269181,0.06395828,0.,-
 0.00506400,0.00511367,0.,0.01765457,0.06344028,-0.55560782,0.,0.005585
 93,0.00062184,0.,-0.06440533,0.55508592,0.,0.,-0.00523202,0.,0.,-0.003
 79448,0.,0.,0.00805284,-0.00054854,0.00271975,0.,-0.51802446,-0.190561
 65,0.,0.00010125,-0.00462088,0.,0.51847175,0.00170950,0.00020838,0.,-0
 .18950567,-0.07556538,0.,-0.00466662,-0.00009994,0.,0.19246278,0.07545
 695,0.,0.,-0.00063401,0.,0.,-0.00044693,0.,0.,0.00097365,0.,0.,0.00010
 729\\0.00000197,-0.00001529,0.,-0.00001975,0.00001280,0.,0.00000054,0.
 00000313,0.,0.00001724,-0.00000064,0.\\0.01147183,-0.05107135,-0.01387
 859,0.,0.,-0.00015714,0.00130608,-0.00108341,0.,0.07647737,-0.00057271
 ,-0.00695863,0.,-0.09565116,-0.07015387,0.,0.,0.00116340,0.,0.,0.00068
 360,-0.01266014,0.05128739,0.,-0.00130031,0.00182791,0.,0.01454868,0.0
 5079500,0.02088610,0.,0.00127829,-0.00192776,0.,-0.05074536,-0.0189749
 6,0.,0.,-0.00063985,0.,0.,-0.00123934,0.,0.,0.00114432,-0.00011777,0.0
 0086737,0.,-0.07648314,0.09439596,0.,-0.00058823,-0.00132793,0.,0.0771
 8913,0.00084906,-0.00004888,0.,0.09545628,0.07904026,0.,-0.00236994,0.
 00001662,0.,-0.09393540,-0.07900800,0.,0.,-0.00036642,0.,0.,-0.0006076
 6,0.,0.,0.00073487,0.,0.,0.00023921,0.03273596,-0.14105913,-0.03330695
 ,0.,0.,0.00049290,-0.00016482,0.00129630,0.,0.17634214,-0.00018018,0.0
 0256694,0.,-0.20934443,-0.18493208,0.,0.,0.00021186,0.,0.,0.00257311,-
 0.03258996,0.14043782,0.,0.00067727,0.00068605,0.,0.03326337,0.1403755
 2,0.03013155,0.,-0.00158876,0.00343191,0.,-0.13939898,-0.03313337,0.,0
 .,0.00000454,0.,0.,-0.00132167,0.,0.,-0.00015804,0.00001882,-0.0006749
 9,0.,-0.17685459,0.20883856,0.,-0.00135067,0.00061223,0.,0.17818645,0.
 00086379,0.00060847,0.,0.20963689,0.17893324,0.,-0.00172488,-0.0004300
 8,0.,-0.20877580,-0.17911162,0.,0.,-0.00070930,0.,0.,-0.00146330,0.,0.
 ,0.00147517,0.,0.,0.00069744,0.,0.,0.,0.03660070,-0.32012179,0.,0.,0.,
 0.00082856,0.,0.,0.,-0.00090644,0.,0.,-0.00017413,-0.00123473,0.,-0.04
 693884,-0.01465082,0.,0.,0.,-0.03667691,0.,0.,0.00206155,0.,0.,0.,0.32
 126436,0.,0.,0.00269735,0.,0.,-0.03656259,0.32183639,0.,0.00059012,0.0
 0197846,0.,0.03604784,-0.32454830,0.,0.,0.,-0.00075234,0.,0.,0.0450514
 1,0.,0.,-0.00007537,0.,0.,0.,-0.00023613,0.,0.,0.01318820,0.,0.,0.0007
 3345,0.,0.,0.00013602,-0.00047988,0.,0.04552016,0.01357879,0.,-0.00143
 248,0.00058660,0.,-0.04422370,-0.01368551,0.,0.06381514,-0.28124349,-0
 .04989294,0.,0.,-0.00135997,0.00026225,-0.00186838,0.,-0.09881818,-0.0
 0121969,0.00349136,0.,0.12118016,0.10534236,0.,0.,-0.00069131,0.,0.,-0
 .00547308,-0.06353231,0.28355207,0.,0.00468755,0.00184282,0.,0.0595631
 8,0.28325597,0.04739505,0.,0.00582002,-0.00885547,0.,-0.29035291,-0.04
 406725,0.,0.,0.00150084,0.,0.,0.00342484,0.,0.,-0.00244009,-0.00054507
 ,-0.00044020,0.,0.09386838,-0.12180329,0.,-0.00071842,0.00127692,0.,-0
 .09260489,-0.00079278,-0.00099348,0.,-0.12513180,-0.09997826,0.,0.0049
 5802,0.00552766,0.,0.12096656,0.09544407,0.,0.,0.00055044,0.,0.,0.0027
 3956,0.,0.,-0.00248558,0.,0.,-0.00080441,-0.29065586,-0.29400048,2.273
 71552,0.,0.,-0.32397295,-0.00232700,0.00617694,0.,0.30278543,-0.000804
 66,0.02141714,0.,0.14022739,-0.01594160,0.,0.,-0.00137927,0.,0.,-0.048
 48717,0.29263068,0.29132682,0.,0.00561078,-0.00527498,0.,-0.29871413,0
 .29535918,-2.29619395,0.,-0.01317090,-0.01164404,0.,-0.29017916,2.3106
 9271,0.,0.,0.32544579,0.,0.,0.00272713,0.,0.,-0.32875307,0.00035217,-0
 .00350328,0.,-0.30606921,-0.13414776,0.,0.00047267,0.00799087,0.,0.305
 24436,-0.00055405,0.00106130,0.,-0.13323344,0.00616850,0.,0.00412732,-
 0.00285472,0.,0.12966017,-0.00437508,0.,0.,-0.00009357,0.,0.,0.0471393
 1,0.,0.,0.00058015,0.,0.,-0.04762589,0.04386639,0.04441071,-0.33631120
 ,0.,0.,0.04900538,0.00013198,-0.00047432,0.,2.05237958,-0.00057061,-0.
 00023240,0.,0.88320470,-0.00831271,0.,0.,0.00038515,0.,0.,-0.33905421,
 -0.04362858,-0.04443208,0.,-0.00030922,0.00172491,0.,0.04347172,-0.044
 53110,0.33629667,0.,-0.00045095,-0.00062596,0.,0.04573274,-0.33461711,
 0.,0.,-0.04890913,0.,0.,-0.00106437,0.,0.,0.04858591,-0.00036979,0.000
 49569,0.,-2.05220235,-0.88435900,0.,0.00046608,-0.00075068,0.,2.052106
 05,0.00069100,0.00024694,0.,-0.88227943,0.00917108,0.,-0.00302557,-0.0
 0105359,0.,0.88461400,-0.00836443,0.,0.,-0.00048141,0.,0.,0.33973343,0
 .,0.,0.00138758,0.,0.,-0.34063960,0.01334971,0.00799555,-0.04278287,0.
 ,0.,0.00452057,0.00058156,-0.00045302,0.,-0.19809222,0.00024747,-0.004
 37551,0.,-0.09901959,0.04746312,0.,0.,0.00058119,0.,0.,0.02563286,-0.0
 1397777,-0.00784820,0.,0.00003772,-0.00027260,0.,0.01474206,-0.0084243
 1,0.04712802,0.,0.00032036,-0.00173984,0.,0.00880836,-0.04527909,0.,0.
 ,-0.00493272,0.,0.,-0.00019945,0.,0.,0.00479793,0.00004654,0.00030566,
 0.,0.19747293,0.09904472,0.,-0.00080200,-0.00070441,0.,-0.19671747,0.0
 0018129,0.00003039,0.,0.09915224,-0.04134775,0.,-0.00068757,-0.0001090
 8,0.,-0.09864596,0.04142644,0.,0.,-0.00016901,0.,0.,-0.02601462,0.,0.,
 0.00033424,0.,0.,0.02584939,0.10495953,0.04991553,-0.32829603,0.,0.,0.
 03693061,-0.00089791,-0.00053652,0.,-0.98417449,0.00100028,-0.00336133
 ,0.,-0.50583951,0.20183747,0.,0.,-0.00029622,0.,0.,0.12809206,-0.10476
 602,-0.05037974,0.,0.00154261,-0.00131526,0.,0.10454970,-0.05027536,0.
 33064669,0.,0.00263744,0.00145538,0.,0.04994979,-0.33112789,0.,0.,-0.0
 3668275,0.,0.,0.00158713,0.,0.,0.03568673,0.00070441,0.00100073,0.,0.9
 8352979,0.50615449,0.,-0.00132628,-0.00231186,0.,-0.98290791,-0.000640
 44,0.00101067,0.,0.50373859,-0.19993153,0.,0.00174521,-0.00097418,0.,-
 0.50484336,0.19989504,0.,0.,0.00004836,0.,0.,-0.12938299,0.,0.,-0.0005
 9112,0.,0.,0.12992575,0.16133684,0.20922525,-1.64686831,0.,0.,0.555466
 66,-0.00007916,0.00097378,0.,-0.03116166,0.00066644,-0.00457990,0.,-0.
 01000278,-0.00722742,0.,0.,-0.00008378,0.,0.,0.01304325,-0.16127470,-0
 .20971889,0.,0.00143144,-0.00262460,0.,0.15998056,-0.20983640,1.651276
 64,0.,-0.00140564,0.00734482,0.,0.21127633,-1.65669897,0.,0.,-0.555664
 80,0.,0.,0.00137697,0.,0.,0.55350478,0.00001703,-0.00048013,0.,0.02980
 935,0.01196093,0.,-0.00013730,-0.00003429,0.,-0.02968908,-0.00005528,0
 .00017158,0.,0.01043465,0.00446249,0.,0.00106715,-0.00192249,0.,-0.011
 44651,-0.00271158,0.,0.,0.00028195,0.,0.,-0.01433647,0.,0.,0.00078306,
 0.,0.,0.01327147,0.42206541,0.18206412,-1.30925821,0.,0.,0.14720799,-0
 .00108009,0.00219474,0.,-0.32915232,0.00046368,-0.00410274,0.,-0.14447
 780,0.05820335,0.,0.,-0.00010493,0.,0.,0.04093686,-0.42129149,-0.18521
 887,0.,0.00753801,-0.01134259,0.,0.41396172,-0.18177857,1.31154374,0.,
 -0.00883546,0.00605622,0.,0.19327791,-1.30725013,0.,0.,-0.14698578,0.,
 0.,0.00049574,0.,0.,0.14435198,0.00030618,0.00096000,0.,0.32269438,0.1
 5535671,0.,-0.00020824,-0.00266388,0.,-0.32279232,-0.00074924,0.001817
 21,0.,0.15111851,-0.06015683,0.,0.00328355,-0.01034983,0.,-0.15365283,
 0.06868946,0.,0.,-0.00011726,0.,0.,-0.04132769,0.,0.,0.00213806,0.,0.,
 0.03930689,-1.58441371,-1.11730534,8.34188684,0.,0.,-1.70811960,0.0028
 2908,-0.00276272,0.,0.17139545,-0.00182949,0.01064988,0.,0.05055734,-0
 .01231792,0.,0.,0.00187828,0.,0.,-0.04075231,1.58284896,1.11684234,0.,
 -0.01138417,0.01345434,0.,-1.57152512,1.11903723,-8.35122357,0.,0.0198
 7173,-0.00855601,0.,-1.12640309,8.35465243,0.,0.,1.70637407,0.,0.,-0.0
 0657648,0.,0.,-1.69781141,-0.00126430,0.00322572,0.,-0.16284038,-0.062
 18219,0.,0.00006034,-0.01250587,0.,0.16404435,0.00009759,-0.00131311,0
 .,-0.06766635,0.01022403,0.,-0.00389359,0.00512716,0.,0.07146234,-0.01
 403808,0.,0.,-0.00013273,0.,0.,0.04545048,0.,0.,-0.00198618,0.,0.,-0.0
 4333157,-0.03388180,-0.02557771,0.18187798,0.,0.,-0.03685152,0.0003093
 2,0.00125612,0.,7.36031120,-0.00105311,0.00202752,0.,3.36086973,-0.520
 65043,0.,0.,0.00071094,0.,0.,-1.76086884,0.03386413,0.02519750,0.,0.00
 017051,0.00201918,0.,-0.03426931,0.02589271,-0.18373835,0.,0.00010757,
 -0.00068852,0.,-0.02446335,0.18722181,0.,0.,0.03671707,0.,0.,-0.002225
 03,0.,0.,-0.03663955,-0.00029161,-0.00087590,0.,-7.36079107,-3.3618358
 0,0.,0.00023467,-0.00153693,0.,7.36084801,0.00073811,-0.00016712,0.,-3
 .36223342,0.51931140,0.,-0.00275333,-0.00279495,0.,3.36424864,-0.51634
 933,0.,0.,-0.00057648,0.,0.,1.76238290,0.,0.,0.00214751,0.,0.,-1.76395
 393\\@


 I LOVE MANKIND - IT'S PEOPLE I CAN'T STAND.
     -- LINUS OF PEANUTS
 Job cpu time:       0 days  1 hours  7 minutes 41.0 seconds.
 Elapsed time:       0 days  0 hours  2 minutes 35.9 seconds.
 File lengths (MBytes):  RWF=    236 Int=      0 D2E=      0 Chk=     44 Scr=      8
 Normal termination of Gaussian 16 at Fri Nov 26 10:05:08 2021.
