 Entering Gaussian System, Link 0=g16
 Input=hf_nch_mp2_avtz_opt_anharm.gjf
 Output=hf_nch_mp2_avtz_opt_anharm.log
 Initial command:
 /sw/contrib/gaussian/g16/A03/g16/l1.exe "/gscratch/scrubbed/gds001/Gau-19004.inp" -scrdir="/gscratch/scrubbed/gds001/"
 Entering Link 1 = /sw/contrib/gaussian/g16/A03/g16/l1.exe PID=     19005.
  
 Copyright (c) 1988,1990,1992,1993,1995,1998,2003,2009,2016,
            Gaussian, Inc.  All Rights Reserved.
  
 This is part of the Gaussian(R) 16 program.  It is based on
 the Gaussian(R) 09 system (copyright 2009, Gaussian, Inc.),
 the Gaussian(R) 03 system (copyright 2003, Gaussian, Inc.),
 the Gaussian(R) 98 system (copyright 1998, Gaussian, Inc.),
 the Gaussian(R) 94 system (copyright 1995, Gaussian, Inc.),
 the Gaussian 92(TM) system (copyright 1992, Gaussian, Inc.),
 the Gaussian 90(TM) system (copyright 1990, Gaussian, Inc.),
 the Gaussian 88(TM) system (copyright 1988, Gaussian, Inc.),
 the Gaussian 86(TM) system (copyright 1986, Carnegie Mellon
 University), and the Gaussian 82(TM) system (copyright 1983,
 Carnegie Mellon University). Gaussian is a federally registered
 trademark of Gaussian, Inc.
  
 This software contains proprietary and confidential information,
 including trade secrets, belonging to Gaussian, Inc.
  
 This software is provided under written license and may be
 used, copied, transmitted, or stored only in accord with that
 written license.
  
 The following legend is applicable only to US Government
 contracts under FAR:
  
                    RESTRICTED RIGHTS LEGEND
  
 Use, reproduction and disclosure by the US Government is
 subject to restrictions as set forth in subparagraphs (a)
 and (c) of the Commercial Computer Software - Restricted
 Rights clause in FAR 52.227-19.
  
 Gaussian, Inc.
 340 Quinnipiac St., Bldg. 40, Wallingford CT 06492
  
  
 ---------------------------------------------------------------
 Warning -- This program may not be used in any manner that
 competes with the business of Gaussian, Inc. or will provide
 assistance to any competitor of Gaussian, Inc.  The licensee
 of this program is prohibited from giving any competitor of
 Gaussian, Inc. access to this program.  By using this program,
 the user acknowledges that Gaussian, Inc. is engaged in the
 business of creating and licensing software in the field of
 computational chemistry and represents and warrants to the
 licensee that it is not a competitor of Gaussian, Inc. and that
 it will not use this program in any manner prohibited above.
 ---------------------------------------------------------------
  

 Cite this work as:
 Gaussian 16, Revision A.03,
 M. J. Frisch, G. W. Trucks, H. B. Schlegel, G. E. Scuseria, 
 M. A. Robb, J. R. Cheeseman, G. Scalmani, V. Barone, 
 G. A. Petersson, H. Nakatsuji, X. Li, M. Caricato, A. V. Marenich, 
 J. Bloino, B. G. Janesko, R. Gomperts, B. Mennucci, H. P. Hratchian, 
 J. V. Ortiz, A. F. Izmaylov, J. L. Sonnenberg, D. Williams-Young, 
 F. Ding, F. Lipparini, F. Egidi, J. Goings, B. Peng, A. Petrone, 
 T. Henderson, D. Ranasinghe, V. G. Zakrzewski, J. Gao, N. Rega, 
 G. Zheng, W. Liang, M. Hada, M. Ehara, K. Toyota, R. Fukuda, 
 J. Hasegawa, M. Ishida, T. Nakajima, Y. Honda, O. Kitao, H. Nakai, 
 T. Vreven, K. Throssell, J. A. Montgomery, Jr., J. E. Peralta, 
 F. Ogliaro, M. J. Bearpark, J. J. Heyd, E. N. Brothers, K. N. Kudin, 
 V. N. Staroverov, T. A. Keith, R. Kobayashi, J. Normand, 
 K. Raghavachari, A. P. Rendell, J. C. Burant, S. S. Iyengar, 
 J. Tomasi, M. Cossi, J. M. Millam, M. Klene, C. Adamo, R. Cammi, 
 J. W. Ochterski, R. L. Martin, K. Morokuma, O. Farkas, 
 J. B. Foresman, and D. J. Fox, Gaussian, Inc., Wallingford CT, 2016.
 
 ******************************************
 Gaussian 16:  ES64L-G16RevA.03 25-Dec-2016
                 3-Jan-2022 
 ******************************************
 %nprocshared=28
 Will use up to   28 processors via shared memory.
 %mem=41GB
 ----------------------------------------------
 # MP2/aug-cc-pVTZ opt freq=(vibrot,anharmonic)
 ----------------------------------------------
 1/18=20,19=15,38=1,80=1/1,3;
 2/9=110,12=2,17=6,18=5,40=1/2;
 3/5=16,6=1,7=10,11=9,25=1,30=1,71=1/1,2,3;
 4//1;
 5/5=2,38=5/2;
 8/6=4,10=1/1;
 9/15=2,16=-3/6;
 10/5=1/2;
 6/7=2,8=2,9=2,10=2/1;
 7/12=2/1,2,3,16;
 1/18=20,19=15,80=1/3(2);
 2/9=110/2;
 99//99;
 2/9=110/2;
 3/5=16,6=1,7=10,11=9,25=1,30=1,71=1/1,2,3;
 4/5=5,16=3,69=1/1;
 5/5=2,38=5/2;
 8/6=4,10=1/1;
 9/15=2,16=-3/6;
 10/5=1/2;
 7/12=2/1,2,3,16;
 1/18=20,19=15,80=1/3(-8);
 2/9=110/2;
 6/7=2,8=2,9=2,10=2/1;
 99//99;
 ----
 bleh
 ----
 Symbolic Z-matrix:
 Charge =  0 Multiplicity = 1
 C                    -1.90184   0.04932   0.00026 
 N                    -0.73413  -0.10957  -0.00004 
 H                    -2.9688    0.20239  -0.00088 
 F                     2.04515   0.03593   0.00006 
 H                     1.11243  -0.05471  -0.00089 
 
 Add virtual bond connecting atoms H5         and N2         Dist= 3.49D+00.

 GradGradGradGradGradGradGradGradGradGradGradGradGradGradGradGradGradGrad
 Berny optimization.
 Initialization pass.
                           ----------------------------
                           !    Initial Parameters    !
                           ! (Angstroms and Degrees)  !
 --------------------------                            --------------------------
 ! Name  Definition              Value          Derivative Info.                !
 --------------------------------------------------------------------------------
 ! R1    R(1,2)                  1.1785         estimate D2E/DX2                !
 ! R2    R(1,3)                  1.0779         estimate D2E/DX2                !
 ! R3    R(2,5)                  1.8474         estimate D2E/DX2                !
 ! R4    R(4,5)                  0.9371         estimate D2E/DX2                !
 ! A1    L(1,2,5,-3,-1)        170.5498         estimate D2E/DX2                !
 ! A2    L(2,5,4,-3,-1)        176.1507         estimate D2E/DX2                !
 ! A3    L(1,2,5,-2,-2)        179.9884         estimate D2E/DX2                !
 ! A4    L(2,5,4,-2,-2)        180.0847         estimate D2E/DX2                !
 ! A5    L(2,1,3,4,-1)         179.5843         estimate D2E/DX2                !
 ! A6    L(2,1,3,4,-2)         179.4562         estimate D2E/DX2                !
 --------------------------------------------------------------------------------
 Trust Radius=3.00D-01 FncErr=1.00D-07 GrdErr=1.00D-07 EigMax=2.50D+02 EigMin=1.00D-04
 Number of steps in this run=     20 maximum allowed number of steps=    100.
 GradGradGradGradGradGradGradGradGradGradGradGradGradGradGradGradGradGrad

                          Input orientation:                          
 ---------------------------------------------------------------------
 Center     Atomic      Atomic             Coordinates (Angstroms)
 Number     Number       Type             X           Y           Z
 ---------------------------------------------------------------------
      1          6           0       -1.901842    0.049319    0.000256
      2          7           0       -0.734130   -0.109571   -0.000044
      3          1           0       -2.968799    0.202387   -0.000876
      4          9           0        2.045148    0.035934    0.000059
      5          1           0        1.112430   -0.054714   -0.000892
 ---------------------------------------------------------------------
                    Distance matrix (angstroms):
                    1          2          3          4          5
     1  C    0.000000
     2  N    1.178473   0.000000
     3  H    1.077881   2.256339   0.000000
     4  F    3.947013   2.783084   5.016709   0.000000
     5  H    3.016067   1.847375   4.089319   0.937113   0.000000
 Stoichiometry    CH2FN
 Framework group  C1[X(CH2FN)]
 Deg. of freedom     9
 Full point group                 C1      NOp   1
 Largest Abelian subgroup         C1      NOp   1
 Largest concise Abelian subgroup C1      NOp   1
                         Standard orientation:                         
 ---------------------------------------------------------------------
 Center     Atomic      Atomic             Coordinates (Angstroms)
 Number     Number       Type             X           Y           Z
 ---------------------------------------------------------------------
      1          6           0        1.901842    0.049319   -0.000256
      2          7           0        0.734130   -0.109571    0.000044
      3          1           0        2.968799    0.202387    0.000876
      4          9           0       -2.045148    0.035934   -0.000059
      5          1           0       -1.112430   -0.054714    0.000892
 ---------------------------------------------------------------------
 Rotational constants (GHZ):        1929.1371148           3.6039899           3.5972697
 Standard basis: Aug-CC-pVTZ (5D, 7F)
 There are   215 symmetry adapted cartesian basis functions of A   symmetry.
 There are   184 symmetry adapted basis functions of A   symmetry.
   184 basis functions,   270 primitive gaussians,   215 cartesian basis functions
    12 alpha electrons       12 beta electrons
       nuclear repulsion energy        51.8843466979 Hartrees.
 NAtoms=    5 NActive=    5 NUniq=    5 SFac= 1.00D+00 NAtFMM=   60 NAOKFM=F Big=F
 Integral buffers will be    131072 words long.
 Raffenetti 1 integral format.
 Two-electron integral symmetry is turned on.
 One-electron integrals computed using PRISM.
 NBasis=   184 RedAO= T EigKep=  6.32D-05  NBF=   184
 NBsUse=   184 1.00D-06 EigRej= -1.00D+00 NBFU=   184
 ExpMin= 2.53D-02 ExpMax= 1.95D+04 ExpMxC= 6.65D+02 IAcc=3 IRadAn=         5 AccDes= 0.00D+00
 Harris functional with IExCor=  205 and IRadAn=       5 diagonalized for initial guess.
 HarFok:  IExCor=  205 AccDes= 0.00D+00 IRadAn=         5 IDoV= 1 UseB2=F ITyADJ=14
 ICtDFT=  3500011 ScaDFX=  1.000000  1.000000  1.000000  1.000000
 FoFCou: FMM=F IPFlag=           0 FMFlag=      100000 FMFlg1=           0
         NFxFlg=           0 DoJE=T BraDBF=F KetDBF=T FulRan=T
         wScrn=  0.000000 ICntrl=       500 IOpCl=  0 I1Cent=   200000004 NGrid=           0
         NMat0=    1 NMatS0=      1 NMatT0=    0 NMatD0=    1 NMtDS0=    0 NMtDT0=    0
 Petite list used in FoFCou.
 Keep R1 ints in memory in canonical form, NReq=158659629.
 Requested convergence on RMS density matrix=1.00D-08 within 128 cycles.
 Requested convergence on MAX density matrix=1.00D-06.
 Requested convergence on             energy=1.00D-06.
 No special actions if energy rises.
 SCF Done:  E(RHF) =  -192.973036788     A.U. after   10 cycles
            NFock= 10  Conv=0.77D-08     -V/T= 2.0025
 ExpMin= 2.53D-02 ExpMax= 1.95D+04 ExpMxC= 6.65D+02 IAcc=3 IRadAn=         5 AccDes= 0.00D+00
 HarFok:  IExCor=  205 AccDes= 0.00D+00 IRadAn=         5 IDoV=-2 UseB2=F ITyADJ=14
 ICtDFT= 12500011 ScaDFX=  1.000000  1.000000  1.000000  1.000000
 Range of M.O.s used for correlation:     4   184
 NBasis=   184 NAE=    12 NBE=    12 NFC=     3 NFV=     0
 NROrb=    181 NOA=     9 NOB=     9 NVA=   172 NVB=   172

 **** Warning!!: The largest alpha MO coefficient is  0.37546731D+02

 Fully direct method using O(ONN) memory.
 JobTyp=1 Pass  1:  I=   4 to  12 NPSUse= 28 ParTrn=T ParDer=T DoDerP=T.
 Spin components of T(2) and E(2):
     alpha-alpha T2 =       0.2347309731D-01 E2=     -0.8011742514D-01
     alpha-beta  T2 =       0.1327001721D+00 E2=     -0.4793794662D+00
     beta-beta   T2 =       0.2347309731D-01 E2=     -0.8011742514D-01
 ANorm=    0.1086115264D+01
 E2 =    -0.6396143165D+00 EUMP2 =    -0.19361265110422D+03
          IDoAtm=11111
          Differentiating once with respect to electric field.
                with respect to dipole field.
          Differentiating once with respect to nuclear coordinates.
 Keep R1 ints in memory in canonical form, NReq=158663496.
          There are     1 degrees of freedom in the 1st order CPHF.  IDoFFX=0 NUNeed=     1.
 LinEq1:  Iter=  0 NonCon=     1 RMS=4.22D-03 Max=4.87D-02 NDo=     1
 AX will form     1 AO Fock derivatives at one time.
 LinEq1:  Iter=  1 NonCon=     1 RMS=9.37D-04 Max=1.40D-02 NDo=     1
 LinEq1:  Iter=  2 NonCon=     1 RMS=2.31D-04 Max=1.69D-03 NDo=     1
 LinEq1:  Iter=  3 NonCon=     1 RMS=1.15D-04 Max=1.79D-03 NDo=     1
 LinEq1:  Iter=  4 NonCon=     1 RMS=3.80D-05 Max=4.70D-04 NDo=     1
 LinEq1:  Iter=  5 NonCon=     1 RMS=1.88D-05 Max=2.09D-04 NDo=     1
 LinEq1:  Iter=  6 NonCon=     1 RMS=4.31D-06 Max=3.89D-05 NDo=     1
 LinEq1:  Iter=  7 NonCon=     1 RMS=8.40D-07 Max=1.30D-05 NDo=     1
 LinEq1:  Iter=  8 NonCon=     1 RMS=2.39D-07 Max=3.65D-06 NDo=     1
 LinEq1:  Iter=  9 NonCon=     1 RMS=3.83D-08 Max=2.96D-07 NDo=     1
 LinEq1:  Iter= 10 NonCon=     1 RMS=7.49D-09 Max=5.65D-08 NDo=     1
 LinEq1:  Iter= 11 NonCon=     1 RMS=1.09D-09 Max=1.22D-08 NDo=     1
 LinEq1:  Iter= 12 NonCon=     1 RMS=2.17D-10 Max=3.22D-09 NDo=     1
 LinEq1:  Iter= 13 NonCon=     0 RMS=3.71D-11 Max=3.18D-10 NDo=     1
 Linear equations converged to 1.000D-10 1.000D-09 after    13 iterations.
 End of Minotr F.D. properties file   721 does not exist.
 End of Minotr F.D. properties file   722 does not exist.
 End of Minotr F.D. properties file   788 does not exist.

 **********************************************************************

            Population analysis using the SCF density.

 **********************************************************************

 Orbital symmetries:
       Occupied  (A) (A) (A) (A) (A) (A) (A) (A) (A) (A) (A) (A)
       Virtual   (A) (A) (A) (A) (A) (A) (A) (A) (A) (A) (A) (A)
                 (A) (A) (A) (A) (A) (A) (A) (A) (A) (A) (A) (A)
                 (A) (A) (A) (A) (A) (A) (A) (A) (A) (A) (A) (A)
                 (A) (A) (A) (A) (A) (A) (A) (A) (A) (A) (A) (A)
                 (A) (A) (A) (A) (A) (A) (A) (A) (A) (A) (A) (A)
                 (A) (A) (A) (A) (A) (A) (A) (A) (A) (A) (A) (A)
                 (A) (A) (A) (A) (A) (A) (A) (A) (A) (A) (A) (A)
                 (A) (A) (A) (A) (A) (A) (A) (A) (A) (A) (A) (A)
                 (A) (A) (A) (A) (A) (A) (A) (A) (A) (A) (A) (A)
                 (A) (A) (A) (A) (A) (A) (A) (A) (A) (A) (A) (A)
                 (A) (A) (A) (A) (A) (A) (A) (A) (A) (A) (A) (A)
                 (A) (A) (A) (A) (A) (A) (A) (A) (A) (A) (A) (A)
                 (A) (A) (A) (A) (A) (A) (A) (A) (A) (A) (A) (A)
                 (A) (A) (A) (A) (A) (A) (A) (A) (A) (A) (A) (A)
                 (A) (A) (A) (A)
 The electronic state is 1-A.
 Alpha  occ. eigenvalues --  -26.24745 -15.64036 -11.34001  -1.54937  -1.25880
 Alpha  occ. eigenvalues --   -0.84330  -0.73313  -0.61774  -0.60164  -0.60163
 Alpha  occ. eigenvalues --   -0.52288  -0.52285
 Alpha virt. eigenvalues --    0.01465   0.05568   0.05868   0.05913   0.08924
 Alpha virt. eigenvalues --    0.11475   0.11803   0.11805   0.16773   0.16910
 Alpha virt. eigenvalues --    0.18305   0.19776   0.24238   0.24994   0.25043
 Alpha virt. eigenvalues --    0.27599   0.27637   0.28019   0.28557   0.28576
 Alpha virt. eigenvalues --    0.35012   0.37494   0.40918   0.41971   0.42534
 Alpha virt. eigenvalues --    0.44392   0.44767   0.47838   0.52465   0.52470
 Alpha virt. eigenvalues --    0.54933   0.55170   0.59000   0.61253   0.71145
 Alpha virt. eigenvalues --    0.73284   0.77804   0.79911   0.83701   0.83712
 Alpha virt. eigenvalues --    0.85594   0.85891   0.85950   0.87866   0.88112
 Alpha virt. eigenvalues --    0.93689   0.96247   0.96688   1.05434   1.05437
 Alpha virt. eigenvalues --    1.06870   1.07043   1.07930   1.08045   1.11826
 Alpha virt. eigenvalues --    1.14372   1.19366   1.20121   1.22213   1.22585
 Alpha virt. eigenvalues --    1.23754   1.25954   1.26040   1.29789   1.32898
 Alpha virt. eigenvalues --    1.33803   1.33862   1.44793   1.44860   1.48006
 Alpha virt. eigenvalues --    1.54041   1.62411   1.62414   1.65780   1.67113
 Alpha virt. eigenvalues --    1.74937   1.75819   1.80521   1.81340   1.86302
 Alpha virt. eigenvalues --    1.89333   1.92593   2.01957   2.09026   2.23689
 Alpha virt. eigenvalues --    2.23697   2.30022   2.31422   2.44420   2.44524
 Alpha virt. eigenvalues --    2.60895   2.73255   2.85153   2.85735   2.85736
 Alpha virt. eigenvalues --    2.93728   2.94217   2.97461   2.97461   3.03635
 Alpha virt. eigenvalues --    3.09949   3.12201   3.12354   3.17600   3.24369
 Alpha virt. eigenvalues --    3.24427   3.36168   3.36231   3.40826   3.40827
 Alpha virt. eigenvalues --    3.42844   3.42944   3.50407   3.54032   3.54159
 Alpha virt. eigenvalues --    3.70631   3.72085   3.83317   3.89878   3.91256
 Alpha virt. eigenvalues --    4.12238   4.16604   4.16644   4.24261   4.24276
 Alpha virt. eigenvalues --    4.32629   4.38364   4.44365   4.52941   4.53735
 Alpha virt. eigenvalues --    4.61030   4.64581   4.78021   4.82367   4.93314
 Alpha virt. eigenvalues --    4.93315   5.00344   5.00540   5.19447   5.19476
 Alpha virt. eigenvalues --    5.34646   5.37702   5.38298   5.48810   5.48902
 Alpha virt. eigenvalues --    5.68056   5.71716   5.71815   5.78202   6.04960
 Alpha virt. eigenvalues --    6.16916   6.17058   6.63970   6.78829   6.78893
 Alpha virt. eigenvalues --    6.98315   7.86283   8.87540   8.87540   9.00553
 Alpha virt. eigenvalues --    9.00555   9.39383   9.39977   9.41602   9.41613
 Alpha virt. eigenvalues --    9.64173   9.69546   9.70036   9.96479  15.18259
 Alpha virt. eigenvalues --   15.72733  18.56598
          Condensed to atoms (all electrons):
               1          2          3          4          5
     1  C    5.902683   0.633669  -0.067247  -0.005550  -0.013004
     2  N    0.633669   6.717798   0.005482  -0.055282  -0.028463
     3  H   -0.067247   0.005482   0.299003   0.000866   0.000701
     4  F   -0.005550  -0.055282   0.000866   9.297847   0.188771
     5  H   -0.013004  -0.028463   0.000701   0.188771   0.462780
 Mulliken charges:
               1
     1  C   -0.450552
     2  N   -0.273205
     3  H    0.761194
     4  F   -0.426652
     5  H    0.389214
 Sum of Mulliken charges =  -0.00000
 Mulliken charges with hydrogens summed into heavy atoms:
               1
     1  C    0.310643
     2  N   -0.273205
     4  F   -0.037438
 Electronic spatial extent (au):  <R**2>=            296.3170
 Charge=             -0.0000 electrons
 Dipole moment (field-independent basis, Debye):
    X=              6.2330    Y=              0.2761    Z=              0.0026  Tot=              6.2391
 Quadrupole moment (field-independent basis, Debye-Ang):
   XX=            -11.1089   YY=            -17.6049   ZZ=            -17.6536
   XY=              1.2383   XZ=              0.0012   YZ=              0.0001
 Traceless Quadrupole moment (field-independent basis, Debye-Ang):
   XX=              4.3469   YY=             -2.1491   ZZ=             -2.1979
   XY=              1.2383   XZ=              0.0012   YZ=              0.0001
 Octapole moment (field-independent basis, Debye-Ang**2):
  XXX=             39.6375  YYY=              0.4027  ZZZ=              0.0018  XYY=             -4.3811
  XXY=              2.6182  XXZ=              0.0112  XZZ=             -4.5462  YZZ=              0.1287
  YYZ=              0.0007  XYZ=              0.0011
 Hexadecapole moment (field-independent basis, Debye-Ang**3):
 XXXX=           -219.9406 YYYY=            -16.7852 ZZZZ=            -16.1374 XXXY=              8.5480
 XXXZ=              0.0423 YYYX=              0.2907 YYYZ=              0.0000 ZZZX=              0.0029
 ZZZY=              0.0000 XXYY=            -54.4844 XXZZ=            -54.9627 YYZZ=             -5.4874
 XXYZ=              0.0025 YYXZ=              0.0012 ZZXY=              0.0834
 N-N= 5.188434669792D+01 E-N=-5.612487441796D+02  KE= 1.924922499740D+02
 Calling FoFJK, ICntrl=  10002127 FMM=F ISym2X=0 I1Cent= 0 IOpClX= 0 NMat=1 NMatS=1 NMatT=0.
 ***** Axes restored to original set *****
 -------------------------------------------------------------------
 Center     Atomic                   Forces (Hartrees/Bohr)
 Number     Number              X              Y              Z
 -------------------------------------------------------------------
      1        6           0.020853049   -0.002590016   -0.000085696
      2        7          -0.029121463    0.004425111    0.000026568
      3        1           0.008530293   -0.001601364    0.000047894
      4        9          -0.003062577   -0.000523878   -0.000018578
      5        1           0.002800698    0.000290146    0.000029813
 -------------------------------------------------------------------
 Cartesian Forces:  Max     0.029121463 RMS     0.009668239

 GradGradGradGradGradGradGradGradGradGradGradGradGradGradGradGradGradGrad
 Berny optimization.
 FormGI is forming the generalized inverse of G from B-inverse, IUseBI=4.
 Internal  Forces:  Max     0.029503871 RMS     0.009819879
 Search for a local minimum.
 Step number   1 out of a maximum of   20
 All quantities printed in internal units (Hartrees-Bohrs-Radians)
 Mixed Optimization -- RFO/linear search
 Second derivative matrix not updated -- first step.
 The second derivative matrix:
                          R1        R2        R3        R4        A1
           R1           1.16429
           R2           0.00000   0.36252
           R3           0.00000   0.00000   0.05606
           R4           0.00000   0.00000   0.00000   0.60702
           A1           0.00000   0.00000   0.00000   0.00000   0.00230
           A2           0.00000   0.00000   0.00000   0.00000   0.00000
           A3           0.00000   0.00000   0.00000   0.00000   0.00000
           A4           0.00000   0.00000   0.00000   0.00000   0.00000
           A5           0.00000   0.00000   0.00000   0.00000   0.00000
           A6           0.00000   0.00000   0.00000   0.00000   0.00000
                          A2        A3        A4        A5        A6
           A2           0.01596
           A3           0.00000   0.00230
           A4           0.00000   0.00000   0.01596
           A5           0.00000   0.00000   0.00000   0.00395
           A6           0.00000   0.00000   0.00000   0.00000   0.00395
 ITU=  0
     Eigenvalues ---    0.00230   0.00351   0.00395   0.01459   0.01596
     Eigenvalues ---    0.05559   0.36160   0.60567   1.15440
 RFO step:  Lambda=-9.93652564D-04 EMin= 2.30000000D-03
 Linear search not attempted -- first point.
 Iteration  1 RMS(Cart)=  0.01673836 RMS(Int)=  0.00049260
 Iteration  2 RMS(Cart)=  0.00005002 RMS(Int)=  0.00048710
 Iteration  3 RMS(Cart)=  0.00000009 RMS(Int)=  0.00048710
 Variable       Old X    -DE/DX   Delta X   Delta X   Delta X     New X
                                 (Linear)    (Quad)   (Total)
    R1        2.22699  -0.02950   0.00000  -0.02559  -0.02559   2.20140
    R2        2.03690  -0.00858   0.00000  -0.02406  -0.02406   2.01284
    R3        3.49103  -0.00009   0.00000  -0.00718  -0.00718   3.48386
    R4        1.77089  -0.00301   0.00000  -0.00521  -0.00521   1.76568
    A1        2.97665   0.00272   0.00000   0.00129   0.00129   2.97794
    A2        3.07441   0.00101   0.00000  -0.00418  -0.00418   3.07023
    A3        3.14139   0.00001   0.00000   0.00224   0.00083   3.14222
    A4        3.14307  -0.00003   0.00000  -0.00167  -0.00229   3.14078
    A5        3.13434   0.00168   0.00000   0.00993   0.00993   3.14427
    A6        3.13210   0.00001   0.00000   0.00205   0.00195   3.13405
         Item               Value     Threshold  Converged?
 Maximum Force            0.029504     0.000450     NO 
 RMS     Force            0.009820     0.000300     NO 
 Maximum Displacement     0.036558     0.001800     NO 
 RMS     Displacement     0.016750     0.001200     NO 
 Predicted change in Energy=-4.975192D-04
 GradGradGradGradGradGradGradGradGradGradGradGradGradGradGradGradGradGrad

                          Input orientation:                          
 ---------------------------------------------------------------------
 Center     Atomic      Atomic             Coordinates (Angstroms)
 Number     Number       Type             X           Y           Z
 ---------------------------------------------------------------------
      1          6           0       -1.893884    0.053524    0.000007
      2          7           0       -0.739851   -0.105457   -0.000428
      3          1           0       -2.949453    0.196065   -0.000639
      4          9           0        2.032929    0.035373   -0.000476
      5          1           0        1.103067   -0.056150    0.000040
 ---------------------------------------------------------------------
                    Distance matrix (angstroms):
                    1          2          3          4          5
     1  C    0.000000
     2  N    1.164932   0.000000
     3  H    1.065150   2.230080   0.000000
     4  F    3.926855   2.776354   4.984973   0.000000
     5  H    2.998957   1.843577   4.060361   0.934356   0.000000
 Stoichiometry    CH2FN
 Framework group  C1[X(CH2FN)]
 Deg. of freedom     9
 Full point group                 C1      NOp   1
 Largest Abelian subgroup         C1      NOp   1
 Largest concise Abelian subgroup C1      NOp   1
                         Standard orientation:                         
 ---------------------------------------------------------------------
 Center     Atomic      Atomic             Coordinates (Angstroms)
 Number     Number       Type             X           Y           Z
 ---------------------------------------------------------------------
      1          6           0        1.890077    0.050371   -0.000195
      2          7           0        0.735924   -0.107733    0.000113
      3          1           0        2.945755    0.192110    0.000566
      4          9           0       -2.036748    0.035202    0.000030
      5          1           0       -1.106956   -0.057026   -0.000457
 ---------------------------------------------------------------------
 Rotational constants (GHZ):        1995.9166342           3.6375961           3.6309786
 Standard basis: Aug-CC-pVTZ (5D, 7F)
 There are   215 symmetry adapted cartesian basis functions of A   symmetry.
 There are   184 symmetry adapted basis functions of A   symmetry.
   184 basis functions,   270 primitive gaussians,   215 cartesian basis functions
    12 alpha electrons       12 beta electrons
       nuclear repulsion energy        52.2564003978 Hartrees.
 NAtoms=    5 NActive=    5 NUniq=    5 SFac= 1.00D+00 NAtFMM=   60 NAOKFM=F Big=F
 Integral buffers will be    131072 words long.
 Raffenetti 1 integral format.
 Two-electron integral symmetry is turned on.
 One-electron integrals computed using PRISM.
 NBasis=   184 RedAO= T EigKep=  6.01D-05  NBF=   184
 NBsUse=   184 1.00D-06 EigRej= -1.00D+00 NBFU=   184
 Initial guess from the checkpoint file:  "/gscratch/scrubbed/gds001/Gau-19005.chk"
 B after Tr=    -0.000000   -0.000000   -0.000000
         Rot=    1.000000   -0.000055    0.000000   -0.000097 Ang=  -0.01 deg.
 ExpMin= 2.53D-02 ExpMax= 1.95D+04 ExpMxC= 6.65D+02 IAcc=3 IRadAn=         5 AccDes= 0.00D+00
 Harris functional with IExCor=  205 and IRadAn=       5 diagonalized for initial guess.
 HarFok:  IExCor=  205 AccDes= 0.00D+00 IRadAn=         5 IDoV= 1 UseB2=F ITyADJ=14
 ICtDFT=  3500011 ScaDFX=  1.000000  1.000000  1.000000  1.000000
 FoFCou: FMM=F IPFlag=           0 FMFlag=      100000 FMFlg1=           0
         NFxFlg=           0 DoJE=T BraDBF=F KetDBF=T FulRan=T
         wScrn=  0.000000 ICntrl=       500 IOpCl=  0 I1Cent=   200000004 NGrid=           0
         NMat0=    1 NMatS0=      1 NMatT0=    0 NMatD0=    1 NMtDS0=    0 NMtDT0=    0
 Petite list used in FoFCou.
 Keep R1 ints in memory in canonical form, NReq=158659932.
 Requested convergence on RMS density matrix=1.00D-08 within 128 cycles.
 Requested convergence on MAX density matrix=1.00D-06.
 Requested convergence on             energy=1.00D-06.
 No special actions if energy rises.
 SCF Done:  E(RHF) =  -192.976659134     A.U. after    9 cycles
            NFock=  9  Conv=0.81D-08     -V/T= 2.0020
 ExpMin= 2.53D-02 ExpMax= 1.95D+04 ExpMxC= 6.65D+02 IAcc=3 IRadAn=         5 AccDes= 0.00D+00
 HarFok:  IExCor=  205 AccDes= 0.00D+00 IRadAn=         5 IDoV=-2 UseB2=F ITyADJ=14
 ICtDFT= 12500011 ScaDFX=  1.000000  1.000000  1.000000  1.000000
 Range of M.O.s used for correlation:     4   184
 NBasis=   184 NAE=    12 NBE=    12 NFC=     3 NFV=     0
 NROrb=    181 NOA=     9 NOB=     9 NVA=   172 NVB=   172

 **** Warning!!: The largest alpha MO coefficient is  0.40601451D+02

 Fully direct method using O(ONN) memory.
 JobTyp=1 Pass  1:  I=   4 to  12 NPSUse= 28 ParTrn=T ParDer=T DoDerP=T.
 Spin components of T(2) and E(2):
     alpha-alpha T2 =       0.2304182898D-01 E2=     -0.7967426522D-01
     alpha-beta  T2 =       0.1304147729D+00 E2=     -0.4771847662D+00
     beta-beta   T2 =       0.2304182898D-01 E2=     -0.7967426522D-01
 ANorm=    0.1084665124D+01
 E2 =    -0.6365332967D+00 EUMP2 =    -0.19361319243032D+03
          IDoAtm=11111
          Differentiating once with respect to electric field.
                with respect to dipole field.
          Differentiating once with respect to nuclear coordinates.
 Keep R1 ints in memory in canonical form, NReq=158663716.
          There are     1 degrees of freedom in the 1st order CPHF.  IDoFFX=0 NUNeed=     1.
 LinEq1:  Iter=  0 NonCon=     1 RMS=4.12D-03 Max=4.70D-02 NDo=     1
 AX will form     1 AO Fock derivatives at one time.
 LinEq1:  Iter=  1 NonCon=     1 RMS=9.05D-04 Max=1.38D-02 NDo=     1
 LinEq1:  Iter=  2 NonCon=     1 RMS=2.20D-04 Max=1.63D-03 NDo=     1
 LinEq1:  Iter=  3 NonCon=     1 RMS=1.00D-04 Max=1.42D-03 NDo=     1
 LinEq1:  Iter=  4 NonCon=     1 RMS=3.17D-05 Max=3.83D-04 NDo=     1
 LinEq1:  Iter=  5 NonCon=     1 RMS=1.59D-05 Max=2.28D-04 NDo=     1
 LinEq1:  Iter=  6 NonCon=     1 RMS=3.96D-06 Max=3.58D-05 NDo=     1
 LinEq1:  Iter=  7 NonCon=     1 RMS=7.27D-07 Max=1.25D-05 NDo=     1
 LinEq1:  Iter=  8 NonCon=     1 RMS=2.07D-07 Max=3.66D-06 NDo=     1
 LinEq1:  Iter=  9 NonCon=     1 RMS=3.51D-08 Max=2.87D-07 NDo=     1
 LinEq1:  Iter= 10 NonCon=     1 RMS=6.79D-09 Max=5.37D-08 NDo=     1
 LinEq1:  Iter= 11 NonCon=     1 RMS=9.34D-10 Max=1.09D-08 NDo=     1
 LinEq1:  Iter= 12 NonCon=     1 RMS=1.88D-10 Max=3.06D-09 NDo=     1
 LinEq1:  Iter= 13 NonCon=     0 RMS=3.28D-11 Max=3.01D-10 NDo=     1
 Linear equations converged to 1.000D-10 1.000D-09 after    13 iterations.
 End of Minotr F.D. properties file   721 does not exist.
 End of Minotr F.D. properties file   722 does not exist.
 End of Minotr F.D. properties file   788 does not exist.
 Calling FoFJK, ICntrl=  10002127 FMM=F ISym2X=0 I1Cent= 0 IOpClX= 0 NMat=1 NMatS=1 NMatT=0.
 ***** Axes restored to original set *****
 -------------------------------------------------------------------
 Center     Atomic                   Forces (Hartrees/Bohr)
 Number     Number              X              Y              Z
 -------------------------------------------------------------------
      1        6           0.003587227   -0.000886488   -0.000057809
      2        7          -0.003014044    0.001109413    0.000036155
      3        1          -0.000424194   -0.000019660    0.000027838
      4        9           0.000091152   -0.000267410    0.000008320
      5        1          -0.000240141    0.000064145   -0.000014504
 -------------------------------------------------------------------
 Cartesian Forces:  Max     0.003587227 RMS     0.001272712

 GradGradGradGradGradGradGradGradGradGradGradGradGradGradGradGradGradGrad
 Berny optimization.
 Using GEDIIS/GDIIS optimizer.
 FormGI is forming the generalized inverse of G from B-inverse, IUseBI=4.
 Internal  Forces:  Max     0.003338329 RMS     0.001080553
 Search for a local minimum.
 Step number   2 out of a maximum of   20
 All quantities printed in internal units (Hartrees-Bohrs-Radians)
 Mixed Optimization -- RFO/linear search
 Update second derivatives using D2CorX and points    1    2
 DE= -5.41D-04 DEPred=-4.98D-04 R= 1.09D+00
 TightC=F SS=  1.41D+00  RLast= 3.79D-02 DXNew= 5.0454D-01 1.1383D-01
 Trust test= 1.09D+00 RLast= 3.79D-02 DXMaxT set to 3.00D-01
 The second derivative matrix:
                          R1        R2        R3        R4        A1
           R1           1.01515
           R2          -0.00695   0.37303
           R3          -0.01641  -0.00502   0.05592
           R4          -0.00860   0.00174  -0.00178   0.60695
           A1          -0.06394  -0.02187   0.00037  -0.00741   0.00780
           A2          -0.02489  -0.00841   0.00011  -0.00286   0.00197
           A3          -0.00052  -0.00018   0.00000  -0.00006   0.00005
           A4           0.00009   0.00008  -0.00002   0.00002  -0.00010
           A5          -0.05451  -0.01870   0.00034  -0.00633   0.00478
           A6           0.00015   0.00004   0.00000   0.00001   0.00001
                          A2        A3        A4        A5        A6
           A2           0.01665
           A3           0.00002   0.00230
           A4          -0.00004  -0.00000   0.01596
           A5           0.00171   0.00004  -0.00009   0.00811
           A6           0.00000   0.00000   0.00000   0.00001   0.00395
 ITU=  1  0
 Use linear search instead of GDIIS.
     Eigenvalues ---    0.00230   0.00354   0.00395   0.01460   0.01596
     Eigenvalues ---    0.05535   0.37519   0.60653   1.02319
 RFO step:  Lambda=-8.62811061D-05 EMin= 2.30007122D-03
 Quartic linear search produced a step of  0.07787.
 Iteration  1 RMS(Cart)=  0.03521376 RMS(Int)=  0.00230873
 Iteration  2 RMS(Cart)=  0.00247909 RMS(Int)=  0.00131803
 Iteration  3 RMS(Cart)=  0.00000086 RMS(Int)=  0.00131803
 Variable       Old X    -DE/DX   Delta X   Delta X   Delta X     New X
                                 (Linear)    (Quad)   (Total)
    R1        2.20140  -0.00334  -0.00199  -0.00328  -0.00527   2.19613
    R2        2.01284   0.00037  -0.00187   0.00102  -0.00085   2.01199
    R3        3.48386  -0.00024  -0.00056  -0.00501  -0.00557   3.47829
    R4        1.76568   0.00002  -0.00041  -0.00001  -0.00042   1.76526
    A1        2.97794   0.00047   0.00010   0.07476   0.07486   3.05280
    A2        3.07023   0.00020  -0.00033   0.00619   0.00588   3.07611
    A3        3.14222  -0.00001   0.00006  -0.00506  -0.00112   3.14111
    A4        3.14078   0.00001  -0.00018   0.00123   0.00255   3.14334
    A5        3.14427  -0.00027   0.00077  -0.12719  -0.12642   3.01785
    A6        3.13405   0.00001   0.00015   0.00070   0.00115   3.13521
         Item               Value     Threshold  Converged?
 Maximum Force            0.003338     0.000450     NO 
 RMS     Force            0.001081     0.000300     NO 
 Maximum Displacement     0.087474     0.001800     NO 
 RMS     Displacement     0.035316     0.001200     NO 
 Predicted change in Energy=-4.439698D-05
 GradGradGradGradGradGradGradGradGradGradGradGradGradGradGradGradGradGrad

                          Input orientation:                          
 ---------------------------------------------------------------------
 Center     Atomic      Atomic             Coordinates (Angstroms)
 Number     Number       Type             X           Y           Z
 ---------------------------------------------------------------------
      1          6           0       -1.898407    0.007235    0.000224
      2          7           0       -0.739367   -0.077630    0.000100
      3          1           0       -2.942549    0.215450   -0.000910
      4          9           0        2.032094    0.027028    0.000081
      5          1           0        1.101037   -0.048729   -0.000992
 ---------------------------------------------------------------------
                    Distance matrix (angstroms):
                    1          2          3          4          5
     1  C    0.000000
     2  N    1.162143   0.000000
     3  H    1.064700   2.222590   0.000000
     4  F    3.930551   2.773436   4.978210   0.000000
     5  H    2.999966   1.840631   4.052206   0.934135   0.000000
 Stoichiometry    CH2FN
 Framework group  C1[X(CH2FN)]
 Deg. of freedom     9
 Full point group                 C1      NOp   1
 Largest Abelian subgroup         C1      NOp   1
 Largest concise Abelian subgroup C1      NOp   1
                         Standard orientation:                         
 ---------------------------------------------------------------------
 Center     Atomic      Atomic             Coordinates (Angstroms)
 Number     Number       Type             X           Y           Z
 ---------------------------------------------------------------------
      1          6           0        1.893441    0.014271   -0.000212
      2          7           0        0.734549   -0.072604    0.000062
      3          1           0        2.937219    0.224299    0.000555
      4          9           0       -2.037089    0.027244   -0.000092
      5          1           0       -1.105902   -0.046895    0.001110
 ---------------------------------------------------------------------
 Rotational constants (GHZ):        3648.6910764           3.6349867           3.6313691
 Standard basis: Aug-CC-pVTZ (5D, 7F)
 There are   215 symmetry adapted cartesian basis functions of A   symmetry.
 There are   184 symmetry adapted basis functions of A   symmetry.
   184 basis functions,   270 primitive gaussians,   215 cartesian basis functions
    12 alpha electrons       12 beta electrons
       nuclear repulsion energy        52.3204572345 Hartrees.
 NAtoms=    5 NActive=    5 NUniq=    5 SFac= 1.00D+00 NAtFMM=   60 NAOKFM=F Big=F
 Integral buffers will be    131072 words long.
 Raffenetti 1 integral format.
 Two-electron integral symmetry is turned on.
 One-electron integrals computed using PRISM.
 NBasis=   184 RedAO= T EigKep=  6.06D-05  NBF=   184
 NBsUse=   184 1.00D-06 EigRej= -1.00D+00 NBFU=   184
 Initial guess from the checkpoint file:  "/gscratch/scrubbed/gds001/Gau-19005.chk"
 B after Tr=    -0.000000   -0.000000    0.000000
         Rot=    1.000000    0.000787    0.000000   -0.000006 Ang=   0.09 deg.
 ExpMin= 2.53D-02 ExpMax= 1.95D+04 ExpMxC= 6.65D+02 IAcc=3 IRadAn=         5 AccDes= 0.00D+00
 Harris functional with IExCor=  205 and IRadAn=       5 diagonalized for initial guess.
 HarFok:  IExCor=  205 AccDes= 0.00D+00 IRadAn=         5 IDoV= 1 UseB2=F ITyADJ=14
 ICtDFT=  3500011 ScaDFX=  1.000000  1.000000  1.000000  1.000000
 FoFCou: FMM=F IPFlag=           0 FMFlag=      100000 FMFlg1=           0
         NFxFlg=           0 DoJE=T BraDBF=F KetDBF=T FulRan=T
         wScrn=  0.000000 ICntrl=       500 IOpCl=  0 I1Cent=   200000004 NGrid=           0
         NMat0=    1 NMatS0=      1 NMatT0=    0 NMatD0=    1 NMtDS0=    0 NMtDT0=    0
 Petite list used in FoFCou.
 Keep R1 ints in memory in canonical form, NReq=158659932.
 Requested convergence on RMS density matrix=1.00D-08 within 128 cycles.
 Requested convergence on MAX density matrix=1.00D-06.
 Requested convergence on             energy=1.00D-06.
 No special actions if energy rises.
 SCF Done:  E(RHF) =  -192.976662571     A.U. after   12 cycles
            NFock= 12  Conv=0.17D-08     -V/T= 2.0019
 ExpMin= 2.53D-02 ExpMax= 1.95D+04 ExpMxC= 6.65D+02 IAcc=3 IRadAn=         5 AccDes= 0.00D+00
 HarFok:  IExCor=  205 AccDes= 0.00D+00 IRadAn=         5 IDoV=-2 UseB2=F ITyADJ=14
 ICtDFT= 12500011 ScaDFX=  1.000000  1.000000  1.000000  1.000000
 Range of M.O.s used for correlation:     4   184
 NBasis=   184 NAE=    12 NBE=    12 NFC=     3 NFV=     0
 NROrb=    181 NOA=     9 NOB=     9 NVA=   172 NVB=   172

 **** Warning!!: The largest alpha MO coefficient is  0.36220208D+02

 Fully direct method using O(ONN) memory.
 JobTyp=1 Pass  1:  I=   4 to  12 NPSUse= 28 ParTrn=T ParDer=T DoDerP=T.
 Spin components of T(2) and E(2):
     alpha-alpha T2 =       0.2297194599D-01 E2=     -0.7960788181D-01
     alpha-beta  T2 =       0.1301140206D+00 E2=     -0.4768985931D+00
     beta-beta   T2 =       0.2297194599D-01 E2=     -0.7960788181D-01
 ANorm=    0.1084462038D+01
 E2 =    -0.6361143568D+00 EUMP2 =    -0.19361277692769D+03
          IDoAtm=11111
          Differentiating once with respect to electric field.
                with respect to dipole field.
          Differentiating once with respect to nuclear coordinates.
 Keep R1 ints in memory in canonical form, NReq=158663804.
          There are     1 degrees of freedom in the 1st order CPHF.  IDoFFX=0 NUNeed=     1.
 LinEq1:  Iter=  0 NonCon=     1 RMS=4.10D-03 Max=4.64D-02 NDo=     1
 AX will form     1 AO Fock derivatives at one time.
 LinEq1:  Iter=  1 NonCon=     1 RMS=9.00D-04 Max=1.47D-02 NDo=     1
 LinEq1:  Iter=  2 NonCon=     1 RMS=2.19D-04 Max=1.62D-03 NDo=     1
 LinEq1:  Iter=  3 NonCon=     1 RMS=9.73D-05 Max=1.38D-03 NDo=     1
 LinEq1:  Iter=  4 NonCon=     1 RMS=3.08D-05 Max=3.84D-04 NDo=     1
 LinEq1:  Iter=  5 NonCon=     1 RMS=1.56D-05 Max=2.94D-04 NDo=     1
 LinEq1:  Iter=  6 NonCon=     1 RMS=5.40D-06 Max=8.53D-05 NDo=     1
 LinEq1:  Iter=  7 NonCon=     1 RMS=1.54D-06 Max=2.06D-05 NDo=     1
 LinEq1:  Iter=  8 NonCon=     1 RMS=2.74D-07 Max=3.22D-06 NDo=     1
 LinEq1:  Iter=  9 NonCon=     1 RMS=3.62D-08 Max=2.97D-07 NDo=     1
 LinEq1:  Iter= 10 NonCon=     1 RMS=7.15D-09 Max=6.16D-08 NDo=     1
 LinEq1:  Iter= 11 NonCon=     1 RMS=1.20D-09 Max=1.70D-08 NDo=     1
 LinEq1:  Iter= 12 NonCon=     1 RMS=2.21D-10 Max=3.05D-09 NDo=     1
 LinEq1:  Iter= 13 NonCon=     0 RMS=2.69D-11 Max=2.20D-10 NDo=     1
 Linear equations converged to 1.000D-10 1.000D-09 after    13 iterations.
 End of Minotr F.D. properties file   721 does not exist.
 End of Minotr F.D. properties file   722 does not exist.
 End of Minotr F.D. properties file   788 does not exist.
 Calling FoFJK, ICntrl=  10002127 FMM=F ISym2X=0 I1Cent= 0 IOpClX= 0 NMat=1 NMatS=1 NMatT=0.
 ***** Axes restored to original set *****
 -------------------------------------------------------------------
 Center     Atomic                   Forces (Hartrees/Bohr)
 Number     Number              X              Y              Z
 -------------------------------------------------------------------
      1        6          -0.001210569    0.006943517   -0.000064013
      2        7           0.002894187   -0.003243928    0.000013201
      3        1          -0.001579737   -0.003601681    0.000036698
      4        9           0.000463988   -0.000258543   -0.000018540
      5        1          -0.000567869    0.000160635    0.000032655
 -------------------------------------------------------------------
 Cartesian Forces:  Max     0.006943517 RMS     0.002376025

 GradGradGradGradGradGradGradGradGradGradGradGradGradGradGradGradGradGrad
 Berny optimization.
 Using GEDIIS/GDIIS optimizer.
 FormGI is forming the generalized inverse of G from B-inverse, IUseBI=4.
 Internal  Forces:  Max     0.007728497 RMS     0.002661170
 Search for a local minimum.
 Step number   3 out of a maximum of   20
 All quantities printed in internal units (Hartrees-Bohrs-Radians)
 Mixed Optimization -- RFO/linear search
 Update second derivatives using D2CorX and points    1    3    2
 DE=  4.16D-04 DEPred=-4.44D-05 R=-9.36D+00
 Trust test=-9.36D+00 RLast= 1.47D-01 DXMaxT set to 1.50D-01
 The second derivative matrix:
                          R1        R2        R3        R4        A1
           R1           0.93483
           R2           0.01151   0.37125
           R3          -0.02413  -0.00385   0.05533
           R4          -0.00490   0.00179  -0.00165   0.60711
           A1          -0.04883  -0.02333   0.00133  -0.00736   0.00661
           A2          -0.01677  -0.00905   0.00058  -0.00279   0.00144
           A3          -0.00046  -0.00017   0.00000  -0.00005   0.00006
           A4           0.00136  -0.00014   0.00008  -0.00001  -0.00029
           A5          -0.01728  -0.01332   0.00047  -0.00292   0.00921
           A6           0.00027   0.00002   0.00001   0.00001  -0.00001
                          A2        A3        A4        A5        A6
           A2           0.01644
           A3           0.00003   0.00230
           A4          -0.00014  -0.00000   0.01594
           A5           0.00489   0.00018  -0.00031   0.06977
           A6          -0.00000   0.00000  -0.00000   0.00001   0.00395
 ITU= -1  1  0
 Use linear search instead of GDIIS.
     Eigenvalues ---    0.00172   0.00394   0.01439   0.01560   0.05462
     Eigenvalues ---    0.06992   0.37318   0.60721   0.93909
 RFO step:  Lambda=-8.20662230D-05 EMin= 1.71807900D-03
 Quartic linear search produced a step of -0.91057.
 Maximum step size (   0.150) exceeded in Quadratic search.
    -- Step size scaled by   0.774
 Iteration  1 RMS(Cart)=  0.08746865 RMS(Int)=  0.00575464
 Iteration  2 RMS(Cart)=  0.00654973 RMS(Int)=  0.00004953
 Iteration  3 RMS(Cart)=  0.00001780 RMS(Int)=  0.00004099
 Iteration  4 RMS(Cart)=  0.00000001 RMS(Int)=  0.00004099
 Variable       Old X    -DE/DX   Delta X   Delta X   Delta X     New X
                                 (Linear)    (Quad)   (Total)
    R1        2.19613   0.00303   0.00480   0.00525   0.01005   2.20618
    R2        2.01199   0.00084   0.00078   0.00985   0.01062   2.02261
    R3        3.47829  -0.00011   0.00507  -0.00374   0.00133   3.47962
    R4        1.76526   0.00044   0.00038   0.00188   0.00226   1.76752
    A1        3.05280   0.00086  -0.06816   0.14844   0.08027   3.13307
    A2        3.07611   0.00052  -0.00535   0.01269   0.00733   3.08344
    A3        3.14111   0.00001   0.00102  -0.00115  -0.00025   3.14086
    A4        3.14334  -0.00004  -0.00233   0.00281   0.00042   3.14375
    A5        3.01785   0.00773   0.11511  -0.01235   0.10276   3.12061
    A6        3.13521   0.00001  -0.00105   0.00139   0.00034   3.13554
         Item               Value     Threshold  Converged?
 Maximum Force            0.007728     0.000450     NO 
 RMS     Force            0.002661     0.000300     NO 
 Maximum Displacement     0.169238     0.001800     NO 
 RMS     Displacement     0.088995     0.001200     NO 
 Predicted change in Energy=-4.585206D-05
 GradGradGradGradGradGradGradGradGradGradGradGradGradGradGradGradGradGrad

                          Input orientation:                          
 ---------------------------------------------------------------------
 Center     Atomic      Atomic             Coordinates (Angstroms)
 Number     Number       Type             X           Y           Z
 ---------------------------------------------------------------------
      1          6           0       -1.898817    0.059442   -0.000144
      2          7           0       -0.732346    0.011424   -0.000003
      3          1           0       -2.967073    0.125893   -0.000540
      4          9           0        2.043034   -0.024766    0.000320
      5          1           0        1.108009   -0.048639   -0.001129
 ---------------------------------------------------------------------
                    Distance matrix (angstroms):
                    1          2          3          4          5
     1  C    0.000000
     2  N    1.167459   0.000000
     3  H    1.070320   2.237657   0.000000
     4  F    3.942750   2.775616   5.012371   0.000000
     5  H    3.008769   1.841335   4.078818   0.935330   0.000000
 Stoichiometry    CH2FN
 Framework group  C1[X(CH2FN)]
 Deg. of freedom     9
 Full point group                 C1      NOp   1
 Largest Abelian subgroup         C1      NOp   1
 Largest concise Abelian subgroup C1      NOp   1
                         Standard orientation:                         
 ---------------------------------------------------------------------
 Center     Atomic      Atomic             Coordinates (Angstroms)
 Number     Number       Type             X           Y           Z
 ---------------------------------------------------------------------
      1          6           0        1.899771    0.005192   -0.000019
      2          7           0        0.732522   -0.016948   -0.000155
      3          1           0        2.969237    0.047935    0.000495
      4          9           0       -2.042978    0.008416   -0.000040
      5          1           0       -1.108713   -0.036192    0.001064
 ---------------------------------------------------------------------
 Rotational constants (GHZ):       55862.9231811           3.6118638           3.6116304
 Standard basis: Aug-CC-pVTZ (5D, 7F)
 There are   215 symmetry adapted cartesian basis functions of A   symmetry.
 There are   184 symmetry adapted basis functions of A   symmetry.
   184 basis functions,   270 primitive gaussians,   215 cartesian basis functions
    12 alpha electrons       12 beta electrons
       nuclear repulsion energy        52.1568059045 Hartrees.
 NAtoms=    5 NActive=    5 NUniq=    5 SFac= 1.00D+00 NAtFMM=   60 NAOKFM=F Big=F
 Integral buffers will be    131072 words long.
 Raffenetti 1 integral format.
 Two-electron integral symmetry is turned on.
 One-electron integrals computed using PRISM.
 NBasis=   184 RedAO= T EigKep=  6.11D-05  NBF=   184
 NBsUse=   184 1.00D-06 EigRej= -1.00D+00 NBFU=   184
 Lowest energy guess from the checkpoint file:  "/gscratch/scrubbed/gds001/Gau-19005.chk"
 B after Tr=    -0.000000    0.000000    0.000000
         Rot=    0.999998   -0.001883   -0.000000    0.000066 Ang=  -0.22 deg.
 B after Tr=     0.000000    0.000000    0.000000
         Rot=    0.999994   -0.003459   -0.000000    0.000062 Ang=  -0.40 deg.
 Keep R1 ints in memory in canonical form, NReq=158659629.
 Requested convergence on RMS density matrix=1.00D-08 within 128 cycles.
 Requested convergence on MAX density matrix=1.00D-06.
 Requested convergence on             energy=1.00D-06.
 No special actions if energy rises.
 SCF Done:  E(RHF) =  -192.976065222     A.U. after   12 cycles
            NFock= 12  Conv=0.67D-08     -V/T= 2.0021
 ExpMin= 2.53D-02 ExpMax= 1.95D+04 ExpMxC= 6.65D+02 IAcc=3 IRadAn=         5 AccDes= 0.00D+00
 HarFok:  IExCor=  205 AccDes= 0.00D+00 IRadAn=         5 IDoV=-2 UseB2=F ITyADJ=14
 ICtDFT= 12500011 ScaDFX=  1.000000  1.000000  1.000000  1.000000
 Range of M.O.s used for correlation:     4   184
 NBasis=   184 NAE=    12 NBE=    12 NFC=     3 NFV=     0
 NROrb=    181 NOA=     9 NOB=     9 NVA=   172 NVB=   172

 **** Warning!!: The largest alpha MO coefficient is  0.41379324D+02

 Fully direct method using O(ONN) memory.
 JobTyp=1 Pass  1:  I=   4 to  12 NPSUse= 28 ParTrn=T ParDer=T DoDerP=T.
 Spin components of T(2) and E(2):
     alpha-alpha T2 =       0.2312473086D-01 E2=     -0.7976219751D-01
     alpha-beta  T2 =       0.1308779272D+00 E2=     -0.4776350373D+00
     beta-beta   T2 =       0.2312473086D-01 E2=     -0.7976219751D-01
 ANorm=    0.1084955017D+01
 E2 =    -0.6371594324D+00 EUMP2 =    -0.19361322465459D+03
          IDoAtm=11111
          Differentiating once with respect to electric field.
                with respect to dipole field.
          Differentiating once with respect to nuclear coordinates.
 Keep R1 ints in memory in canonical form, NReq=158663584.
          There are     1 degrees of freedom in the 1st order CPHF.  IDoFFX=0 NUNeed=     1.
 LinEq1:  Iter=  0 NonCon=     1 RMS=4.14D-03 Max=4.77D-02 NDo=     1
 AX will form     1 AO Fock derivatives at one time.
 LinEq1:  Iter=  1 NonCon=     1 RMS=9.12D-04 Max=1.46D-02 NDo=     1
 LinEq1:  Iter=  2 NonCon=     1 RMS=2.22D-04 Max=1.69D-03 NDo=     1
 LinEq1:  Iter=  3 NonCon=     1 RMS=1.03D-04 Max=1.45D-03 NDo=     1
 LinEq1:  Iter=  4 NonCon=     1 RMS=3.28D-05 Max=4.23D-04 NDo=     1
 LinEq1:  Iter=  5 NonCon=     1 RMS=1.64D-05 Max=2.12D-04 NDo=     1
 LinEq1:  Iter=  6 NonCon=     1 RMS=3.90D-06 Max=3.67D-05 NDo=     1
 LinEq1:  Iter=  7 NonCon=     1 RMS=5.38D-07 Max=5.75D-06 NDo=     1
 LinEq1:  Iter=  8 NonCon=     1 RMS=8.32D-08 Max=1.03D-06 NDo=     1
 LinEq1:  Iter=  9 NonCon=     1 RMS=2.31D-08 Max=3.65D-07 NDo=     1
 LinEq1:  Iter= 10 NonCon=     1 RMS=6.11D-09 Max=5.90D-08 NDo=     1
 LinEq1:  Iter= 11 NonCon=     1 RMS=7.64D-10 Max=6.38D-09 NDo=     1
 LinEq1:  Iter= 12 NonCon=     0 RMS=8.17D-11 Max=6.78D-10 NDo=     1
 Linear equations converged to 1.000D-10 1.000D-09 after    12 iterations.
 End of Minotr F.D. properties file   721 does not exist.
 End of Minotr F.D. properties file   722 does not exist.
 End of Minotr F.D. properties file   788 does not exist.
 Calling FoFJK, ICntrl=  10002127 FMM=F ISym2X=0 I1Cent= 0 IOpClX= 0 NMat=1 NMatS=1 NMatT=0.
 ***** Axes restored to original set *****
 -------------------------------------------------------------------
 Center     Atomic                   Forces (Hartrees/Bohr)
 Number     Number              X              Y              Z
 -------------------------------------------------------------------
      1        6           0.005103842    0.001048108   -0.000011921
      2        7          -0.008342208   -0.000550156   -0.000015960
      3        1           0.003375314   -0.000800460    0.000011363
      4        9          -0.000842933   -0.000538348   -0.000024075
      5        1           0.000705985    0.000840855    0.000040593
 -------------------------------------------------------------------
 Cartesian Forces:  Max     0.008342208 RMS     0.002723783

 GradGradGradGradGradGradGradGradGradGradGradGradGradGradGradGradGradGrad
 Berny optimization.
 Using GEDIIS/GDIIS optimizer.
 FormGI is forming the generalized inverse of G from B-inverse, IUseBI=4.
 Internal  Forces:  Max     0.008461794 RMS     0.002937949
 Search for a local minimum.
 Step number   4 out of a maximum of   20
 All quantities printed in internal units (Hartrees-Bohrs-Radians)
 Mixed Optimization -- RFO/linear search
 Update second derivatives using D2CorX and points    1    3    2    4
 DE= -3.22D-05 DEPred=-4.59D-05 R= 7.03D-01
 TightC=F SS=  1.41D+00  RLast= 1.58D-01 DXNew= 2.5227D-01 4.7389D-01
 Trust test= 7.03D-01 RLast= 1.58D-01 DXMaxT set to 2.52D-01
 The second derivative matrix:
                          R1        R2        R3        R4        A1
           R1           0.83099
           R2           0.06133   0.41984
           R3          -0.03040  -0.00441   0.05511
           R4          -0.00068   0.01143  -0.00195   0.60880
           A1           0.01141  -0.00375   0.00245  -0.00188   0.00389
           A2          -0.02234  -0.01964   0.00095  -0.00474  -0.00380
           A3          -0.00086  -0.00051   0.00001  -0.00012  -0.00005
           A4           0.00207   0.00042   0.00010   0.00009  -0.00007
           A5           0.04463  -0.00827   0.00250   0.00019  -0.00146
           A6           0.00078   0.00018   0.00002   0.00006  -0.00004
                          A2        A3        A4        A5        A6
           A2           0.01849
           A3           0.00010   0.00230
           A4          -0.00030  -0.00001   0.01595
           A5           0.00227   0.00017  -0.00038   0.05876
           A6          -0.00004  -0.00000  -0.00000  -0.00009   0.00395
 ITU=  1 -1  1  0
 Use linear search instead of GDIIS.
     Eigenvalues ---    0.00252   0.00395   0.01427   0.01766   0.05100
     Eigenvalues ---    0.05926   0.41155   0.60951   0.84438
 RFO step:  Lambda=-2.74320848D-04 EMin= 2.51696023D-03
 Quartic linear search produced a step of -0.22211.
 Iteration  1 RMS(Cart)=  0.14593505 RMS(Int)=  0.01306473
 Iteration  2 RMS(Cart)=  0.01778551 RMS(Int)=  0.00031824
 Iteration  3 RMS(Cart)=  0.00011845 RMS(Int)=  0.00028453
 Iteration  4 RMS(Cart)=  0.00000009 RMS(Int)=  0.00028453
 Variable       Old X    -DE/DX   Delta X   Delta X   Delta X     New X
                                 (Linear)    (Quad)   (Total)
    R1        2.20618  -0.00846  -0.00106  -0.01241  -0.01347   2.19271
    R2        2.02261  -0.00342  -0.00217   0.00157  -0.00060   2.02201
    R3        3.47962  -0.00015   0.00094  -0.02269  -0.02175   3.45787
    R4        1.76752  -0.00086  -0.00041   0.00009  -0.00032   1.76720
    A1        3.13307  -0.00012  -0.03446   0.23272   0.19826   3.33133
    A2        3.08344   0.00091  -0.00293   0.07421   0.07128   3.15472
    A3        3.14086   0.00002   0.00030  -0.00125  -0.00179   3.13907
    A4        3.14375  -0.00004  -0.00066   0.00343   0.00247   3.14623
    A5        3.12061   0.00119   0.00525   0.02705   0.03230   3.15291
    A6        3.13554   0.00000  -0.00033   0.00726   0.00699   3.14253
         Item               Value     Threshold  Converged?
 Maximum Force            0.008462     0.000450     NO 
 RMS     Force            0.002938     0.000300     NO 
 Maximum Displacement     0.316608     0.001800     NO 
 RMS     Displacement     0.141301     0.001200     NO 
 Predicted change in Energy=-6.308236D-05
 GradGradGradGradGradGradGradGradGradGradGradGradGradGradGradGradGradGrad

                          Input orientation:                          
 ---------------------------------------------------------------------
 Center     Atomic      Atomic             Coordinates (Angstroms)
 Number     Number       Type             X           Y           Z
 ---------------------------------------------------------------------
      1          6           0       -1.883206    0.083485   -0.000020
      2          7           0       -0.726811    0.178966    0.000958
      3          1           0       -2.950509    0.007515   -0.000988
      4          9           0        2.020856   -0.129506    0.000649
      5          1           0        1.092477   -0.017105   -0.002096
 ---------------------------------------------------------------------
                    Distance matrix (angstroms):
                    1          2          3          4          5
     1  C    0.000000
     2  N    1.160331   0.000000
     3  H    1.070004   2.230299   0.000000
     4  F    3.909868   2.764928   4.973253   0.000000
     5  H    2.977383   1.829825   4.043061   0.935163   0.000000
 Stoichiometry    CH2FN
 Framework group  C1[X(CH2FN)]
 Deg. of freedom     9
 Full point group                 C1      NOp   1
 Largest Abelian subgroup         C1      NOp   1
 Largest concise Abelian subgroup C1      NOp   1
                         Standard orientation:                         
 ---------------------------------------------------------------------
 Center     Atomic      Atomic             Coordinates (Angstroms)
 Number     Number       Type             X           Y           Z
 ---------------------------------------------------------------------
      1          6           0        1.881031   -0.052324   -0.000037
      2          7           0        0.732338    0.111605   -0.000130
      3          1           0        2.941946   -0.191492    0.000171
      4          9           0       -2.028791   -0.033290   -0.000195
      5          1           0       -1.095378    0.023814    0.002714
 ---------------------------------------------------------------------
 Rotational constants (GHZ):        1926.8477081           3.6678602           3.6608919
 Standard basis: Aug-CC-pVTZ (5D, 7F)
 There are   215 symmetry adapted cartesian basis functions of A   symmetry.
 There are   184 symmetry adapted basis functions of A   symmetry.
   184 basis functions,   270 primitive gaussians,   215 cartesian basis functions
    12 alpha electrons       12 beta electrons
       nuclear repulsion energy        52.4207943161 Hartrees.
 NAtoms=    5 NActive=    5 NUniq=    5 SFac= 1.00D+00 NAtFMM=   60 NAOKFM=F Big=F
 Integral buffers will be    131072 words long.
 Raffenetti 1 integral format.
 Two-electron integral symmetry is turned on.
 One-electron integrals computed using PRISM.
 NBasis=   184 RedAO= T EigKep=  6.05D-05  NBF=   184
 NBsUse=   184 1.00D-06 EigRej= -1.00D+00 NBFU=   184
 Initial guess from the checkpoint file:  "/gscratch/scrubbed/gds001/Gau-19005.chk"
 B after Tr=     0.000000    0.000000    0.000000
         Rot=   -0.001498    0.999999   -0.000057   -0.000000 Ang= 180.17 deg.
 ExpMin= 2.53D-02 ExpMax= 1.95D+04 ExpMxC= 6.65D+02 IAcc=3 IRadAn=         5 AccDes= 0.00D+00
 Harris functional with IExCor=  205 and IRadAn=       5 diagonalized for initial guess.
 HarFok:  IExCor=  205 AccDes= 0.00D+00 IRadAn=         5 IDoV= 1 UseB2=F ITyADJ=14
 ICtDFT=  3500011 ScaDFX=  1.000000  1.000000  1.000000  1.000000
 FoFCou: FMM=F IPFlag=           0 FMFlag=      100000 FMFlg1=           0
         NFxFlg=           0 DoJE=T BraDBF=F KetDBF=T FulRan=T
         wScrn=  0.000000 ICntrl=       500 IOpCl=  0 I1Cent=   200000004 NGrid=           0
         NMat0=    1 NMatS0=      1 NMatT0=    0 NMatD0=    1 NMtDS0=    0 NMtDT0=    0
 Petite list used in FoFCou.
 Keep R1 ints in memory in canonical form, NReq=158660178.
 Requested convergence on RMS density matrix=1.00D-08 within 128 cycles.
 Requested convergence on MAX density matrix=1.00D-06.
 Requested convergence on             energy=1.00D-06.
 No special actions if energy rises.
 SCF Done:  E(RHF) =  -192.977367408     A.U. after   13 cycles
            NFock= 13  Conv=0.40D-08     -V/T= 2.0019
 ExpMin= 2.53D-02 ExpMax= 1.95D+04 ExpMxC= 6.65D+02 IAcc=3 IRadAn=         5 AccDes= 0.00D+00
 HarFok:  IExCor=  205 AccDes= 0.00D+00 IRadAn=         5 IDoV=-2 UseB2=F ITyADJ=14
 ICtDFT= 12500011 ScaDFX=  1.000000  1.000000  1.000000  1.000000
 Range of M.O.s used for correlation:     4   184
 NBasis=   184 NAE=    12 NBE=    12 NFC=     3 NFV=     0
 NROrb=    181 NOA=     9 NOB=     9 NVA=   172 NVB=   172

 **** Warning!!: The largest alpha MO coefficient is  0.38107285D+02

 Fully direct method using O(ONN) memory.
 JobTyp=1 Pass  1:  I=   4 to  12 NPSUse= 28 ParTrn=T ParDer=T DoDerP=T.
 Spin components of T(2) and E(2):
     alpha-alpha T2 =       0.2292167521D-01 E2=     -0.7956750379D-01
     alpha-beta  T2 =       0.1298101256D+00 E2=     -0.4766208630D+00
     beta-beta   T2 =       0.2292167521D-01 E2=     -0.7956750379D-01
 ANorm=    0.1084275554D+01
 E2 =    -0.6357558706D+00 EUMP2 =    -0.19361312327882D+03
          IDoAtm=11111
          Differentiating once with respect to electric field.
                with respect to dipole field.
          Differentiating once with respect to nuclear coordinates.
 Keep R1 ints in memory in canonical form, NReq=158664156.
          There are     1 degrees of freedom in the 1st order CPHF.  IDoFFX=0 NUNeed=     1.
 LinEq1:  Iter=  0 NonCon=     1 RMS=4.09D-03 Max=4.65D-02 NDo=     1
 AX will form     1 AO Fock derivatives at one time.
 LinEq1:  Iter=  1 NonCon=     1 RMS=8.99D-04 Max=1.32D-02 NDo=     1
 LinEq1:  Iter=  2 NonCon=     1 RMS=2.19D-04 Max=1.58D-03 NDo=     1
 LinEq1:  Iter=  3 NonCon=     1 RMS=9.81D-05 Max=1.37D-03 NDo=     1
 LinEq1:  Iter=  4 NonCon=     1 RMS=3.05D-05 Max=3.48D-04 NDo=     1
 LinEq1:  Iter=  5 NonCon=     1 RMS=1.52D-05 Max=2.35D-04 NDo=     1
 LinEq1:  Iter=  6 NonCon=     1 RMS=4.08D-06 Max=4.04D-05 NDo=     1
 LinEq1:  Iter=  7 NonCon=     1 RMS=9.26D-07 Max=1.54D-05 NDo=     1
 LinEq1:  Iter=  8 NonCon=     1 RMS=2.41D-07 Max=3.78D-06 NDo=     1
 LinEq1:  Iter=  9 NonCon=     1 RMS=3.56D-08 Max=2.85D-07 NDo=     1
 LinEq1:  Iter= 10 NonCon=     1 RMS=7.02D-09 Max=7.23D-08 NDo=     1
 LinEq1:  Iter= 11 NonCon=     1 RMS=1.08D-09 Max=1.48D-08 NDo=     1
 LinEq1:  Iter= 12 NonCon=     1 RMS=2.23D-10 Max=3.12D-09 NDo=     1
 LinEq1:  Iter= 13 NonCon=     0 RMS=3.74D-11 Max=3.50D-10 NDo=     1
 Linear equations converged to 1.000D-10 1.000D-09 after    13 iterations.
 End of Minotr F.D. properties file   721 does not exist.
 End of Minotr F.D. properties file   722 does not exist.
 End of Minotr F.D. properties file   788 does not exist.
 Calling FoFJK, ICntrl=  10002127 FMM=F ISym2X=0 I1Cent= 0 IOpClX= 0 NMat=1 NMatS=1 NMatT=0.
 ***** Axes restored to original set *****
 -------------------------------------------------------------------
 Center     Atomic                   Forces (Hartrees/Bohr)
 Number     Number              X              Y              Z
 -------------------------------------------------------------------
      1        6          -0.009982034    0.000197937   -0.000005181
      2        7           0.006353753   -0.000968486   -0.000045433
      3        1           0.003375461    0.000130182    0.000011843
      4        9          -0.000265255   -0.000314547   -0.000052246
      5        1           0.000518075    0.000954914    0.000091017
 -------------------------------------------------------------------
 Cartesian Forces:  Max     0.009982034 RMS     0.003201685

 GradGradGradGradGradGradGradGradGradGradGradGradGradGradGradGradGradGrad
 Berny optimization.
 Using GEDIIS/GDIIS optimizer.
 FormGI is forming the generalized inverse of G from B-inverse, IUseBI=4.
 Internal  Forces:  Max     0.006421071 RMS     0.002356785
 Search for a local minimum.
 Step number   5 out of a maximum of   20
 All quantities printed in internal units (Hartrees-Bohrs-Radians)
 Mixed Optimization -- RFO/linear search
 Update second derivatives using D2CorX and points    1    3    2    5    4
 DE=  1.01D-04 DEPred=-6.31D-05 R=-1.61D+00
 Trust test=-1.61D+00 RLast= 2.15D-01 DXMaxT set to 1.26D-01
 The second derivative matrix:
                          R1        R2        R3        R4        A1
           R1           1.23305
           R2          -0.03820   0.36975
           R3          -0.02734  -0.00268   0.05408
           R4          -0.00070  -0.00298  -0.00078   0.60552
           A1           0.00320   0.00193   0.00187  -0.00092   0.00394
           A2           0.01338  -0.01359   0.00278  -0.00335  -0.00445
           A3           0.00042  -0.00042   0.00003  -0.00007  -0.00008
           A4          -0.00131  -0.00009   0.00008  -0.00015   0.00005
           A5          -0.01481   0.00819   0.00143   0.00090  -0.00028
           A6           0.00077   0.00014   0.00004   0.00004  -0.00003
                          A2        A3        A4        A5        A6
           A2           0.01430
           A3           0.00007   0.00230
           A4          -0.00025  -0.00001   0.01595
           A5          -0.00220  -0.00000   0.00013   0.06753
           A6          -0.00008  -0.00000  -0.00000  -0.00007   0.00395
 ITU= -1  1 -1  1  0
 Use linear search instead of GDIIS.
     Eigenvalues ---    0.00230   0.00395   0.01511   0.01602   0.05086
     Eigenvalues ---    0.05362   0.36685   0.60392   1.22890
 RFO step:  Lambda=-1.18637630D-04 EMin= 2.30249502D-03
 Quartic linear search produced a step of -0.79431.
 Iteration  1 RMS(Cart)=  0.09405546 RMS(Int)=  0.01066793
 Iteration  2 RMS(Cart)=  0.00776098 RMS(Int)=  0.00301364
 Iteration  3 RMS(Cart)=  0.00393779 RMS(Int)=  0.00165536
 Iteration  4 RMS(Cart)=  0.00015770 RMS(Int)=  0.00163670
 Iteration  5 RMS(Cart)=  0.00000153 RMS(Int)=  0.00163670
 Iteration  6 RMS(Cart)=  0.00000006 RMS(Int)=  0.00163670
 Variable       Old X    -DE/DX   Delta X   Delta X   Delta X     New X
                                 (Linear)    (Quad)   (Total)
    R1        2.19271   0.00642   0.01070  -0.00525   0.00545   2.19815
    R2        2.02201  -0.00345   0.00047  -0.00794  -0.00746   2.01455
    R3        3.45787   0.00004   0.01728  -0.00716   0.01012   3.46799
    R4        1.76720  -0.00030   0.00025  -0.00105  -0.00080   1.76640
    A1        3.33133  -0.00049  -0.15748  -0.01921  -0.17668   3.15465
    A2        3.15472   0.00108  -0.05662   0.05603  -0.00072   3.15400
    A3        3.13907   0.00004   0.00142   0.00674   0.00346   3.14253
    A4        3.14623  -0.00009  -0.00196  -0.00324  -0.00736   3.13886
    A5        3.15291  -0.00094  -0.02566   0.00812  -0.01754   3.13537
    A6        3.14253  -0.00000  -0.00555  -0.00238  -0.00789   3.13465
         Item               Value     Threshold  Converged?
 Maximum Force            0.006421     0.000450     NO 
 RMS     Force            0.002357     0.000300     NO 
 Maximum Displacement     0.251387     0.001800     NO 
 RMS     Displacement     0.102479     0.001200     NO 
 Predicted change in Energy=-3.711040D-05
 GradGradGradGradGradGradGradGradGradGradGradGradGradGradGradGradGradGrad

                          Input orientation:                          
 ---------------------------------------------------------------------
 Center     Atomic      Atomic             Coordinates (Angstroms)
 Number     Number       Type             X           Y           Z
 ---------------------------------------------------------------------
      1          6           0       -1.894320    0.072797   -0.000519
      2          7           0       -0.731417    0.045937   -0.000651
      3          1           0       -2.960222    0.090782   -0.000257
      4          9           0        2.036202   -0.065768   -0.000925
      5          1           0        1.102564   -0.020393    0.000855
 ---------------------------------------------------------------------
                    Distance matrix (angstroms):
                    1          2          3          4          5
     1  C    0.000000
     2  N    1.163213   0.000000
     3  H    1.066054   2.229256   0.000000
     4  F    3.932963   2.769872   4.998876   0.000000
     5  H    2.998333   1.835181   4.064307   0.934741   0.000000
 Stoichiometry    CH2FN
 Framework group  C1[X(CH2FN)]
 Deg. of freedom     9
 Full point group                 C1      NOp   1
 Largest Abelian subgroup         C1      NOp   1
 Largest concise Abelian subgroup C1      NOp   1
                         Standard orientation:                         
 ---------------------------------------------------------------------
 Center     Atomic      Atomic             Coordinates (Angstroms)
 Number     Number       Type             X           Y           Z
 ---------------------------------------------------------------------
      1          6           0        1.894624   -0.003840    0.000010
      2          7           0        0.731498    0.010297    0.000136
      3          1           0        2.960499   -0.023428   -0.000289
      4          9           0       -2.038339   -0.003807    0.000090
      5          1           0       -1.103682    0.008649   -0.001533
 ---------------------------------------------------------------------
 Rotational constants (GHZ):      201223.2814921           3.6294335           3.6293682
 Standard basis: Aug-CC-pVTZ (5D, 7F)
 There are   215 symmetry adapted cartesian basis functions of A   symmetry.
 There are   184 symmetry adapted basis functions of A   symmetry.
   184 basis functions,   270 primitive gaussians,   215 cartesian basis functions
    12 alpha electrons       12 beta electrons
       nuclear repulsion energy        52.3040121848 Hartrees.
 NAtoms=    5 NActive=    5 NUniq=    5 SFac= 1.00D+00 NAtFMM=   60 NAOKFM=F Big=F
 Integral buffers will be    131072 words long.
 Raffenetti 1 integral format.
 Two-electron integral symmetry is turned on.
 One-electron integrals computed using PRISM.
 NBasis=   184 RedAO= T EigKep=  6.00D-05  NBF=   184
 NBsUse=   184 1.00D-06 EigRej= -1.00D+00 NBFU=   184
 Lowest energy guess from the checkpoint file:  "/gscratch/scrubbed/gds001/Gau-19005.chk"
 B after Tr=    -0.000000    0.000000    0.000000
         Rot=   -0.007234    0.999974   -0.000003    0.000000 Ang= 180.83 deg.
 B after Tr=    -0.000000    0.000000    0.000000
         Rot=    0.999997   -0.002565    0.000000   -0.000044 Ang=  -0.29 deg.
 Keep R1 ints in memory in canonical form, NReq=158659831.
 Requested convergence on RMS density matrix=1.00D-08 within 128 cycles.
 Requested convergence on MAX density matrix=1.00D-06.
 Requested convergence on             energy=1.00D-06.
 No special actions if energy rises.
 SCF Done:  E(RHF) =  -192.977073259     A.U. after   11 cycles
            NFock= 11  Conv=0.63D-08     -V/T= 2.0020
 ExpMin= 2.53D-02 ExpMax= 1.95D+04 ExpMxC= 6.65D+02 IAcc=3 IRadAn=         5 AccDes= 0.00D+00
 HarFok:  IExCor=  205 AccDes= 0.00D+00 IRadAn=         5 IDoV=-2 UseB2=F ITyADJ=14
 ICtDFT= 12500011 ScaDFX=  1.000000  1.000000  1.000000  1.000000
 Range of M.O.s used for correlation:     4   184
 NBasis=   184 NAE=    12 NBE=    12 NFC=     3 NFV=     0
 NROrb=    181 NOA=     9 NOB=     9 NVA=   172 NVB=   172

 **** Warning!!: The largest alpha MO coefficient is  0.42372226D+02

 Fully direct method using O(ONN) memory.
 JobTyp=1 Pass  1:  I=   4 to  12 NPSUse= 28 ParTrn=T ParDer=T DoDerP=T.
 Spin components of T(2) and E(2):
     alpha-alpha T2 =       0.2299312496D-01 E2=     -0.7963373285D-01
     alpha-beta  T2 =       0.1301661150D+00 E2=     -0.4769700575D+00
     beta-beta   T2 =       0.2299312496D-01 E2=     -0.7963373285D-01
 ANorm=    0.1084505585D+01
 E2 =    -0.6362375232D+00 EUMP2 =    -0.19361331078267D+03
          IDoAtm=11111
          Differentiating once with respect to electric field.
                with respect to dipole field.
          Differentiating once with respect to nuclear coordinates.
 Keep R1 ints in memory in canonical form, NReq=158663892.
          There are     1 degrees of freedom in the 1st order CPHF.  IDoFFX=0 NUNeed=     1.
 LinEq1:  Iter=  0 NonCon=     1 RMS=4.11D-03 Max=4.43D-02 NDo=     1
 AX will form     1 AO Fock derivatives at one time.
 LinEq1:  Iter=  1 NonCon=     1 RMS=9.02D-04 Max=1.47D-02 NDo=     1
 LinEq1:  Iter=  2 NonCon=     1 RMS=2.20D-04 Max=1.68D-03 NDo=     1
 LinEq1:  Iter=  3 NonCon=     1 RMS=9.87D-05 Max=1.33D-03 NDo=     1
 LinEq1:  Iter=  4 NonCon=     1 RMS=3.09D-05 Max=3.98D-04 NDo=     1
 LinEq1:  Iter=  5 NonCon=     1 RMS=1.54D-05 Max=2.02D-04 NDo=     1
 LinEq1:  Iter=  6 NonCon=     1 RMS=3.80D-06 Max=3.49D-05 NDo=     1
 LinEq1:  Iter=  7 NonCon=     1 RMS=5.21D-07 Max=4.05D-06 NDo=     1
 LinEq1:  Iter=  8 NonCon=     1 RMS=6.68D-08 Max=7.00D-07 NDo=     1
 LinEq1:  Iter=  9 NonCon=     1 RMS=1.08D-08 Max=9.88D-08 NDo=     1
 LinEq1:  Iter= 10 NonCon=     1 RMS=1.54D-09 Max=1.36D-08 NDo=     1
 LinEq1:  Iter= 11 NonCon=     1 RMS=3.18D-10 Max=4.96D-09 NDo=     1
 LinEq1:  Iter= 12 NonCon=     0 RMS=6.33D-11 Max=6.55D-10 NDo=     1
 Linear equations converged to 1.000D-10 1.000D-09 after    12 iterations.
 End of Minotr F.D. properties file   721 does not exist.
 End of Minotr F.D. properties file   722 does not exist.
 End of Minotr F.D. properties file   788 does not exist.
 Calling FoFJK, ICntrl=  10002127 FMM=F ISym2X=0 I1Cent= 0 IOpClX= 0 NMat=1 NMatS=1 NMatT=0.
 ***** Axes restored to original set *****
 -------------------------------------------------------------------
 Center     Atomic                   Forces (Hartrees/Bohr)
 Number     Number              X              Y              Z
 -------------------------------------------------------------------
      1        6          -0.000448493   -0.000328981    0.000004586
      2        7           0.000145509    0.000156260    0.000023850
      3        1           0.000308212    0.000190432   -0.000007491
      4        9           0.000039847    0.000079937    0.000028956
      5        1          -0.000045075   -0.000097648   -0.000049901
 -------------------------------------------------------------------
 Cartesian Forces:  Max     0.000448493 RMS     0.000184344

 GradGradGradGradGradGradGradGradGradGradGradGradGradGradGradGradGradGrad
 Berny optimization.
 Using GEDIIS/GDIIS optimizer.
 FormGI is forming the generalized inverse of G from B-inverse, IUseBI=4.
 Internal  Forces:  Max     0.000394144 RMS     0.000172977
 Search for a local minimum.
 Step number   6 out of a maximum of   20
 All quantities printed in internal units (Hartrees-Bohrs-Radians)
 Mixed Optimization -- En-DIIS/RFO-DIIS
 Update second derivatives using D2CorX and points    1    3    2    5    4
                                                      6
 DE= -8.61D-05 DEPred=-3.71D-05 R= 2.32D+00
 TightC=F SS=  1.41D+00  RLast= 7.72D-02 DXNew= 2.1213D-01 2.3152D-01
 Trust test= 2.32D+00 RLast= 7.72D-02 DXMaxT set to 2.12D-01
 The second derivative matrix:
                          R1        R2        R3        R4        A1
           R1           1.19038
           R2          -0.08660   0.34832
           R3          -0.01834  -0.00455   0.05413
           R4          -0.01701  -0.00540  -0.00067   0.60470
           A1          -0.00521  -0.00793   0.00192  -0.00289   0.00230
           A2           0.00515  -0.01494   0.00345  -0.00530  -0.00258
           A3           0.00054  -0.00144   0.00005  -0.00029  -0.00008
           A4          -0.00195  -0.00041   0.00004  -0.00009  -0.00019
           A5          -0.01607   0.01119   0.00122   0.00200   0.00027
           A6           0.00042  -0.00067   0.00005  -0.00012  -0.00010
                          A2        A3        A4        A5        A6
           A2           0.01596
           A3           0.00040   0.00232
           A4          -0.00052  -0.00005   0.01598
           A5          -0.00414  -0.00018   0.00050   0.07214
           A6           0.00008  -0.00000  -0.00002  -0.00009   0.00394
 ITU=  1 -1  1 -1  1  0
 Use linear search instead of GDIIS.
     Eigenvalues ---    0.00132   0.00395   0.01397   0.01562   0.05397
     Eigenvalues ---    0.07182   0.34067   0.60449   1.20024
 RFO step:  Lambda=-1.37412023D-05 EMin= 1.31968824D-03
 Quartic linear search produced a step of -0.02792.
 Iteration  1 RMS(Cart)=  0.05809349 RMS(Int)=  0.00290548
 Iteration  2 RMS(Cart)=  0.00315510 RMS(Int)=  0.00023093
 Iteration  3 RMS(Cart)=  0.00000621 RMS(Int)=  0.00021247
 Iteration  4 RMS(Cart)=  0.00000006 RMS(Int)=  0.00021247
 Variable       Old X    -DE/DX   Delta X   Delta X   Delta X     New X
                                 (Linear)    (Quad)   (Total)
    R1        2.19815   0.00014   0.00022  -0.00054  -0.00032   2.19784
    R2        2.01455  -0.00030   0.00023  -0.00433  -0.00411   2.01044
    R3        3.46799  -0.00000   0.00032   0.00367   0.00399   3.47198
    R4        1.76640   0.00004   0.00003  -0.00066  -0.00063   1.76578
    A1        3.15465  -0.00008  -0.00060  -0.08354  -0.08414   3.07051
    A2        3.15400  -0.00014  -0.00197  -0.02417  -0.02614   3.12786
    A3        3.14253  -0.00002  -0.00005  -0.00059  -0.00001   3.14252
    A4        3.13886   0.00005   0.00014   0.00144   0.00182   3.14068
    A5        3.13537   0.00039  -0.00041   0.00519   0.00478   3.14015
    A6        3.13465   0.00000   0.00003  -0.00230  -0.00226   3.13239
         Item               Value     Threshold  Converged?
 Maximum Force            0.000394     0.000450     YES
 RMS     Force            0.000173     0.000300     YES
 Maximum Displacement     0.135038     0.001800     NO 
 RMS     Displacement     0.059491     0.001200     NO 
 Predicted change in Energy=-6.960000D-06
 GradGradGradGradGradGradGradGradGradGradGradGradGradGradGradGradGradGrad

                          Input orientation:                          
 ---------------------------------------------------------------------
 Center     Atomic      Atomic             Coordinates (Angstroms)
 Number     Number       Type             X           Y           Z
 ---------------------------------------------------------------------
      1          6           0       -1.894953    0.061016   -0.000236
      2          7           0       -0.735132   -0.025522   -0.000766
      3          1           0       -2.955768    0.141710   -0.000275
      4          9           0        2.036509   -0.022095   -0.000317
      5          1           0        1.102151   -0.031754    0.000096
 ---------------------------------------------------------------------
                    Distance matrix (angstroms):
                    1          2          3          4          5
     1  C    0.000000
     2  N    1.163044   0.000000
     3  H    1.063880   2.226924   0.000000
     4  F    3.932340   2.771644   4.994964   0.000000
     5  H    2.998539   1.837294   4.061625   0.934408   0.000000
 Stoichiometry    CH2FN
 Framework group  C1[X(CH2FN)]
 Deg. of freedom     9
 Full point group                 C1      NOp   1
 Largest Abelian subgroup         C1      NOp   1
 Largest concise Abelian subgroup C1      NOp   1
                         Standard orientation:                         
[...]
 0211866,-0.00016099,-0.07731666,0.00290973,0.00002470,0.06493290,-0.00
 244502,-0.00002919,0.00056275,0.00585734,0.16477052,-0.00002620,0.0004
 2968,0.01215142,-0.00053620,0.00739087,-0.00050240,-0.00625602,-0.0010
 9024,0.00002417,-0.00045797,-0.00629625,0.00047834,0.20826281,-0.00788
 216,-0.00006149,-0.03097111,0.00115535,0.00000360,-0.17718367,0.006723
 56,0.00005772,-0.00000238,0.00000259,0.00005085,0.00000133,-0.00000646
 ,-0.00006205,0.00000013,-0.00000522,-0.00015415,-0.00004559,0.00003435
 ,-0.00000203,0.00000211,-0.00003075,0.00000230,-0.00000776,-0.00000286
 ,0.,0.00000921,-0.00099587,0.00004621,0.00100433,-0.00004216,-0.000000
 72,-0.00086928,0.00004140,0.00000119,-0.00007873,-0.00000076,-0.000000
 39,-0.02372523,0.00055489,0.00000358,0.00000369,0.00001445,0.00047579,
 -0.00000279,0.00001972,0.00029439,-0.00000048,0.00000084,0.00004611,0.
 00004651,0.00099513,0.02366890,-0.00004694,-0.00008338,0.00000287,-0.0
 0001563,0.00009648,-0.00000401,0.00000102,0.00001208,-0.00000011,-0.00
 000596,0.00100496,-0.00004649,-0.00055337,-0.00103014,0.00004775,-0.00
 253138,0.00009601,0.00000054,0.00278555,-0.00010268,-0.00000030,0.0003
 4045,-0.00000881,0.00000056,0.02389058,-0.00055846,-0.00000366,-0.0244
 8519,0.00057394,0.00000286,-0.01007286,-0.13226595,0.01007285,0.004688
 74,-0.00015860,0.00000505,-0.00416107,-0.03345387,0.00118319,0.0048562
 2,-0.07493823,0.00408584,-0.00002889,0.06251791,-0.00471985,0.00264809
 ,-0.00009239,0.00000106,-0.00221076,0.00006969,-0.00000536,0.01424858,
 0.16520469,-0.00585372,-0.00072267,0.01218665,-0.00042905,-0.01352536,
 0.20872129,-0.01419530,0.00018697,-0.03095999,0.00069821,0.00002224,-0
 .17765422,0.01350188,-0.00739058,0.00025268,-0.00000260,0.00109466,-0.
 00004294,0.00000105,0.00629210,-0.00020961,0.00000009,-0.00001460,0.00
 006232,-0.00000227,-0.00000365,-0.00009020,0.00000331,-0.00000253,-0.0
 0015186,0.00000535,-0.00106139,0.00099519,-0.00004528,-0.00000069,-0.0
 0088093,0.00004544,0.00000100,-0.00008062,0.00000529,-0.00000047,-0.02
 269538,0.00106359,-0.00003511,0.00000187,-0.00000430,0.00003115,-0.000
 00192,0.00001018,0.00000284,0.00000009,-0.00000349,0.00080170,-0.00001
 687,0.00000126,-0.00000005,0.00045282,-0.00001594,0.00003116,0.0003238
 6,-0.00001159,0.00000198,0.00004478,-0.00000153,0.00108217,0.02266175,
 -0.00080058,-0.00111527,-0.00251230,0.00008189,0.00000121,0.00277688,-
 0.00010965,-0.00000054,0.00034350,-0.00001008,0.00000035,0.02287513,-0
 .00106904,0.00001683,-0.02348320,0.00110688,0.00008886,-0.00000355,0.0
 0000079,-0.00009824,0.00000406,-0.00000693,-0.00001218,0.00000031,0.00
 000494,-0.00080809,0.00001703,-0.00000365,0.00082965,-0.00001785,0.000
 00485,1.70064969,-0.07028070,-0.16582762,-0.00038241,0.00001439,-0.168
 47031,-1.52628957,0.06344312,0.00035421,1.51735655,0.06342319,0.159002
 29,-0.00001329,-0.06355121,-0.16746771,0.00035446,-0.00001331,0.161386
 28,-0.00036088,0.00001350,-0.16985978,-0.17406895,0.00679009,0.0000298
 5,0.00015544,0.00042610,0.00000220,0.17400907,0.00680078,0.00530257,-0
 .00000114,0.00040838,0.01106808,-0.00000008,-0.00720259,-0.01604184,0.
 00002867,-0.00000109,0.00555974,0.00000272,-0.00000010,0.01108398,-0.0
 0003174,0.00000120,-0.01631444,0.00098253,-0.00002794,0.00000138,0.003
 13746,-0.00008238,-0.00000006,0.00018947,-0.00001074,-0.00000045,-0.01
 328630,-0.00005485,-0.00089980,-0.00000003,-0.00006747,0.00039837,0.,0
 .00000758,0.00023130,0.00000001,0.00038486,0.00236209,0.00000052,-0.00
 000001,-0.00090081,0.00000009,0.,0.00039633,0.00000008,0.,0.00023131,-
 0.00000302,0.00000007,0.00237154,-0.00127369,0.00007543,-0.00000303,0.
 00564012,-0.00021569,0.00000427,-0.00028504,0.00000417,0.00000080,0.00
 897683,-0.00027012,0.00000233,-0.01305822,0.00011158,0.00242255,0.0000
 0008,-0.00023282,-0.00300104,-0.00000011,-0.00002117,-0.00056012,-0.00
 000002,-0.00026379,-0.00209196,-0.00000005,0.00040621,0.00323057,-0.00
 000124,0.00000003,0.00242511,0.00000386,-0.00000010,-0.00300680,-0.000
 00038,0.00000002,-0.00056058,0.00000214,-0.00000005,-0.00209837,-0.000
 00438,0.00000011,0.00324065,0.72385188,-0.03163115,-0.10129692,-0.0001
 0652,0.00000411,-0.10250754,0.54051441,-0.02327879,-0.00013277,-0.5452
 3730,-0.02327199,-0.07900438,0.00000496,0.02315709,0.07065044,-0.00012
 879,0.00000483,-0.07987729,0.00013055,-0.00000489,0.07151949,-1.263664
 01,0.05489654,0.00023835,0.00573457,0.00006911,-0.00000041,1.25774542,
 0.05491385,0.18112653,-0.00000905,0.00005330,0.00725236,0.00000002,-0.
 05496983,-0.18876891,0.00023630,-0.00000897,0.18320999,0.00000235,-0.0
 0000008,0.00725467,-0.00023819,0.00000904,-0.19085474,-0.00005171,-0.0
 0000990,-0.00000083,0.00040896,-0.00000039,0.00000097,0.00049394,-0.00
 001622,0.00000027,0.03806362,-0.00001677,0.00022428,0.00000002,-0.0000
 2278,-0.00020389,-0.00000003,0.00000024,-0.00020689,0.,-0.00102430,-0.
 00537385,0.00000061,-0.00000003,0.00022314,-0.00000010,0.,-0.00020409,
 -0.00000049,0.00000002,-0.00020660,-0.00000294,0.00000007,-0.00539802,
 -0.00065057,0.00002331,0.00000176,-0.00142063,0.00004619,-0.00000231,-
 0.00030992,0.00001890,-0.00000073,-0.03891482,0.00106362,0.00000292,0.
 04129594,0.00000607,-0.00104952,-0.00000004,0.00009118,0.00130546,0.00
 000006,0.00000394,0.00059690,0.00000002,0.00105082,0.00556034,-0.00000
 007,-0.00115202,-0.00641319,-0.00000160,0.00000006,-0.00104830,-0.0000
 0003,0.,0.00130722,0.00000073,-0.00000003,0.00059668,0.00000252,-0.000
 00005,0.00558557,-0.00000163,0.00000002,-0.00644117,-0.00088623,-0.000
 17697,-0.00344885,-0.00001118,0.00000046,-0.00345915,-0.01028862,0.000
 74664,0.00001245,-0.00064727,0.00086890,0.00749221,-0.00000054,-0.0007
 0698,-0.01585185,0.00002188,-0.00000087,0.00752829,-0.00001241,0.00000
 064,-0.01588471,0.02049012,-0.00090415,-0.00000384,0.00023799,0.000028
 15,0.00000021,-0.02123517,-0.00089676,-0.00353843,0.00000014,0.0000109
 5,0.00118950,-0.00000001,0.00092623,0.00317481,-0.00000182,0.00000006,
 -0.00357193,-0.00000288,0.00000010,0.00118966,0.00000373,-0.00000014,0
 .00320978,0.00778497,-0.00027209,-0.00000026,0.02877362,-0.00080077,0.
 00001289,-0.00044517,0.00000532,-0.00000080,2.17708418,-0.00018838,0.0
 0009798,0.00000001,-0.00073968,-0.00190569,-0.00000031,0.00002855,0.00
 010188,0.00000001,-0.05831296,-0.30820009,0.00000009,0.,0.00009111,-0.
 00000122,0.00000004,-0.00192488,0.00000010,0.,0.00010261,-0.00020632,0
 .00000484,-0.30956761,-0.01710024,0.00060657,0.00000284,-0.01807572,0.
 00061069,-0.00002257,0.00095224,-0.00004575,0.00000176,-2.21319760,0.0
 5921248,0.00020735,2.24742132,0.00039320,-0.00060292,-0.00000007,0.000
 68908,0.00907584,0.00000055,-0.00007878,-0.00092776,-0.00000004,0.0593
 8049,0.30990592,-0.00000488,-0.06038399,-0.31745108,-0.00000897,0.0000
 0035,-0.00058832,0.00000406,-0.00000024,0.00909164,-0.00000020,0.00000
 002,-0.00093013,0.00019449,-0.00000456,0.31129876,-0.00018938,0.000004
 44,-0.31887196,-0.31440758,0.01536703,0.08860728,0.00013404,0.00197719
 ,0.02554576,0.24584452,-0.01204173,-0.00010149,-0.24672804,-0.01189695
 ,-0.06677606,-0.00145216,0.01206342,0.06781946,-0.00010364,-0.00145138
 ,-0.02040800,0.00009896,0.00144324,0.02171228,0.06882931,-0.00333022,-
 0.00003264,0.00000525,-0.00015256,-0.00000250,-0.06889761,-0.00347328,
 -0.02137154,-0.00051805,-0.00001742,-0.00165403,0.00000112,0.00349159,
 0.02304737,-0.00003079,-0.00051511,-0.00493684,-0.00000347,-0.00000027
 ,-0.00165881,0.00003466,0.00051723,0.00657326,0.00053340,-0.00002896,-
 0.00000036,-0.00003865,0.00000863,-0.00000329,-0.00000733,-0.00000214,
 -0.00000051,-0.04555239,0.00001930,0.00037690,0.00000708,-0.00004169,-
 0.00075686,-0.00001403,0.00000122,0.00005577,0.00000248,0.00150416,0.0
 1581367,0.00000596,0.00000687,0.00015785,-0.00000961,-0.00001387,-0.00
 031078,0.00000089,0.00000246,-0.00002187,0.00004822,0.00031759,0.00560
 592,-0.00079968,0.00003389,0.00000045,0.00091690,-0.00002253,0.0000104
 7,0.00007043,0.00000125,0.00000010,0.04506497,-0.00148299,-0.00004546,
 -0.04525261,-0.00001610,-0.00083659,-0.00001406,0.00003743,0.00136750,
 0.00002105,-0.00001003,-0.00007756,-0.00000432,-0.00148169,-0.01548949
 ,-0.00031305,0.00147039,0.01503613,-0.00000556,-0.00001757,-0.00035876
 ,0.00001561,0.00002307,0.00066532,-0.00000041,-0.00000276,0.00004425,-
 0.00004407,-0.00031312,-0.00543113,0.00003443,0.00031037,0.00508033,0.
 00000499,0.00019823,0.00029308,-0.00000702,0.00000271,0.00031076,-0.00
 028736,-0.00027715,0.00000844,0.00742303,-0.00015643,-0.00027734,-0.00
 000086,0.00002641,-0.00017771,0.00000539,-0.00000073,-0.00029208,-0.00
 000969,0.00000020,-0.00016876,-0.00000299,0.00008936,-0.00000086,0.000
 12942,-0.00009232,-0.00000227,0.00004546,-0.00005015,-0.00009320,-0.00
 000178,0.00003456,0.00001065,0.00000070,0.00000253,0.00004670,0.000000
 54,-0.00000185,-0.00009625,-0.00000301,0.00000075,0.00001063,0.0000025
 9,0.00000102,0.00004932,-0.00083037,0.00001833,-0.00000003,-0.00537873
 ,0.00017328,-0.00000475,0.00000532,-0.00000274,-0.00000051,0.00148032,
 0.00003481,-0.00001810,-0.00000002,0.00014708,0.00077625,0.00000006,-0
 .00000161,-0.00003800,0.00000004,-0.00000261,-0.00077169,0.00000543,-0
 .00000021,-0.00001754,-0.00000968,0.00000032,0.00078049,0.00000070,-0.
 00000002,-0.00003787,0.00003544,-0.00000079,-0.00077048,0.00111570,-0.
 00002877,-0.00000053,-0.00188637,0.00004905,0.00001132,-0.00017718,0.0
 0001580,0.00000038,0.00472346,-0.00017767,-0.00003189,-0.00377561,-0.0
 0002647,0.00009555,-0.00000005,0.00006910,-0.00033185,-0.00000022,0.00
 000204,0.00007385,0.00000005,-0.00018626,0.00005151,0.00000069,0.00014
 159,0.00011094,-0.00000434,0.00000008,0.00009513,0.00001395,-0.0000004
 0,-0.00033027,-0.00000016,0.00000008,0.00007417,-0.00003016,0.00000071
 ,0.00004539,0.00002072,-0.00000047,0.00011559,-0.00620697,0.00036993,-
 0.00093790,0.00033847,0.00069659,-0.00054868,0.01653054,-0.00086051,-0
 .00034603,-0.02588843,-0.00055966,0.00319271,-0.00003445,0.00079539,-0
 .01097121,-0.00027834,0.00001579,0.00296988,0.00012017,-0.00435904,-0.
 01181615,-0.00316299,0.00019944,0.00002633,0.00066613,-0.00004132,0.00
 005750,0.00184443,0.00003699,-0.00109822,-0.00010340,0.00008952,0.0011
 3470,0.00043721,-0.00008488,0.00054977,-0.00005255,-0.00019839,-0.0011
 3196,0.00010479,0.00051059,0.00125770,-0.00004502,0.00009119,0.0005605
 9,-0.00157792,0.00007258,-0.00000221,-0.00636715,0.00015265,-0.0000069
 8,0.00009286,-0.00000985,-0.00000090,-1.52877507,0.00004808,0.00030103
 ,0.00033150,0.00006492,-0.00099623,-0.00028784,0.00002705,0.00025183,0
 .00006467,0.04373578,0.32605136,0.00002944,0.00031922,0.00038126,-0.00
 003744,-0.00029018,-0.00107217,0.00001100,0.00007495,0.00026749,0.0043
 6681,0.17159732,0.36661628,-0.00558274,0.00021856,-0.00001655,0.015058
 91,-0.00034706,0.00010766,0.00055965,-0.00003178,-0.00000633,1.5366272
 8,-0.04387582,-0.00436981,-1.54666309,0.00010467,-0.00145762,-0.000890
 25,-0.00008931,0.00764005,0.00419389,-0.00010030,-0.00083807,-0.000468
 05,-0.04395115,-0.32560801,-0.17170132,0.04403610,0.32026366,-0.000037
 02,-0.00083321,-0.00167050,0.00015850,0.00417307,0.00866075,-0.0000498
 0,-0.00049995,-0.00095383,-0.00435671,-0.17170565,-0.36619287,0.004285
 02,0.16886573,0.36015645,-0.00581094,0.00035692,-0.00115577,-0.0002664
 8,-0.00066220,-0.00121834,0.01585592,-0.00083918,0.00026325,-0.0249899
 5,-0.00053990,0.00348258,-0.00000913,0.00072895,-0.01226004,0.00022611
 ,-0.00004853,0.00338980,-0.00006723,0.00438080,-0.01112348,-0.00292812
 ,0.00019711,-0.00002018,0.00046957,-0.00003247,-0.00005100,0.00177408,
 0.00002610,-0.00104601,0.00014064,0.00010451,0.00121640,-0.00045938,-0
 .00008380,0.00051936,0.00004304,0.00019243,-0.00103333,-0.00008686,-0.
 00049707,0.00111530,0.00003470,-0.00010061,0.00050826,-0.00163975,0.00
 007876,-0.00000242,-0.00640979,0.00014893,-0.00000175,0.00010135,-0.00
 001064,0.00000017,-1.53509526,0.00005196,0.00038092,-0.00032612,0.0000
 6051,-0.00105995,0.00028342,0.00003125,0.00026614,-0.00006737,0.044958
 22,0.36775779,-0.00001297,-0.00032295,0.00030139,0.00001933,0.00028428
 ,-0.00098740,-0.00001168,-0.00007091,0.00024955,-0.00407419,-0.1722416
 5,0.32786921,-0.00547718,0.00020639,0.00002583,0.01507425,-0.00030551,
 -0.00010613,0.00058319,-0.00003618,0.00000894,1.54304343,-0.04510194,0
 .00407950,-1.55322368,0.00010493,-0.00166174,0.00085681,-0.00005480,0.
 00862102,-0.00415632,-0.00011209,-0.00095589,0.00047262,-0.04517528,-0
 .36734492,0.17235123,0.04523724,0.36134153,0.00001029,0.00084124,-0.00
 143951,-0.00012850,-0.00415888,0.00760580,0.00004816,0.00049026,-0.000
 83979,0.00407820,0.17235172,-0.32743277,-0.00400815,-0.16952434,0.3221
 0627,-0.87266575,0.03611343,0.06989013,0.00040921,0.00581953,0.2356112
 2,0.09535962,-0.00361095,-0.00002852,-0.06277620,-0.00340259,0.0108285
 7,-0.00017558,0.00233500,-0.00900054,-0.00003326,-0.00013857,0.0051729
 3,0.00003532,0.00047159,0.00555378,0.77762276,-0.03252395,-0.00038055,
 -0.03308224,0.00108786,-0.00000895,-0.74417309,-0.03273875,-0.08122391
 ,-0.00565999,0.00129473,-0.00154380,-0.00032713,0.03143157,0.08293795,
 -0.00037824,-0.00570215,-0.24193587,-0.00001147,-0.00029002,-0.0101962
 8,0.00038955,0.00600559,0.25279617,0.00147558,-0.00006556,-0.00000051,
 -0.00173541,0.00006548,-0.00000245,-0.00018642,0.00000657,-0.00000150,
 -0.00920975,-0.00000489,0.00012595,-0.00002583,0.00001713,-0.00017328,
 0.00001446,0.00000588,0.00013915,0.00001073,0.00030456,0.00150592,0.00
 000502,-0.00001275,-0.00055945,-0.00000986,0.00000149,0.00010622,0.000
 00160,0.00001199,0.00054430,0.00003923,0.00008343,0.00355551,-0.001792
 24,0.00008702,0.00000037,0.00223422,-0.00008574,0.00000934,-0.00018096
 ,0.00000588,0.00000168,0.00965596,-0.00032268,-0.00003599,-0.00991698,
 0.00003280,0.00037926,0.00004187,-0.00003591,-0.00011094,-0.00002035,-
 0.00000136,-0.00030939,-0.00002415,-0.00031104,-0.00159776,-0.00008416
 ,0.00031551,0.00163884,-0.00000272,0.00003394,0.00171118,0.00001452,-0
 .00000748,-0.00063664,-0.00000165,-0.00003046,-0.00120832,-0.00003477,
 -0.00008278,-0.00364661,0.00002461,0.00008679,0.00378039,-0.87560030,0
 .04247019,0.23556579,-0.00010131,-0.00585636,0.07167241,0.09157384,-0.
 00354688,0.00003230,-0.05889869,-0.00337262,0.00618660,0.00017308,0.00
 264417,0.00448229,0.00002273,0.00018014,0.01092910,-0.00004658,-0.0004
 9059,-0.00913161,0.78433529,-0.03897185,0.00007084,-0.03317096,0.00077
 088,0.00001456,-0.75079163,-0.03915897,-0.24288392,0.00571170,0.000943
 92,-0.01015663,0.00029906,0.03821284,0.25368643,0.00008195,0.00569536,
 -0.08320506,0.00000508,0.00030903,-0.00145824,-0.00008732,-0.00602421,
 0.08486795,0.00145635,-0.00004680,0.00000100,-0.00171207,0.00005830,-0
 .00000517,-0.00018673,-0.00000039,-0.00000068,-0.00842847,-0.00001546,
 -0.00037995,0.00002701,0.00000848,-0.00004343,-0.00001078,0.00001707,0
 .00056014,-0.00001548,0.00033858,0.00324102,0.00000389,-0.00000088,0.0
 0010377,-0.00000827,0.00001036,-0.00022902,0.00000134,-0.00001275,0.00
 022208,0.00003594,-0.00006599,0.00143478,-0.00176522,0.00009534,-0.000
 00283,0.00220787,-0.00010073,0.00001446,-0.00018592,0.00000259,0.00000
 097,0.00887091,-0.00034868,-0.00003290,-0.00912764,0.00007686,0.001511
 48,-0.00005543,-0.00004969,-0.00046881,0.00002216,-0.00002894,-0.00120
 601,0.00003531,-0.00034969,-0.00337781,0.00006926,0.00035146,0.0035411
 5,-0.00000726,-0.00001826,0.00049978,0.00001746,-0.00000189,-0.0001102
 2,0.00000058,0.00002620,-0.00042673,-0.00003109,0.00006524,-0.00153163
 ,0.00002031,-0.00007130,0.00156880,1.67721113,-0.07459112,-0.30689199,
 -0.00042691,0.00001845,-0.30968483,-1.60365847,0.07151848,0.00041545,1
 .60556029,0.07163335,0.30183985,-0.00001608,-0.07183838,-0.30916668,0.
 00041112,-0.00001593,0.30452343,-0.00041567,0.00001539,-0.31185939,-0.
 07388623,0.00308693,0.00001196,0.00132013,0.00009644,-0.00000167,0.072
 36471,0.00294188,0.00499659,-0.00000230,0.00023438,0.00652178,0.000000
 71,-0.00317366,-0.01151264,0.00001423,-0.00000238,0.00510553,-0.000002
 96,0.00000075,0.00652899,-0.00001103,0.00000153,-0.01162884,-0.0009689
 5,0.00002732,0.00000005,-0.00012489,-0.00000275,-0.00000398,-0.0000830
 3,0.00000074,-0.00000046,0.00052947,0.00003218,-0.00002951,-0.00000003
 ,-0.00000956,-0.00003177,0.00000004,0.00000318,0.00000656,0.00000004,0
 .00004197,0.00013918,0.00000534,-0.00000022,-0.00002884,-0.00000907,0.
 00000031,-0.00003212,0.00000074,-0.00000002,0.00000681,0.00003653,-0.0
 0000081,0.00014173,0.00130251,-0.00004160,-0.00000055,-0.00309706,0.00
 011133,0.00001020,0.00028446,-0.00000334,0.00000022,0.00064737,-0.0000
 6776,-0.00003355,0.00086273,-0.00001629,0.00008507,-0.00000004,0.00009
 508,0.00083683,-0.00000021,-0.00001290,-0.00001230,0.00000006,-0.00006
 727,-0.00008449,0.00000073,0.00000137,-0.00082510,-0.00000378,0.000000
 07,0.00008472,0.00001224,-0.00000037,0.00083908,-0.00000001,0.00000008
 ,-0.00001249,-0.00003214,0.00000076,-0.00008758,0.00002368,-0.00000054
 ,-0.00082373,3.92509053,-0.18095356,-0.82972831,-0.00080992,0.00003345
 ,-0.83661136,-0.19511669,0.00795659,0.00005973,0.19908864,0.00856361,0
 .02449954,-0.00000228,-0.00858646,-0.03511750,0.00007451,-0.00000136,0
 .02482027,-0.00006599,0.00000043,-0.03543467,-3.73099741,0.17302794,0.
 00075078,-0.00367566,0.00001811,-0.00001669,3.73518881,0.17252597,0.80
 545978,-0.00003133,0.00063220,0.01094547,0.00000131,-0.17316847,-0.816
 71120,0.00074251,-0.00003083,0.81202884,0.00000007,0.00000093,0.010945
 27,-0.00074237,0.00002988,-0.82328638,-0.00130109,0.00003003,-0.000000
 06,0.00015921,0.00001660,-0.00000320,0.00115333,-0.00004274,-0.0000005
 6,0.00231503,-0.00009679,-0.00035116,0.00000017,0.00003478,0.00044736,
 0.00000015,0.00011988,0.00031553,-0.00000012,-0.00000323,0.00144185,0.
 00000750,-0.00000020,-0.00035264,-0.00000966,0.00000007,0.00044689,-0.
 00000121,0.00000027,0.00031903,0.00003691,-0.00000076,0.00144217,0.002
 32466,-0.00006101,-0.00000054,-0.00045551,-0.00001186,0.00001137,-0.00
 166906,0.00005304,0.00000034,-0.00232649,-0.00005464,-0.00003354,0.002
 12640,-0.00003922,0.00012015,-0.00000001,-0.00003711,-0.00077486,-0.00
 000052,0.00000253,-0.00000956,0.00000014,-0.00000067,-0.00185360,0.000
 00063,0.00007446,0.00251788,-0.00001461,-0.00000106,0.00011491,0.00001
 585,0.00000085,-0.00077776,0.00000948,-0.00000013,-0.00000677,-0.00003
 310,0.00000057,-0.00185547,0.00002238,-0.00000022,0.00252508,-0.005175
 00,0.00065950,0.00438190,0.00001082,0.00000196,0.00442786,-0.01649557,
 -0.00000666,-0.00000460,-0.00762267,-0.00011512,-0.00535178,-0.0000001
 8,0.00127570,0.02503401,-0.00002660,0.00000064,-0.00537461,-0.00001003
 ,-0.00000034,0.02508937,-0.00009611,0.00011693,-0.00000170,0.00066876,
 -0.00014911,-0.00000209,0.00151078,-0.00000331,0.00131044,-0.00000182,
 -0.00002486,-0.00221084,0.00000073,-0.00006922,-0.00043527,-0.00000299
 ,-0.00000176,0.00130582,0.00000146,0.00000061,-0.00221097,0.00000320,0
 .00000102,-0.00043374,-0.00068913,-0.00002379,-0.00000325,-0.01251275,
 0.00051525,-0.00001142,0.00014517,0.00000252,0.00000054,7.85494868,0.0
 0005454,0.00017391,-0.00000003,0.00031732,0.00147872,0.00000023,-0.000
 02157,-0.00023431,0.00000004,-0.22274155,-1.63186041,0.00000699,-0.000
 00020,0.00017479,-0.00001024,0.00000028,0.00149038,-0.00000028,0.,-0.0
 0023494,-0.00070741,0.00001665,-1.63708702,0.02245571,-0.00074597,-0.0
 0000127,0.03596223,-0.00152673,0.00005014,-0.00222849,0.00009487,-0.00
 000222,-7.84189195,0.22239127,0.00071094,7.78570250,-0.00059561,-0.000
 51448,0.00000007,-0.00156150,-0.01895010,-0.00000127,0.00012298,0.0015
 6998,0.00000008,0.22224757,1.63044211,-0.00001673,-0.22021343,-1.61254
 750,0.00001178,-0.00000064,-0.00053385,0.00002341,-0.00000038,-0.01899
 415,0.00000086,0.00000006,0.00157382,0.00072154,-0.00001690,1.63565680
 ,-0.00075758,0.00001785,-1.61770262\\@


 MEN HAVE BECOME THE TOOLS OF THEIR TOOLS... THOREAU   
 Job cpu time:       1 days  2 hours 26 minutes 52.3 seconds.
 Elapsed time:       0 days  0 hours 57 minutes 48.4 seconds.
 File lengths (MBytes):  RWF=   4072 Int=      0 D2E=      0 Chk=     48 Scr=      8
 Normal termination of Gaussian 16 at Mon Jan  3 12:22:05 2022.
