 Entering Gaussian System, Link 0=g16
 Input=hf_nh3_mp2_avdz_opt_anharm.gjf
 Output=hf_nh3_mp2_avdz_opt_anharm.log
 Initial command:
 /sw/contrib/gaussian/g16/A03/g16/l1.exe "/gscratch/scrubbed/gds001/Gau-27565.inp" -scrdir="/gscratch/scrubbed/gds001/"
 Entering Link 1 = /sw/contrib/gaussian/g16/A03/g16/l1.exe PID=     27566.
  
 Copyright (c) 1988,1990,1992,1993,1995,1998,2003,2009,2016,
            Gaussian, Inc.  All Rights Reserved.
  
 This is part of the Gaussian(R) 16 program.  It is based on
 the Gaussian(R) 09 system (copyright 2009, Gaussian, Inc.),
 the Gaussian(R) 03 system (copyright 2003, Gaussian, Inc.),
 the Gaussian(R) 98 system (copyright 1998, Gaussian, Inc.),
 the Gaussian(R) 94 system (copyright 1995, Gaussian, Inc.),
 the Gaussian 92(TM) system (copyright 1992, Gaussian, Inc.),
 the Gaussian 90(TM) system (copyright 1990, Gaussian, Inc.),
 the Gaussian 88(TM) system (copyright 1988, Gaussian, Inc.),
 the Gaussian 86(TM) system (copyright 1986, Carnegie Mellon
 University), and the Gaussian 82(TM) system (copyright 1983,
 Carnegie Mellon University). Gaussian is a federally registered
 trademark of Gaussian, Inc.
  
 This software contains proprietary and confidential information,
 including trade secrets, belonging to Gaussian, Inc.
  
 This software is provided under written license and may be
 used, copied, transmitted, or stored only in accord with that
 written license.
  
 The following legend is applicable only to US Government
 contracts under FAR:
  
                    RESTRICTED RIGHTS LEGEND
  
 Use, reproduction and disclosure by the US Government is
 subject to restrictions as set forth in subparagraphs (a)
 and (c) of the Commercial Computer Software - Restricted
 Rights clause in FAR 52.227-19.
  
 Gaussian, Inc.
 340 Quinnipiac St., Bldg. 40, Wallingford CT 06492
  
  
 ---------------------------------------------------------------
 Warning -- This program may not be used in any manner that
 competes with the business of Gaussian, Inc. or will provide
 assistance to any competitor of Gaussian, Inc.  The licensee
 of this program is prohibited from giving any competitor of
 Gaussian, Inc. access to this program.  By using this program,
 the user acknowledges that Gaussian, Inc. is engaged in the
 business of creating and licensing software in the field of
 computational chemistry and represents and warrants to the
 licensee that it is not a competitor of Gaussian, Inc. and that
 it will not use this program in any manner prohibited above.
 ---------------------------------------------------------------
  

 Cite this work as:
 Gaussian 16, Revision A.03,
 M. J. Frisch, G. W. Trucks, H. B. Schlegel, G. E. Scuseria, 
 M. A. Robb, J. R. Cheeseman, G. Scalmani, V. Barone, 
 G. A. Petersson, H. Nakatsuji, X. Li, M. Caricato, A. V. Marenich, 
 J. Bloino, B. G. Janesko, R. Gomperts, B. Mennucci, H. P. Hratchian, 
 J. V. Ortiz, A. F. Izmaylov, J. L. Sonnenberg, D. Williams-Young, 
 F. Ding, F. Lipparini, F. Egidi, J. Goings, B. Peng, A. Petrone, 
 T. Henderson, D. Ranasinghe, V. G. Zakrzewski, J. Gao, N. Rega, 
 G. Zheng, W. Liang, M. Hada, M. Ehara, K. Toyota, R. Fukuda, 
 J. Hasegawa, M. Ishida, T. Nakajima, Y. Honda, O. Kitao, H. Nakai, 
 T. Vreven, K. Throssell, J. A. Montgomery, Jr., J. E. Peralta, 
 F. Ogliaro, M. J. Bearpark, J. J. Heyd, E. N. Brothers, K. N. Kudin, 
 V. N. Staroverov, T. A. Keith, R. Kobayashi, J. Normand, 
 K. Raghavachari, A. P. Rendell, J. C. Burant, S. S. Iyengar, 
 J. Tomasi, M. Cossi, J. M. Millam, M. Klene, C. Adamo, R. Cammi, 
 J. W. Ochterski, R. L. Martin, K. Morokuma, O. Farkas, 
 J. B. Foresman, and D. J. Fox, Gaussian, Inc., Wallingford CT, 2016.
 
 ******************************************
 Gaussian 16:  ES64L-G16RevA.03 25-Dec-2016
                24-Nov-2021 
 ******************************************
 %nprocshared=28
 Will use up to   28 processors via shared memory.
 %mem=41GB
 ----------------------------------------------
 # mp2/aug-cc-pVDZ opt freq=(vibrot,anharmonic)
 ----------------------------------------------
 1/18=20,19=15,38=1,80=1/1,3;
 2/9=110,12=2,17=6,18=5,40=1/2;
 3/5=16,7=10,11=9,25=1,30=1,71=1/1,2,3;
 4//1;
 5/5=2,38=5/2;
 8/6=4,10=1/1;
 9/15=2,16=-3/6;
 10/5=1/2;
 6/7=2,8=2,9=2,10=2/1;
 7/12=2/1,2,3,16;
 1/18=20,19=15,80=1/3(2);
 2/9=110/2;
 99//99;
 2/9=110/2;
 3/5=16,7=10,11=9,25=1,30=1,71=1/1,2,3;
 4/5=5,16=3,69=1/1;
 5/5=2,38=5/2;
 8/6=4,10=1/1;
 9/15=2,16=-3/6;
 10/5=1/2;
 7/12=2/1,2,3,16;
 1/18=20,19=15,80=1/3(-8);
 2/9=110/2;
 6/7=2,8=2,9=2,10=2/1;
 99//99;
 ------
 hf_nh3
 ------
 Symbolic Z-matrix:
 Charge =  0 Multiplicity = 1
 N                     1.32447   1.68156   0.09747 
 H                     2.36844   1.67584   0.10253 
 H                     0.98954   2.28162   0.88443 
 H                     0.99029   0.70672   0.26289 
 F                     1.00737   1.66537  -2.61417 
 H                     1.08072   1.61319  -1.6351 
 
 Add virtual bond connecting atoms H6         and N1         Dist= 3.31D+00.

 GradGradGradGradGradGradGradGradGradGradGradGradGradGradGradGradGradGrad
 Berny optimization.
 Initialization pass.
                           ----------------------------
                           !    Initial Parameters    !
                           ! (Angstroms and Degrees)  !
 --------------------------                            --------------------------
 ! Name  Definition              Value          Derivative Info.                !
 --------------------------------------------------------------------------------
 ! R1    R(1,2)                  1.044          estimate D2E/DX2                !
 ! R2    R(1,3)                  1.0448         estimate D2E/DX2                !
 ! R3    R(1,4)                  1.0437         estimate D2E/DX2                !
 ! R4    R(1,6)                  1.751          estimate D2E/DX2                !
 ! R5    R(5,6)                  0.9832         estimate D2E/DX2                !
 ! A1    A(2,1,3)              108.6664         estimate D2E/DX2                !
 ! A2    A(2,1,4)              108.3173         estimate D2E/DX2                !
 ! A3    A(2,1,6)               98.267          estimate D2E/DX2                !
 ! A4    A(3,1,4)              108.3251         estimate D2E/DX2                !
 ! A5    A(3,1,6)              136.3135         estimate D2E/DX2                !
 ! A6    A(4,1,6)               94.3464         estimate D2E/DX2                !
 ! A7    L(1,6,5,2,-1)         175.9365         estimate D2E/DX2                !
 ! A8    L(1,6,5,2,-2)         189.9082         estimate D2E/DX2                !
 ! D1    D(2,1,4,3)            117.6972         estimate D2E/DX2                !
 ! D2    D(2,1,6,3)           -128.3421         estimate D2E/DX2                !
 ! D3    D(2,1,6,4)            109.2408         estimate D2E/DX2                !
 ! D4    D(3,1,6,4)           -122.4171         estimate D2E/DX2                !
 --------------------------------------------------------------------------------
 Trust Radius=3.00D-01 FncErr=1.00D-07 GrdErr=1.00D-07 EigMax=2.50D+02 EigMin=1.00D-04
 Number of steps in this run=     27 maximum allowed number of steps=    100.
 GradGradGradGradGradGradGradGradGradGradGradGradGradGradGradGradGradGrad

                          Input orientation:                          
 ---------------------------------------------------------------------
 Center     Atomic      Atomic             Coordinates (Angstroms)
 Number     Number       Type             X           Y           Z
 ---------------------------------------------------------------------
      1          7           0        1.324467    1.681562    0.097466
      2          1           0        2.368443    1.675836    0.102531
      3          1           0        0.989542    2.281616    0.884434
      4          1           0        0.990287    0.706717    0.262890
      5          9           0        1.007367    1.665371   -2.614165
      6          1           0        1.080725    1.613188   -1.635104
 ---------------------------------------------------------------------
                    Distance matrix (angstroms):
                    1          2          3          4          5
     1  N    0.000000
     2  H    1.044004   0.000000
     3  H    1.044776   1.696971   0.000000
     4  H    1.043727   1.692402   1.693111   0.000000
     5  F    2.730157   3.038597   3.552502   3.032616   0.000000
     6  H    1.750966   2.163681   2.608290   2.105291   0.983192
                    6
     6  H    0.000000
 Stoichiometry    FH4N
 Framework group  C1[X(FH4N)]
 Deg. of freedom    12
 Full point group                 C1      NOp   1
 Largest Abelian subgroup         C1      NOp   1
 Largest concise Abelian subgroup C1      NOp   1
                         Standard orientation:                         
 ---------------------------------------------------------------------
 Center     Atomic      Atomic             Coordinates (Angstroms)
 Number     Number       Type             X           Y           Z
 ---------------------------------------------------------------------
      1          7           0        1.266304    0.002184    0.030691
      2          1           0        1.395981    0.861515   -0.547823
      3          1           0        2.009049   -0.021755    0.765071
      4          1           0        1.388359   -0.830422   -0.586752
      5          9           0       -1.463821    0.004224    0.017563
      6          1           0       -0.483130   -0.062643   -0.003403
 ---------------------------------------------------------------------
 Rotational constants (GHZ):         187.0378573           7.0446159           7.0256677
 Standard basis: Aug-CC-pVDZ (5D, 7F)
 There are    86 symmetry adapted cartesian basis functions of A   symmetry.
 There are    82 symmetry adapted basis functions of A   symmetry.
    82 basis functions,   130 primitive gaussians,    86 cartesian basis functions
    10 alpha electrons       10 beta electrons
       nuclear repulsion energy        35.9276105709 Hartrees.
 NAtoms=    6 NActive=    6 NUniq=    6 SFac= 1.00D+00 NAtFMM=   60 NAOKFM=F Big=F
 Integral buffers will be    131072 words long.
 Raffenetti 1 integral format.
 Two-electron integral symmetry is turned on.
 One-electron integrals computed using PRISM.
 NBasis=    82 RedAO= T EigKep=  1.53D-03  NBF=    82
 NBsUse=    82 1.00D-06 EigRej= -1.00D+00 NBFU=    82
 ExpMin= 2.97D-02 ExpMax= 1.47D+04 ExpMxC= 5.03D+02 IAcc=3 IRadAn=         5 AccDes= 0.00D+00
 Harris functional with IExCor=  205 and IRadAn=       5 diagonalized for initial guess.
 HarFok:  IExCor=  205 AccDes= 0.00D+00 IRadAn=         5 IDoV= 1 UseB2=F ITyADJ=14
 ICtDFT=  3500011 ScaDFX=  1.000000  1.000000  1.000000  1.000000
 FoFCou: FMM=F IPFlag=           0 FMFlag=      100000 FMFlg1=           0
         NFxFlg=           0 DoJE=T BraDBF=F KetDBF=T FulRan=T
         wScrn=  0.000000 ICntrl=       500 IOpCl=  0 I1Cent=   200000004 NGrid=           0
         NMat0=    1 NMatS0=      1 NMatT0=    0 NMatD0=    1 NMtDS0=    0 NMtDT0=    0
 Petite list used in FoFCou.
 Keep R1 ints in memory in canonical form, NReq=11656234.
 Requested convergence on RMS density matrix=1.00D-08 within 128 cycles.
 Requested convergence on MAX density matrix=1.00D-06.
 Requested convergence on             energy=1.00D-06.
 No special actions if energy rises.
 SCF Done:  E(RHF) =  -156.244504314     A.U. after   11 cycles
            NFock= 11  Conv=0.35D-08     -V/T= 2.0028
 ExpMin= 2.97D-02 ExpMax= 1.47D+04 ExpMxC= 5.03D+02 IAcc=3 IRadAn=         5 AccDes= 0.00D+00
 HarFok:  IExCor=  205 AccDes= 0.00D+00 IRadAn=         5 IDoV=-2 UseB2=F ITyADJ=14
 ICtDFT= 12500011 ScaDFX=  1.000000  1.000000  1.000000  1.000000
 Range of M.O.s used for correlation:     3    82
 NBasis=    82 NAE=    10 NBE=    10 NFC=     2 NFV=     0
 NROrb=     80 NOA=     8 NOB=     8 NVA=    72 NVB=    72
 Fully direct method using O(ONN) memory.
 JobTyp=1 Pass  1:  I=   3 to  10 NPSUse= 28 ParTrn=T ParDer=T DoDerP=T.
 Spin components of T(2) and E(2):
     alpha-alpha T2 =       0.1473983373D-01 E2=     -0.5448142643D-01
     alpha-beta  T2 =       0.8510550293D-01 E2=     -0.3219172156D+00
     beta-beta   T2 =       0.1473983373D-01 E2=     -0.5448142643D-01
 ANorm=    0.1055739158D+01
 E2 =    -0.4308800684D+00 EUMP2 =    -0.15667538438281D+03
          IDoAtm=111111
          Differentiating once with respect to electric field.
                with respect to dipole field.
          Differentiating once with respect to nuclear coordinates.
 Keep R1 ints in memory in canonical form, NReq=11658062.
          There are     1 degrees of freedom in the 1st order CPHF.  IDoFFX=0 NUNeed=     1.
 LinEq1:  Iter=  0 NonCon=     1 RMS=5.73D-03 Max=5.65D-02 NDo=     1
 AX will form     1 AO Fock derivatives at one time.
 LinEq1:  Iter=  1 NonCon=     1 RMS=1.55D-03 Max=1.01D-02 NDo=     1
 LinEq1:  Iter=  2 NonCon=     1 RMS=4.67D-04 Max=4.50D-03 NDo=     1
 LinEq1:  Iter=  3 NonCon=     1 RMS=6.26D-05 Max=4.24D-04 NDo=     1
 LinEq1:  Iter=  4 NonCon=     1 RMS=2.32D-05 Max=1.55D-04 NDo=     1
 LinEq1:  Iter=  5 NonCon=     1 RMS=3.87D-06 Max=2.29D-05 NDo=     1
 LinEq1:  Iter=  6 NonCon=     1 RMS=9.10D-07 Max=8.42D-06 NDo=     1
 LinEq1:  Iter=  7 NonCon=     1 RMS=1.58D-07 Max=1.60D-06 NDo=     1
 LinEq1:  Iter=  8 NonCon=     1 RMS=1.94D-08 Max=1.69D-07 NDo=     1
 LinEq1:  Iter=  9 NonCon=     1 RMS=3.20D-09 Max=2.37D-08 NDo=     1
 LinEq1:  Iter= 10 NonCon=     1 RMS=5.35D-10 Max=2.97D-09 NDo=     1
 LinEq1:  Iter= 11 NonCon=     0 RMS=7.12D-11 Max=6.93D-10 NDo=     1
 Linear equations converged to 1.000D-10 1.000D-09 after    11 iterations.
 End of Minotr F.D. properties file   721 does not exist.
 End of Minotr F.D. properties file   722 does not exist.
 End of Minotr F.D. properties file   788 does not exist.

 **********************************************************************

            Population analysis using the SCF density.

 **********************************************************************

 Orbital symmetries:
       Occupied  (A) (A) (A) (A) (A) (A) (A) (A) (A) (A)
       Virtual   (A) (A) (A) (A) (A) (A) (A) (A) (A) (A) (A) (A)
                 (A) (A) (A) (A) (A) (A) (A) (A) (A) (A) (A) (A)
                 (A) (A) (A) (A) (A) (A) (A) (A) (A) (A) (A) (A)
                 (A) (A) (A) (A) (A) (A) (A) (A) (A) (A) (A) (A)
                 (A) (A) (A) (A) (A) (A) (A) (A) (A) (A) (A) (A)
                 (A) (A) (A) (A) (A) (A) (A) (A) (A) (A) (A) (A)
 The electronic state is 1-A.
 Alpha  occ. eigenvalues --  -26.24662 -15.60495  -1.53085  -1.17431  -0.70991
 Alpha  occ. eigenvalues --   -0.66341  -0.65947  -0.58754  -0.58742  -0.47618
 Alpha virt. eigenvalues --    0.02418   0.05100   0.05284   0.08209   0.15987
 Alpha virt. eigenvalues --    0.17849   0.18511   0.18767   0.24865   0.25918
 Alpha virt. eigenvalues --    0.26481   0.28662   0.29776   0.32385   0.33550
 Alpha virt. eigenvalues --    0.35744   0.43350   0.46857   0.49031   0.49642
 Alpha virt. eigenvalues --    0.50752   0.53548   0.55844   0.56454   0.60396
 Alpha virt. eigenvalues --    0.61774   0.65953   0.72024   0.74464   0.86528
 Alpha virt. eigenvalues --    0.88710   0.90127   0.93380   1.05982   1.17163
 Alpha virt. eigenvalues --    1.18018   1.30727   1.39768   1.40724   1.51867
 Alpha virt. eigenvalues --    1.52205   1.58582   1.75510   1.77992   1.82067
 Alpha virt. eigenvalues --    1.85649   1.87197   1.90180   1.95865   1.99254
 Alpha virt. eigenvalues --    2.05268   2.28653   2.29452   2.30847   2.31398
 Alpha virt. eigenvalues --    2.32653   2.35368   2.53915   2.55944   2.68858
 Alpha virt. eigenvalues --    2.81423   2.84176   3.04450   3.08188   3.43548
 Alpha virt. eigenvalues --    3.46691   3.71036   4.91400   4.91683   5.04909
 Alpha virt. eigenvalues --    5.05618   5.32047
          Condensed to atoms (all electrons):
               1          2          3          4          5          6
     1  N    6.259560   0.402557   0.372565   0.405823  -0.042387  -0.039140
     2  H    0.402557   0.620763  -0.069221  -0.039539  -0.004060  -0.011102
     3  H    0.372565  -0.069221   0.642281  -0.068997   0.000353   0.004147
     4  H    0.405823  -0.039539  -0.068997   0.629270  -0.007860  -0.015510
     5  F   -0.042387  -0.004060   0.000353  -0.007860   9.339573   0.219818
     6  H   -0.039140  -0.011102   0.004147  -0.015510   0.219818   0.293661
 Mulliken charges:
               1
     1  N   -0.358979
     2  H    0.100602
     3  H    0.118873
     4  H    0.096813
     5  F   -0.505436
     6  H    0.548127
 Sum of Mulliken charges =   0.00000
 Mulliken charges with hydrogens summed into heavy atoms:
               1
     1  N   -0.042691
     5  F    0.042691
 Electronic spatial extent (au):  <R**2>=            175.5725
 Charge=              0.0000 electrons
 Dipole moment (field-independent basis, Debye):
    X=              4.5592    Y=             -0.1010    Z=             -0.6203  Tot=              4.6023
 Quadrupole moment (field-independent basis, Debye-Ang):
   XX=            -13.6789   YY=            -11.6920   ZZ=            -12.2584
   XY=              0.0565   XZ=              0.3842   YZ=             -0.0032
 Traceless Quadrupole moment (field-independent basis, Debye-Ang):
   XX=             -1.1358   YY=              0.8511   ZZ=              0.2847
   XY=              0.0565   XZ=              0.3842   YZ=             -0.0032
 Octapole moment (field-independent basis, Debye-Ang**2):
  XXX=              6.6250  YYY=              0.1115  ZZZ=             -0.0408  XYY=              0.7142
  XXY=              0.0499  XXZ=              2.6199  XZZ=              0.6033  YZZ=             -0.0664
  YYZ=             -1.4377  XYZ=             -0.0335
 Hexadecapole moment (field-independent basis, Debye-Ang**3):
 XXXX=           -159.6375 YYYY=            -13.5780 ZZZZ=            -14.6684 XXXY=             -0.2806
 XXXZ=              7.9386 YYYX=              0.1726 YYYZ=             -0.0333 ZZZX=              1.1740
 ZZZY=              0.0329 XXYY=            -26.8215 XXZZ=            -25.5418 YYZZ=             -4.2799
 XXYZ=             -0.0915 YYXZ=             -1.8009 ZZXY=             -0.1051
 N-N= 3.592761057091D+01 E-N=-4.436757796112D+02  KE= 1.558128872295D+02
 Calling FoFJK, ICntrl=  10002127 FMM=F ISym2X=0 I1Cent= 0 IOpClX= 0 NMat=1 NMatS=1 NMatT=0.
 ***** Axes restored to original set *****
 -------------------------------------------------------------------
 Center     Atomic                   Forces (Hartrees/Bohr)
 Number     Number              X              Y              Z
 -------------------------------------------------------------------
      1        7           0.005677233   -0.010043058    0.006641213
      2        1          -0.019719370   -0.001410591    0.005097753
      3        1           0.006905594   -0.012423798   -0.017520544
      4        1           0.009090574    0.017572004    0.003322289
      5        9           0.002648020   -0.005278547    0.025205003
      6        1          -0.004602051    0.011583989   -0.022745714
 -------------------------------------------------------------------
 Cartesian Forces:  Max     0.025205003 RMS     0.012579506

 GradGradGradGradGradGradGradGradGradGradGradGradGradGradGradGradGradGrad
 Berny optimization.
 FormGI is forming the generalized inverse of G from B-inverse, IUseBI=4.
 Internal  Forces:  Max     0.025576859 RMS     0.011154743
 Search for a local minimum.
 Step number   1 out of a maximum of   27
 All quantities printed in internal units (Hartrees-Bohrs-Radians)
 Mixed Optimization -- RFO/linear search
 Second derivative matrix not updated -- first step.
 The second derivative matrix:
                          R1        R2        R3        R4        R5
           R1           0.40719
           R2           0.00000   0.40609
           R3           0.00000   0.00000   0.40758
           R4           0.00000   0.00000   0.00000   0.06708
           R5           0.00000   0.00000   0.00000   0.00000   0.50770
           A1           0.00000   0.00000   0.00000   0.00000   0.00000
           A2           0.00000   0.00000   0.00000   0.00000   0.00000
           A3           0.00000   0.00000   0.00000   0.00000   0.00000
           A4           0.00000   0.00000   0.00000   0.00000   0.00000
           A5           0.00000   0.00000   0.00000   0.00000   0.00000
           A6           0.00000   0.00000   0.00000   0.00000   0.00000
           A7           0.00000   0.00000   0.00000   0.00000   0.00000
           A8           0.00000   0.00000   0.00000   0.00000   0.00000
           D1           0.00000   0.00000   0.00000   0.00000   0.00000
           D2           0.00000   0.00000   0.00000   0.00000   0.00000
           D3           0.00000   0.00000   0.00000   0.00000   0.00000
           D4           0.00000   0.00000   0.00000   0.00000   0.00000
                          A1        A2        A3        A4        A5
           A1           0.16000
           A2           0.00000   0.16000
           A3           0.00000   0.00000   0.16000
           A4           0.00000   0.00000   0.00000   0.16000
           A5           0.00000   0.00000   0.00000   0.00000   0.16000
           A6           0.00000   0.00000   0.00000   0.00000   0.00000
           A7           0.00000   0.00000   0.00000   0.00000   0.00000
           A8           0.00000   0.00000   0.00000   0.00000   0.00000
           D1           0.00000   0.00000   0.00000   0.00000   0.00000
           D2           0.00000   0.00000   0.00000   0.00000   0.00000
           D3           0.00000   0.00000   0.00000   0.00000   0.00000
           D4           0.00000   0.00000   0.00000   0.00000   0.00000
                          A6        A7        A8        D1        D2
           A6           0.16000
           A7           0.00000   0.00986
           A8           0.00000   0.00000   0.00986
           D1           0.00000   0.00000   0.00000   0.00450
           D2           0.00000   0.00000   0.00000   0.00000   0.00230
           D3           0.00000   0.00000   0.00000   0.00000   0.00000
           D4           0.00000   0.00000   0.00000   0.00000   0.00000
                          D3        D4
           D3           0.00230
           D4           0.00000   0.00230
 ITU=  0
     Eigenvalues ---    0.00986   0.00986   0.02926   0.06494   0.06708
     Eigenvalues ---    0.08581   0.16000   0.16000   0.40609   0.40719
     Eigenvalues ---    0.40758   0.50770
 RFO step:  Lambda=-6.66520736D-03 EMin= 9.86073606D-03
 Linear search not attempted -- first point.
 Iteration  1 RMS(Cart)=  0.04214997 RMS(Int)=  0.01071834
 Iteration  2 RMS(Cart)=  0.00737660 RMS(Int)=  0.00064611
 Iteration  3 RMS(Cart)=  0.00018456 RMS(Int)=  0.00062001
 Iteration  4 RMS(Cart)=  0.00000006 RMS(Int)=  0.00062001
 Variable       Old X    -DE/DX   Delta X   Delta X   Delta X     New X
                                 (Linear)    (Quad)   (Total)
    R1        1.97288  -0.01990   0.00000  -0.04807  -0.04807   1.92481
    R2        1.97434  -0.02255   0.00000  -0.05462  -0.05462   1.91972
    R3        1.97236  -0.01880   0.00000  -0.04537  -0.04537   1.92698
    R4        3.30885  -0.00228   0.00000  -0.03096  -0.03096   3.27789
    R5        1.85796  -0.02558   0.00000  -0.04973  -0.04973   1.80824
    A1        1.89659  -0.00044   0.00000  -0.01721  -0.01765   1.87893
    A2        1.89049  -0.00330   0.00000  -0.03378  -0.03558   1.85491
    A3        1.71508   0.00556   0.00000   0.04068   0.04088   1.75596
    A4        1.89063  -0.00289   0.00000  -0.01790  -0.01779   1.87284
    A5        2.37912  -0.00683   0.00000  -0.03074  -0.03013   2.34899
    A6        1.64665   0.00825   0.00000   0.05725   0.05735   1.70400
    A7        3.07067  -0.00039   0.00000  -0.02387  -0.02387   3.04680
    A8        3.31452  -0.00400   0.00000  -0.24179  -0.24179   3.07273
    D1        2.05420  -0.00391   0.00000  -0.04874  -0.04785   2.00635
    D2       -2.23999  -0.00037   0.00000   0.00258   0.00314  -2.23685
    D3        1.90661  -0.00114   0.00000  -0.01875  -0.01764   1.88897
    D4       -2.13658  -0.00077   0.00000  -0.02133  -0.02078  -2.15737
         Item               Value     Threshold  Converged?
 Maximum Force            0.025577     0.000450     NO 
 RMS     Force            0.011155     0.000300     NO 
 Maximum Displacement     0.111582     0.001800     NO 
 RMS     Displacement     0.045373     0.001200     NO 
 Predicted change in Energy=-3.589634D-03
 GradGradGradGradGradGradGradGradGradGradGradGradGradGradGradGradGradGrad

                          Input orientation:                          
 ---------------------------------------------------------------------
 Center     Atomic      Atomic             Coordinates (Angstroms)
 Number     Number       Type             X           Y           Z
 ---------------------------------------------------------------------
      1          7           0        1.324507    1.678080    0.081937
      2          1           0        2.342250    1.660523    0.118856
      3          1           0        0.998291    2.257361    0.850058
      4          1           0        1.015223    0.724490    0.268560
      5          9           0        1.013542    1.631602   -2.587939
      6          1           0        1.067019    1.672234   -1.633420
 ---------------------------------------------------------------------
                    Distance matrix (angstroms):
                    1          2          3          4          5
     1  N    0.000000
     2  H    1.018564   0.000000
     3  H    1.015870   1.642285   0.000000
     4  H    1.019716   1.630819   1.639549   0.000000
     5  F    2.688326   3.015466   3.494514   2.997072   0.000000
     6  H    1.734585   2.167215   2.552403   2.125660   0.956878
                    6
     6  H    0.000000
 Stoichiometry    FH4N
 Framework group  C1[X(FH4N)]
 Deg. of freedom    12
 Full point group                 C1      NOp   1
 Largest Abelian subgroup         C1      NOp   1
 Largest concise Abelian subgroup C1      NOp   1
                         Standard orientation:                         
 ---------------------------------------------------------------------
 Center     Atomic      Atomic             Coordinates (Angstroms)
 Number     Number       Type             X           Y           Z
 ---------------------------------------------------------------------
      1          7           0        1.245094    0.000572    0.031687
      2          1           0        1.403889    0.848598   -0.509709
      3          1           0        1.974658   -0.056247    0.736316
      4          1           0        1.382857   -0.778929   -0.611135
      5          9           0       -1.443147    0.001935    0.010469
      6          1           0       -0.488738   -0.034842    0.068495
 ---------------------------------------------------------------------
 Rotational constants (GHZ):         198.6606230           7.2515408           7.2370584
 Standard basis: Aug-CC-pVDZ (5D, 7F)
 There are    86 symmetry adapted cartesian basis functions of A   symmetry.
 There are    82 symmetry adapted basis functions of A   symmetry.
    82 basis functions,   130 primitive gaussians,    86 cartesian basis functions
    10 alpha electrons       10 beta electrons
       nuclear repulsion energy        36.6308087312 Hartrees.
 NAtoms=    6 NActive=    6 NUniq=    6 SFac= 1.00D+00 NAtFMM=   60 NAOKFM=F Big=F
 Integral buffers will be    131072 words long.
 Raffenetti 1 integral format.
 Two-electron integral symmetry is turned on.
 One-electron integrals computed using PRISM.
 NBasis=    82 RedAO= T EigKep=  1.39D-03  NBF=    82
 NBsUse=    82 1.00D-06 EigRej= -1.00D+00 NBFU=    82
 Initial guess from the checkpoint file:  "/gscratch/scrubbed/gds001/Gau-27566.chk"
 B after Tr=    -0.000000    0.000000    0.000000
         Rot=    0.999816   -0.019150    0.000735    0.000333 Ang=  -2.20 deg.
 ExpMin= 2.97D-02 ExpMax= 1.47D+04 ExpMxC= 5.03D+02 IAcc=3 IRadAn=         5 AccDes= 0.00D+00
 Harris functional with IExCor=  205 and IRadAn=       5 diagonalized for initial guess.
 HarFok:  IExCor=  205 AccDes= 0.00D+00 IRadAn=         5 IDoV= 1 UseB2=F ITyADJ=14
 ICtDFT=  3500011 ScaDFX=  1.000000  1.000000  1.000000  1.000000
 FoFCou: FMM=F IPFlag=           0 FMFlag=      100000 FMFlg1=           0
         NFxFlg=           0 DoJE=T BraDBF=F KetDBF=T FulRan=T
         wScrn=  0.000000 ICntrl=       500 IOpCl=  0 I1Cent=   200000004 NGrid=           0
         NMat0=    1 NMatS0=      1 NMatT0=    0 NMatD0=    1 NMtDS0=    0 NMtDT0=    0
 Petite list used in FoFCou.
 Keep R1 ints in memory in canonical form, NReq=11656586.
 Requested convergence on RMS density matrix=1.00D-08 within 128 cycles.
 Requested convergence on MAX density matrix=1.00D-06.
 Requested convergence on             energy=1.00D-06.
 No special actions if energy rises.
 SCF Done:  E(RHF) =  -156.251884955     A.U. after   10 cycles
            NFock= 10  Conv=0.36D-08     -V/T= 2.0016
 ExpMin= 2.97D-02 ExpMax= 1.47D+04 ExpMxC= 5.03D+02 IAcc=3 IRadAn=         5 AccDes= 0.00D+00
 HarFok:  IExCor=  205 AccDes= 0.00D+00 IRadAn=         5 IDoV=-2 UseB2=F ITyADJ=14
 ICtDFT= 12500011 ScaDFX=  1.000000  1.000000  1.000000  1.000000
 Range of M.O.s used for correlation:     3    82
 NBasis=    82 NAE=    10 NBE=    10 NFC=     2 NFV=     0
 NROrb=     80 NOA=     8 NOB=     8 NVA=    72 NVB=    72

 **** Warning!!: The largest alpha MO coefficient is  0.10364562D+02

 Fully direct method using O(ONN) memory.
 JobTyp=1 Pass  1:  I=   3 to  10 NPSUse= 28 ParTrn=T ParDer=T DoDerP=T.
 Spin components of T(2) and E(2):
     alpha-alpha T2 =       0.1440000174D-01 E2=     -0.5412365160D-01
     alpha-beta  T2 =       0.8272811074D-01 E2=     -0.3192087080D+00
     beta-beta   T2 =       0.1440000174D-01 E2=     -0.5412365160D-01
 ANorm=    0.1054290337D+01
 E2 =    -0.4274560112D+00 EUMP2 =    -0.15667934096644D+03
          IDoAtm=111111
          Differentiating once with respect to electric field.
                with respect to dipole field.
          Differentiating once with respect to nuclear coordinates.
 Keep R1 ints in memory in canonical form, NReq=11658282.
          There are     1 degrees of freedom in the 1st order CPHF.  IDoFFX=0 NUNeed=     1.
 LinEq1:  Iter=  0 NonCon=     1 RMS=5.57D-03 Max=4.54D-02 NDo=     1
 AX will form     1 AO Fock derivatives at one time.
 LinEq1:  Iter=  1 NonCon=     1 RMS=1.48D-03 Max=1.15D-02 NDo=     1
 LinEq1:  Iter=  2 NonCon=     1 RMS=4.33D-04 Max=3.07D-03 NDo=     1
 LinEq1:  Iter=  3 NonCon=     1 RMS=5.78D-05 Max=4.82D-04 NDo=     1
 LinEq1:  Iter=  4 NonCon=     1 RMS=2.12D-05 Max=1.14D-04 NDo=     1
 LinEq1:  Iter=  5 NonCon=     1 RMS=3.20D-06 Max=1.94D-05 NDo=     1
 LinEq1:  Iter=  6 NonCon=     1 RMS=7.14D-07 Max=6.05D-06 NDo=     1
 LinEq1:  Iter=  7 NonCon=     1 RMS=1.30D-07 Max=1.33D-06 NDo=     1
 LinEq1:  Iter=  8 NonCon=     1 RMS=1.57D-08 Max=1.43D-07 NDo=     1
 LinEq1:  Iter=  9 NonCon=     1 RMS=2.32D-09 Max=1.69D-08 NDo=     1
 LinEq1:  Iter= 10 NonCon=     1 RMS=3.90D-10 Max=2.06D-09 NDo=     1
 LinEq1:  Iter= 11 NonCon=     0 RMS=5.51D-11 Max=5.26D-10 NDo=     1
 Linear equations converged to 1.000D-10 1.000D-09 after    11 iterations.
 End of Minotr F.D. properties file   721 does not exist.
 End of Minotr F.D. properties file   722 does not exist.
 End of Minotr F.D. properties file   788 does not exist.
 Calling FoFJK, ICntrl=  10002127 FMM=F ISym2X=0 I1Cent= 0 IOpClX= 0 NMat=1 NMatS=1 NMatT=0.
 ***** Axes restored to original set *****
 -------------------------------------------------------------------
 Center     Atomic                   Forces (Hartrees/Bohr)
 Number     Number              X              Y              Z
 -------------------------------------------------------------------
      1        7           0.001550659   -0.006793265   -0.006292501
      2        1           0.001522927    0.000650896    0.002366986
      3        1          -0.001583845    0.002554305   -0.000314676
      4        1           0.000020519   -0.000531203    0.003234782
      5        9           0.000374984   -0.001813383    0.003293317
      6        1          -0.001885245    0.005932650   -0.002287908
 -------------------------------------------------------------------
 Cartesian Forces:  Max     0.006793265 RMS     0.003114773

 GradGradGradGradGradGradGradGradGradGradGradGradGradGradGradGradGradGrad
 Berny optimization.
 Using GEDIIS/GDIIS optimizer.
 FormGI is forming the generalized inverse of G from B-inverse, IUseBI=4.
 Internal  Forces:  Max     0.005778138 RMS     0.002343705
 Search for a local minimum.
 Step number   2 out of a maximum of   27
 All quantities printed in internal units (Hartrees-Bohrs-Radians)
 Mixed Optimization -- RFO/linear search
 Update second derivatives using D2CorX and points    1    2
 DE= -3.96D-03 DEPred=-3.59D-03 R= 1.10D+00
 TightC=F SS=  1.41D+00  RLast= 2.84D-01 DXNew= 5.0454D-01 8.5181D-01
 Trust test= 1.10D+00 RLast= 2.84D-01 DXMaxT set to 5.05D-01
 The second derivative matrix:
                          R1        R2        R3        R4        R5
           R1           0.42807
           R2           0.02318   0.43181
           R3           0.01794   0.01988   0.42288
           R4          -0.00091  -0.00106  -0.00098   0.06676
           R5           0.00598   0.00628   0.00379  -0.00261   0.49367
           A1          -0.00703  -0.00797  -0.00668  -0.00082  -0.00956
           A2          -0.00893  -0.01017  -0.00863  -0.00129  -0.01383
           A3           0.01290   0.01466   0.01235   0.00167   0.01863
           A4          -0.00116  -0.00136  -0.00127  -0.00042  -0.00349
           A5          -0.01130  -0.01283  -0.01077  -0.00135  -0.01560
           A6           0.01553   0.01768   0.01497   0.00216   0.02348
           A7          -0.00158  -0.00179  -0.00148  -0.00014  -0.00183
           A8           0.00051   0.00053   0.00031  -0.00025  -0.00138
           D1           0.01151   0.01298   0.01062   0.00076   0.01178
           D2           0.00460   0.00519   0.00425   0.00032   0.00479
           D3           0.00775   0.00874   0.00715   0.00053   0.00801
           D4           0.00315   0.00355   0.00290   0.00021   0.00323
                          A1        A2        A3        A4        A5
           A1           0.15875
           A2          -0.00240   0.15574
           A3           0.00282   0.00518   0.15380
           A4          -0.00112  -0.00176   0.00227   0.15943
           A5          -0.00212  -0.00402   0.00474  -0.00185   0.15642
           A6           0.00389   0.00698  -0.00846   0.00295   0.00653
           A7          -0.00013  -0.00031   0.00033  -0.00019  -0.00022
           A8          -0.00090  -0.00131   0.00176  -0.00033  -0.00148
           D1           0.00019   0.00115  -0.00093   0.00106   0.00042
           D2           0.00011   0.00051  -0.00044   0.00044   0.00023
           D3           0.00017   0.00083  -0.00071   0.00073   0.00035
           D4           0.00006   0.00032  -0.00026   0.00029   0.00012
                          A6        A7        A8        D1        D2
           A6           0.14856
           A7           0.00049   0.00986
           A8           0.00223  -0.00017   0.00972
           D1          -0.00168  -0.00013   0.00110   0.00628
           D2          -0.00076  -0.00005   0.00045   0.00067   0.00255
           D3          -0.00124  -0.00008   0.00075   0.00115   0.00043
           D4          -0.00047  -0.00003   0.00030   0.00048   0.00018
                          D3        D4
           D3           0.00305
           D4           0.00031   0.00243
 ITU=  1  0
 Use linear search instead of GDIIS.
     Eigenvalues ---    0.00950   0.00995   0.02973   0.06642   0.06678
     Eigenvalues ---    0.08492   0.13350   0.16018   0.40659   0.40736
     Eigenvalues ---    0.46779   0.50274
 RFO step:  Lambda=-8.11730511D-04 EMin= 9.50092671D-03
 Quartic linear search produced a step of  0.17795.
 Iteration  1 RMS(Cart)=  0.02930574 RMS(Int)=  0.00396420
 Iteration  2 RMS(Cart)=  0.00325586 RMS(Int)=  0.00047075
 Iteration  3 RMS(Cart)=  0.00003055 RMS(Int)=  0.00046952
 Iteration  4 RMS(Cart)=  0.00000000 RMS(Int)=  0.00046952
 Variable       Old X    -DE/DX   Delta X   Delta X   Delta X     New X
                                 (Linear)    (Quad)   (Total)
    R1        1.92481   0.00164  -0.00856   0.00879   0.00023   1.92504
    R2        1.91972   0.00173  -0.00972   0.00962  -0.00010   1.91962
    R3        1.92698   0.00108  -0.00807   0.00696  -0.00111   1.92587
    R4        3.27789  -0.00081  -0.00551  -0.01043  -0.01593   3.26196
    R5        1.80824  -0.00323  -0.00885  -0.00328  -0.01213   1.79611
    A1        1.87893   0.00007  -0.00314  -0.00682  -0.01008   1.86886
    A2        1.85491  -0.00092  -0.00633   0.00416  -0.00351   1.85140
    A3        1.75596   0.00351   0.00727   0.02083   0.02767   1.78364
    A4        1.87284  -0.00084  -0.00317  -0.00319  -0.00582   1.86702
    A5        2.34899  -0.00578  -0.00536  -0.03969  -0.04484   2.30415
    A6        1.70400   0.00471   0.01020   0.03425   0.04449   1.74849
    A7        3.04680  -0.00061  -0.00425  -0.05988  -0.06413   2.98267
    A8        3.07273  -0.00190  -0.04303  -0.13668  -0.17971   2.89303
    D1        2.00635  -0.00075  -0.00851  -0.00732  -0.01584   1.99051
    D2       -2.23685   0.00081   0.00056   0.02283   0.02365  -2.21320
    D3        1.88897   0.00090  -0.00314   0.01681   0.01461   1.90358
    D4       -2.15737   0.00008  -0.00370  -0.00602  -0.00904  -2.16641
         Item               Value     Threshold  Converged?
 Maximum Force            0.005778     0.000450     NO 
 RMS     Force            0.002344     0.000300     NO 
 Maximum Displacement     0.088646     0.001800     NO 
 RMS     Displacement     0.029967     0.001200     NO 
 Predicted change in Energy=-5.737186D-04
 GradGradGradGradGradGradGradGradGradGradGradGradGradGradGradGradGradGrad

                          Input orientation:                          
 ---------------------------------------------------------------------
 Center     Atomic      Atomic             Coordinates (Angstroms)
 Number     Number       Type             X           Y           Z
 ---------------------------------------------------------------------
      1          7           0        1.326155    1.668607    0.071805
      2          1           0        2.343515    1.655757    0.122157
      3          1           0        0.997206    2.255645    0.832767
      4          1           0        1.021425    0.717866    0.276384
      5          9           0        1.026575    1.607272   -2.574357
      6          1           0        1.045954    1.719144   -1.630704
 ---------------------------------------------------------------------
                    Distance matrix (angstroms):
                    1          2          3          4          5
     1  N    0.000000
     2  H    1.018686   0.000000
     3  H    1.015817   1.636270   0.000000
     4  H    1.019128   1.628297   1.635516   0.000000
     5  F    2.663772   3.001311   3.468392   2.986267   0.000000
     6  H    1.726153   2.181790   2.521686   2.154100   0.950458
                    6
     6  H    0.000000
 Stoichiometry    FH4N
 Framework group  C1[X(FH4N)]
 Deg. of freedom    12
 Full point group                 C1      NOp   1
 Largest Abelian subgroup         C1      NOp   1
 Largest concise Abelian subgroup C1      NOp   1
                         Standard orientation:                         
 ---------------------------------------------------------------------
 Center     Atomic      Atomic             Coordinates (Angstroms)
 Number     Number       Type             X           Y           Z
 ---------------------------------------------------------------------
      1          7           0        1.232384   -0.000053    0.029021
      2          1           0        1.401875    0.843564   -0.516235
      3          1           0        1.958466   -0.048035    0.737813
      4          1           0        1.384760   -0.782145   -0.606381
      5          9           0       -1.431280    0.001338    0.005064
      6          1           0       -0.490265   -0.025056    0.136077
 ---------------------------------------------------------------------
 Rotational constants (GHZ):         197.9544366           7.3709180           7.3580001
 Standard basis: Aug-CC-pVDZ (5D, 7F)
 There are    86 symmetry adapted cartesian basis functions of A   symmetry.
 There are    82 symmetry adapted basis functions of A   symmetry.
    82 basis functions,   130 primitive gaussians,    86 cartesian basis functions
    10 alpha electrons       10 beta electrons
       nuclear repulsion energy        36.8145715067 Hartrees.
 NAtoms=    6 NActive=    6 NUniq=    6 SFac= 1.00D+00 NAtFMM=   60 NAOKFM=F Big=F
 Integral buffers will be    131072 words long.
 Raffenetti 1 integral format.
 Two-electron integral symmetry is turned on.
 One-electron integrals computed using PRISM.
 NBasis=    82 RedAO= T EigKep=  1.33D-03  NBF=    82
 NBsUse=    82 1.00D-06 EigRej= -1.00D+00 NBFU=    82
 Initial guess from the checkpoint file:  "/gscratch/scrubbed/gds001/Gau-27566.chk"
 B after Tr=    -0.000000   -0.000000   -0.000000
         Rot=    0.999990    0.004528    0.000366   -0.000056 Ang=   0.52 deg.
 ExpMin= 2.97D-02 ExpMax= 1.47D+04 ExpMxC= 5.03D+02 IAcc=3 IRadAn=         5 AccDes= 0.00D+00
 Harris functional with IExCor=  205 and IRadAn=       5 diagonalized for initial guess.
 HarFok:  IExCor=  205 AccDes= 0.00D+00 IRadAn=         5 IDoV= 1 UseB2=F ITyADJ=14
 ICtDFT=  3500011 ScaDFX=  1.000000  1.000000  1.000000  1.000000
 FoFCou: FMM=F IPFlag=           0 FMFlag=      100000 FMFlg1=           0
         NFxFlg=           0 DoJE=T BraDBF=F KetDBF=T FulRan=T
         wScrn=  0.000000 ICntrl=       500 IOpCl=  0 I1Cent=   200000004 NGrid=           0
         NMat0=    1 NMatS0=      1 NMatT0=    0 NMatD0=    1 NMtDS0=    0 NMtDT0=    0
 Petite list used in FoFCou.
 Keep R1 ints in memory in canonical form, NReq=11656718.
 Requested convergence on RMS density matrix=1.00D-08 within 128 cycles.
 Requested convergence on MAX density matrix=1.00D-06.
 Requested convergence on             energy=1.00D-06.
 No special actions if energy rises.
 SCF Done:  E(RHF) =  -156.252922978     A.U. after    9 cycles
            NFock=  9  Conv=0.70D-08     -V/T= 2.0015
 ExpMin= 2.97D-02 ExpMax= 1.47D+04 ExpMxC= 5.03D+02 IAcc=3 IRadAn=         5 AccDes= 0.00D+00
 HarFok:  IExCor=  205 AccDes= 0.00D+00 IRadAn=         5 IDoV=-2 UseB2=F ITyADJ=14
 ICtDFT= 12500011 ScaDFX=  1.000000  1.000000  1.000000  1.000000
 Range of M.O.s used for correlation:     3    82
 NBasis=    82 NAE=    10 NBE=    10 NFC=     2 NFV=     0
 NROrb=     80 NOA=     8 NOB=     8 NVA=    72 NVB=    72

 **** Warning!!: The largest alpha MO coefficient is  0.10210650D+02

 Fully direct method using O(ONN) memory.
 JobTyp=1 Pass  1:  I=   3 to  10 NPSUse= 28 ParTrn=T ParDer=T DoDerP=T.
 Spin components of T(2) and E(2):
     alpha-alpha T2 =       0.1436463296D-01 E2=     -0.5408558239D-01
     alpha-beta  T2 =       0.8251422975D-01 E2=     -0.3189476698D+00
     beta-beta   T2 =       0.1436463296D-01 E2=     -0.5408558239D-01
 ANorm=    0.1054155347D+01
 E2 =    -0.4271188346D+00 EUMP2 =    -0.15668004181211D+03
          IDoAtm=111111
          Differentiating once with respect to electric field.
                with respect to dipole field.
          Differentiating once with respect to nuclear coordinates.
 Keep R1 ints in memory in canonical form, NReq=11658282.
          There are     1 degrees of freedom in the 1st order CPHF.  IDoFFX=0 NUNeed=     1.
 LinEq1:  Iter=  0 NonCon=     1 RMS=5.55D-03 Max=4.76D-02 NDo=     1
 AX will form     1 AO Fock derivatives at one time.
 LinEq1:  Iter=  1 NonCon=     1 RMS=1.47D-03 Max=1.14D-02 NDo=     1
 LinEq1:  Iter=  2 NonCon=     1 RMS=4.28D-04 Max=3.45D-03 NDo=     1
 LinEq1:  Iter=  3 NonCon=     1 RMS=5.72D-05 Max=5.34D-04 NDo=     1
 LinEq1:  Iter=  4 NonCon=     1 RMS=2.11D-05 Max=1.24D-04 NDo=     1
 LinEq1:  Iter=  5 NonCon=     1 RMS=3.10D-06 Max=1.87D-05 NDo=     1
 LinEq1:  Iter=  6 NonCon=     1 RMS=6.58D-07 Max=5.30D-06 NDo=     1
 LinEq1:  Iter=  7 NonCon=     1 RMS=1.25D-07 Max=1.30D-06 NDo=     1
 LinEq1:  Iter=  8 NonCon=     1 RMS=1.54D-08 Max=1.38D-07 NDo=     1
 LinEq1:  Iter=  9 NonCon=     1 RMS=2.21D-09 Max=1.57D-08 NDo=     1
 LinEq1:  Iter= 10 NonCon=     1 RMS=3.72D-10 Max=2.01D-09 NDo=     1
 LinEq1:  Iter= 11 NonCon=     0 RMS=5.33D-11 Max=5.02D-10 NDo=     1
 Linear equations converged to 1.000D-10 1.000D-09 after    11 iterations.
 End of Minotr F.D. properties file   721 does not exist.
 End of Minotr F.D. properties file   722 does not exist.
 End of Minotr F.D. properties file   788 does not exist.
 Calling FoFJK, ICntrl=  10002127 FMM=F ISym2X=0 I1Cent= 0 IOpClX= 0 NMat=1 NMatS=1 NMatT=0.
 ***** Axes restored to original set *****
 -------------------------------------------------------------------
 Center     Atomic                   Forces (Hartrees/Bohr)
 Number     Number              X              Y              Z
 -------------------------------------------------------------------
      1        7           0.001335263   -0.004270352   -0.004078713
      2        1           0.001632844    0.000507619    0.001282536
      3        1          -0.001841714    0.002687354    0.000323769
      4        1          -0.000435784   -0.001093327    0.002105043
      5        9          -0.000806586   -0.000494700   -0.003849524
      6        1           0.000115977    0.002663406    0.004216890
 -------------------------------------------------------------------
 Cartesian Forces:  Max     0.004270352 RMS     0.002337640

 GradGradGradGradGradGradGradGradGradGradGradGradGradGradGradGradGradGrad
 Berny optimization.
 Using GEDIIS/GDIIS optimizer.
 FormGI is forming the generalized inverse of G from B-inverse, IUseBI=4.
 Internal  Forces:  Max     0.004306654 RMS     0.001923489
 Search for a local minimum.
 Step number   3 out of a maximum of   27
 All quantities printed in internal units (Hartrees-Bohrs-Radians)
 Mixed Optimization -- RFO/linear search
 Update second derivatives using D2CorX and points    1    2    3
 DE= -7.01D-04 DEPred=-5.74D-04 R= 1.22D+00
 TightC=F SS=  1.41D+00  RLast= 2.07D-01 DXNew= 8.4853D-01 6.2078D-01
 Trust test= 1.22D+00 RLast= 2.07D-01 DXMaxT set to 6.21D-01
 The second derivative matrix:
                          R1        R2        R3        R4        R5
           R1           0.43296
           R2           0.03048   0.44253
           R3           0.02353   0.02812   0.42910
           R4           0.00075   0.00128   0.00060   0.06670
           R5           0.02970   0.03992   0.02868   0.00154   0.57836
           A1          -0.00691  -0.00782  -0.00684  -0.00143  -0.01220
           A2          -0.00710  -0.00754  -0.00647  -0.00045  -0.00463
           A3           0.01074   0.01166   0.01093   0.00312   0.01994
           A4           0.00070   0.00127   0.00060  -0.00028   0.00225
           A5          -0.01052  -0.01185  -0.01178  -0.00522  -0.03252
           A6           0.01328   0.01457   0.01415   0.00515   0.03193
           A7           0.00383   0.00579   0.00434   0.00118   0.01859
           A8           0.00514   0.00704   0.00494   0.00008   0.01249
           D1           0.01382   0.01626   0.01294   0.00095   0.01908
           D2           0.00423   0.00468   0.00377   0.00004   0.00263
           D3           0.00787   0.00894   0.00716   0.00026   0.00730
           D4           0.00364   0.00426   0.00339   0.00022   0.00467
                          A1        A2        A3        A4        A5
           A1           0.15797
           A2          -0.00199   0.15618
           A3           0.00525   0.00332   0.14672
           A4          -0.00156  -0.00093   0.00311   0.15974
           A5          -0.00702  -0.00146   0.02005  -0.00464   0.12562
           A6           0.00823   0.00418  -0.02151   0.00491   0.03378
           A7          -0.00019   0.00146  -0.00098   0.00137  -0.00074
           A8          -0.00196   0.00070   0.00377   0.00042  -0.00817
           D1          -0.00034   0.00219   0.00005   0.00146  -0.00295
           D2          -0.00012   0.00052   0.00038   0.00020  -0.00123
           D3          -0.00022   0.00108   0.00045   0.00056  -0.00208
           D4          -0.00010   0.00057   0.00007   0.00036  -0.00086
                          A6        A7        A8        D1        D2
           A6           0.12489
           A7          -0.00051   0.01433
           A8           0.00692   0.00355   0.01153
           D1           0.00067   0.00184   0.00209   0.00680
           D2           0.00062  -0.00034  -0.00011   0.00038   0.00250
           D3           0.00088   0.00005   0.00035   0.00094   0.00030
           D4           0.00026   0.00039   0.00046   0.00057   0.00011
                          D3        D4
           D3           0.00285
           D4           0.00025   0.00244
 ITU=  1  1  0
 Use linear search instead of GDIIS.
     Eigenvalues ---    0.00761   0.01542   0.03063   0.05636   0.06728
     Eigenvalues ---    0.07811   0.09775   0.16021   0.40663   0.40743
     Eigenvalues ---    0.46269   0.61500
 RFO step:  Lambda=-6.52868158D-04 EMin= 7.60553402D-03
 Quartic linear search produced a step of  0.40445.
 Iteration  1 RMS(Cart)=  0.05052711 RMS(Int)=  0.00602971
 Iteration  2 RMS(Cart)=  0.00637001 RMS(Int)=  0.00091130
 Iteration  3 RMS(Cart)=  0.00008821 RMS(Int)=  0.00090391
 Iteration  4 RMS(Cart)=  0.00000003 RMS(Int)=  0.00090391
 Variable       Old X    -DE/DX   Delta X   Delta X   Delta X     New X
                                 (Linear)    (Quad)   (Total)
    R1        1.92504   0.00169   0.00009  -0.00039  -0.00030   1.92474
    R2        1.91962   0.00239  -0.00004   0.00104   0.00100   1.92062
    R3        1.92587   0.00157  -0.00045  -0.00070  -0.00115   1.92473
    R4        3.26196  -0.00019  -0.00644  -0.01012  -0.01656   3.24540
    R5        1.79611   0.00390  -0.00491   0.00181  -0.00309   1.79301
    A1        1.86886   0.00028  -0.00408  -0.00652  -0.01060   1.85826
    A2        1.85140  -0.00057  -0.00142  -0.00060  -0.00444   1.84696
    A3        1.78364   0.00229   0.01119   0.02734   0.03736   1.82099
    A4        1.86702  -0.00024  -0.00235  -0.00479  -0.00591   1.86111
    A5        2.30415  -0.00431  -0.01813  -0.04988  -0.06768   2.23647
    A6        1.74849   0.00307   0.01800   0.04322   0.06113   1.80963
    A7        2.98267   0.00126  -0.02594   0.15427   0.12833   3.11101
    A8        2.89303  -0.00020  -0.07268  -0.05889  -0.13157   2.76145
    D1        1.99051  -0.00006  -0.00641  -0.00987  -0.01667   1.97384
    D2       -2.21320   0.00066   0.00957   0.02263   0.03256  -2.18064
    D3        1.90358   0.00089   0.00591   0.01917   0.02679   1.93037
    D4       -2.16641   0.00023  -0.00366  -0.00346  -0.00577  -2.17218
         Item               Value     Threshold  Converged?
 Maximum Force            0.004307     0.000450     NO 
 RMS     Force            0.001923     0.000300     NO 
 Maximum Displacement     0.115609     0.001800     NO 
 RMS     Displacement     0.054716     0.001200     NO 
 Predicted change in Energy=-4.218467D-04
 GradGradGradGradGradGradGradGradGradGradGradGradGradGradGradGradGradGrad

                          Input orientation:                          
 ---------------------------------------------------------------------
 Center     Atomic      Atomic             Coordinates (Angstroms)
 Number     Number       Type             X           Y           Z
 ---------------------------------------------------------------------
      1          7           0        1.340001    1.648861    0.059574
      2          1           0        2.352577    1.646644    0.169517
      3          1           0        0.973381    2.265992    0.779090
      4          1           0        1.032657    0.707650    0.298415
      5          9           0        0.965398    1.618051   -2.570324
      6          1           0        1.096818    1.737092   -1.638220
 ---------------------------------------------------------------------
                    Distance matrix (angstroms):
                    1          2          3          4          5
     1  N    0.000000
     2  H    1.018530   0.000000
     3  H    1.016348   1.630139   0.000000
     4  H    1.018521   1.624965   1.631868   0.000000
     5  F    2.656622   3.071125   3.411520   3.010485   0.000000
     6  H    1.717389   2.202957   2.477571   2.194179   0.948821
                    6
     6  H    0.000000
 Stoichiometry    FH4N
 Framework group  C1[X(FH4N)]
 Deg. of freedom    12
 Full point group                 C1      NOp   1
 Largest Abelian subgroup         C1      NOp   1
 Largest concise Abelian subgroup C1      NOp   1
                         Standard orientation:                         
 ---------------------------------------------------------------------
 Center     Atomic      Atomic             Coordinates (Angstroms)
 Number     Number       Type             X           Y           Z
 ---------------------------------------------------------------------
      1          7           0        1.225969   -0.000470    0.023374
      2          1           0        1.480451    0.835810   -0.499385
      3          1           0        1.888334   -0.073265    0.790796
      4          1           0        1.413376   -0.784719   -0.598895
      5          9           0       -1.430584   -0.003133    0.004458
      6          1           0       -0.488684    0.053662    0.103750
 ---------------------------------------------------------------------
 Rotational constants (GHZ):         194.8663708           7.3914970           7.3836430
 Standard basis: Aug-CC-pVDZ (5D, 7F)
 There are    86 symmetry adapted cartesian basis functions of A   symmetry.
 There are    82 symmetry adapted basis functions of A   symmetry.
    82 basis functions,   130 primitive gaussians,    86 cartesian basis functions
    10 alpha electrons       10 beta electrons
       nuclear repulsion energy        36.8421868390 Hartrees.
 NAtoms=    6 NActive=    6 NUniq=    6 SFac= 1.00D+00 NAtFMM=   60 NAOKFM=F Big=F
 Integral buffers will be    131072 words long.
 Raffenetti 1 integral format.
 Two-electron integral symmetry is turned on.
 One-electron integrals computed using PRISM.
 NBasis=    82 RedAO= T EigKep=  1.36D-03  NBF=    82
 NBsUse=    82 1.00D-06 EigRej= -1.00D+00 NBFU=    82
 Initial guess from the checkpoint file:  "/gscratch/scrubbed/gds001/Gau-27566.chk"
 B after Tr=    -0.000000    0.000000    0.000000
         Rot=    0.999993   -0.001817    0.002924    0.001249 Ang=  -0.42 deg.
 ExpMin= 2.97D-02 ExpMax= 1.47D+04 ExpMxC= 5.03D+02 IAcc=3 IRadAn=         5 AccDes= 0.00D+00
 Harris functional with IExCor=  205 and IRadAn=       5 diagonalized for initial guess.
 HarFok:  IExCor=  205 AccDes= 0.00D+00 IRadAn=         5 IDoV= 1 UseB2=F ITyADJ=14
 ICtDFT=  3500011 ScaDFX=  1.000000  1.000000  1.000000  1.000000
 FoFCou: FMM=F IPFlag=           0 FMFlag=      100000 FMFlg1=           0
         NFxFlg=           0 DoJE=T BraDBF=F KetDBF=T FulRan=T
         wScrn=  0.000000 ICntrl=       500 IOpCl=  0 I1Cent=   200000004 NGrid=           0
         NMat0=    1 NMatS0=      1 NMatT0=    0 NMatD0=    1 NMtDS0=    0 NMtDT0=    0
 Petite list used in FoFCou.
 Keep R1 ints in memory in canonical form, NReq=11656718.
 Requested convergence on RMS density matrix=1.00D-08 within 128 cycles.
 Requested convergence on MAX density matrix=1.00D-06.
 Requested convergence on             energy=1.00D-06.
 No special actions if energy rises.
 SCF Done:  E(RHF) =  -156.253433933     A.U. after   10 cycles
            NFock= 10  Conv=0.58D-08     -V/T= 2.0014
 ExpMin= 2.97D-02 ExpMax= 1.47D+04 ExpMxC= 5.03D+02 IAcc=3 IRadAn=         5 AccDes= 0.00D+00
 HarFok:  IExCor=  205 AccDes= 0.00D+00 IRadAn=         5 IDoV=-2 UseB2=F ITyADJ=14
 ICtDFT= 12500011 ScaDFX=  1.000000  1.000000  1.000000  1.000000
 Range of M.O.s used for correlation:     3    82
 NBasis=    82 NAE=    10 NBE=    10 NFC=     2 NFV=     0
 NROrb=     80 NOA=     8 NOB=     8 NVA=    72 NVB=    72

 **** Warning!!: The largest alpha MO coefficient is  0.10254787D+02

 Fully direct method using O(ONN) memory.
 JobTyp=1 Pass  1:  I=   3 to  10 NPSUse= 28 ParTrn=T ParDer=T DoDerP=T.
 Spin components of T(2) and E(2):
     alpha-alpha T2 =       0.1435373614D-01 E2=     -0.5408258331D-01
     alpha-beta  T2 =       0.8243392584D-01 E2=     -0.3188809803D+00
     beta-beta   T2 =       0.1435373614D-01 E2=     -0.5408258331D-01
 ANorm=    0.1054106920D+01
 E2 =    -0.4270461470D+00 EUMP2 =    -0.15668048008013D+03
          IDoAtm=111111
          Differentiating once with respect to electric field.
                with respect to dipole field.
          Differentiating once with respect to nuclear coordinates.
 Keep R1 ints in memory in canonical form, NReq=11658282.
          There are     1 degrees of freedom in the 1st order CPHF.  IDoFFX=0 NUNeed=     1.
 LinEq1:  Iter=  0 NonCon=     1 RMS=5.54D-03 Max=3.28D-02 NDo=     1
 AX will form     1 AO Fock derivatives at one time.
 LinEq1:  Iter=  1 NonCon=     1 RMS=1.46D-03 Max=1.00D-02 NDo=     1
 LinEq1:  Iter=  2 NonCon=     1 RMS=4.27D-04 Max=3.37D-03 NDo=     1
 LinEq1:  Iter=  3 NonCon=     1 RMS=5.72D-05 Max=5.12D-04 NDo=     1
 LinEq1:  Iter=  4 NonCon=     1 RMS=2.11D-05 Max=1.29D-04 NDo=     1
 LinEq1:  Iter=  5 NonCon=     1 RMS=3.07D-06 Max=1.91D-05 NDo=     1
 LinEq1:  Iter=  6 NonCon=     1 RMS=6.41D-07 Max=5.35D-06 NDo=     1
 LinEq1:  Iter=  7 NonCon=     1 RMS=1.23D-07 Max=1.28D-06 NDo=     1
 LinEq1:  Iter=  8 NonCon=     1 RMS=1.49D-08 Max=1.33D-07 NDo=     1
 LinEq1:  Iter=  9 NonCon=     1 RMS=2.11D-09 Max=1.56D-08 NDo=     1
 LinEq1:  Iter= 10 NonCon=     1 RMS=3.56D-10 Max=1.89D-09 NDo=     1
 LinEq1:  Iter= 11 NonCon=     0 RMS=5.11D-11 Max=4.82D-10 NDo=     1
 Linear equations converged to 1.000D-10 1.000D-09 after    11 iterations.
 End of Minotr F.D. properties file   721 does not exist.
 End of Minotr F.D. properties file   722 does not exist.
 End of Minotr F.D. properties file   788 does not exist.
 Calling FoFJK, ICntrl=  10002127 FMM=F ISym2X=0 I1Cent= 0 IOpClX= 0 NMat=1 NMatS=1 NMatT=0.
 ***** Axes restored to original set *****
 -------------------------------------------------------------------
 Center     Atomic                   Forces (Hartrees/Bohr)
 Number     Number              X              Y              Z
 -------------------------------------------------------------------
      1        7           0.003150836   -0.002401137   -0.002245434
      2        1           0.002140623    0.000357307    0.001134565
      3        1          -0.002090658    0.002768570    0.000043895
      4        1          -0.001171266   -0.001596370    0.000880353
      5        9           0.000216663    0.000173973   -0.006683298
      6        1          -0.002246198    0.000697657    0.006869919
 -------------------------------------------------------------------
 Cartesian Forces:  Max     0.006869919 RMS     0.002798184

 GradGradGradGradGradGradGradGradGradGradGradGradGradGradGradGradGradGrad
 Berny optimization.
 Using GEDIIS/GDIIS optimizer.
 FormGI is forming the generalized inverse of G from B-inverse, IUseBI=4.
 Internal  Forces:  Max     0.006513715 RMS     0.002235669
 Search for a local minimum.
 Step number   4 out of a maximum of   27
 All quantities printed in internal units (Hartrees-Bohrs-Radians)
 Mixed Optimization -- RFO/linear search
 Update second derivatives using D2CorX and points    2    3    4
 DE= -4.38D-04 DEPred=-4.22D-04 R= 1.04D+00
 TightC=F SS=  1.41D+00  RLast= 2.15D-01 DXNew= 1.0440D+00 6.4369D-01
 Trust test= 1.04D+00 RLast= 2.15D-01 DXMaxT set to 6.44D-01
 The second derivative matrix:
                          R1        R2        R3        R4        R5
           R1           0.43147
           R2           0.02828   0.43946
           R3           0.02270   0.02670   0.42887
           R4           0.00218   0.00288   0.00204   0.06706
           R5           0.03598   0.04579   0.03659   0.00731   0.63227
           A1          -0.00661  -0.00741  -0.00665  -0.00163  -0.01286
           A2          -0.00611  -0.00648  -0.00542  -0.00006   0.00028
           A3           0.00701   0.00689   0.00791   0.00419   0.01866
           A4           0.00271   0.00341   0.00278   0.00064   0.01313
           A5          -0.00278  -0.00202  -0.00544  -0.00723  -0.02841
           A6           0.00502   0.00471   0.00660   0.00519   0.01324
           A7           0.00079   0.00264   0.00104  -0.00026   0.00201
           A8           0.00873   0.01091   0.00877   0.00155   0.03073
           D1           0.01515   0.01768   0.01436   0.00150   0.02589
           D2           0.00350   0.00386   0.00304  -0.00011  -0.00012
           D3           0.00791   0.00888   0.00731   0.00059   0.00961
           D4           0.00441   0.00503   0.00427   0.00071   0.00973
                          A1        A2        A3        A4        A5
           A1           0.15792
           A2          -0.00212   0.15655
           A3           0.00586   0.00387   0.14100
           A4          -0.00182  -0.00007   0.00405   0.16171
           A5          -0.00829  -0.00243   0.03164  -0.00621   0.10224
           A6           0.00948   0.00360  -0.03085   0.00312   0.05215
           A7           0.00021   0.00012  -0.00234  -0.00171   0.00145
           A8          -0.00243   0.00210   0.00569   0.00364  -0.01152
           D1          -0.00052   0.00271   0.00074   0.00267  -0.00415
           D2          -0.00002   0.00034  -0.00021  -0.00023  -0.00010
           D3          -0.00021   0.00134   0.00002   0.00111  -0.00113
           D4          -0.00019   0.00100   0.00024   0.00133  -0.00103
                          A6        A7        A8        D1        D2
           A6           0.11488
           A7           0.00249   0.01929
           A8           0.00454  -0.00145   0.01677
           D1          -0.00026  -0.00002   0.00405   0.00754
           D2           0.00047   0.00033  -0.00078   0.00012   0.00256
           D3          -0.00057  -0.00080   0.00129   0.00129   0.00014
           D4          -0.00105  -0.00113   0.00207   0.00117  -0.00013
                          D3        D4
           D3           0.00292
           D4           0.00048   0.00291
 ITU=  1  1  1  0
 Use linear search instead of GDIIS.
     Eigenvalues ---    0.00928   0.01905   0.02677   0.04037   0.06745
     Eigenvalues ---    0.07691   0.09311   0.16417   0.40672   0.40743
     Eigenvalues ---    0.45863   0.66553
 RFO step:  Lambda=-7.88188117D-04 EMin= 9.28320528D-03
 Quartic linear search produced a step of  0.16881.
 Iteration  1 RMS(Cart)=  0.04686559 RMS(Int)=  0.00254947
 Iteration  2 RMS(Cart)=  0.00192616 RMS(Int)=  0.00180898
 Iteration  3 RMS(Cart)=  0.00000172 RMS(Int)=  0.00180898
 Iteration  4 RMS(Cart)=  0.00000001 RMS(Int)=  0.00180898
 Variable       Old X    -DE/DX   Delta X   Delta X   Delta X     New X
                                 (Linear)    (Quad)   (Total)
    R1        1.92474   0.00213  -0.00005   0.00224   0.00219   1.92693
    R2        1.92062   0.00247   0.00017   0.00356   0.00373   1.92435
    R3        1.92473   0.00204  -0.00019   0.00113   0.00093   1.92566
    R4        3.24540   0.00022  -0.00280  -0.01580  -0.01859   3.22680
    R5        1.79301   0.00651  -0.00052   0.00520   0.00468   1.79769
    A1        1.85826   0.00015  -0.00179  -0.01055  -0.01172   1.84654
    A2        1.84696  -0.00017  -0.00075   0.00209  -0.00368   1.84328
    A3        1.82099   0.00235   0.00631   0.05715   0.06121   1.88221
    A4        1.86111   0.00071  -0.00100  -0.00623  -0.00521   1.85590
    A5        2.23647  -0.00385  -0.01143  -0.09898  -0.10936   2.12711
    A6        1.80963   0.00126   0.01032   0.07130   0.08060   1.89023
    A7        3.11101  -0.00137   0.02166  -0.08714  -0.06548   3.04553
    A8        2.76145   0.00112  -0.02221  -0.04664  -0.06885   2.69261
    D1        1.97384   0.00041  -0.00281  -0.01371  -0.01705   1.95680
    D2       -2.18064   0.00040   0.00550   0.03641   0.04301  -2.13763
    D3        1.93037   0.00112   0.00452   0.04863   0.05659   1.98696
    D4       -2.17218   0.00072  -0.00097   0.01222   0.01358  -2.15860
         Item               Value     Threshold  Converged?
 Maximum Force            0.006514     0.000450     NO 
 RMS     Force            0.002236     0.000300     NO 
 Maximum Displacement     0.119332     0.001800     NO 
 RMS     Displacement     0.046890     0.001200     NO 
 Predicted change in Energy=-4.216437D-04
 GradGradGradGradGradGradGradGradGradGradGradGradGradGradGradGradGradGrad

                          Input orientation:                          
 ---------------------------------------------------------------------
 Center     Atomic      Atomic             Coordinates (Angstroms)
 Number     Number       Type             X           Y           Z
 ---------------------------------------------------------------------
      1          7           0        1.352537    1.619079    0.045551
      2          1           0        2.361095    1.636095    0.194827
      3          1           0        0.961875    2.278578    0.715942
      4          1           0        1.046913    0.693488    0.342647
      5          9           0        0.968988    1.632628   -2.568835
      6          1           0        1.069423    1.764422   -1.632081
 ---------------------------------------------------------------------
                    Distance matrix (angstroms):
                    1          2          3          4          5
     1  N    0.000000
     2  H    1.019687   0.000000
     3  H    1.018322   1.625473   0.000000
     4  H    1.019015   1.624018   1.630672   0.000000
     5  F    2.642406   3.094479   3.347695   3.060193   0.000000
     6  H    1.707551   2.241089   2.406063   2.246544   0.951296
                    6
     6  H    0.000000
 Stoichiometry    FH4N
 Framework group  C1[X(FH4N)]
 Deg. of freedom    12
 Full point group                 C1      NOp   1
 Largest Abelian subgroup         C1      NOp   1
 Largest concise Abelian subgroup C1      NOp   1
                         Standard orientation:                         
 ---------------------------------------------------------------------
 Center     Atomic      Atomic             Coordinates (Angstroms)
 Number     Number       Type             X           Y           Z
 ---------------------------------------------------------------------
      1          7           0        1.216522    0.003115    0.014672
      2          1           0        1.513278    0.655092   -0.711017
      3          1           0        1.814687    0.190504    0.817209
      4          1           0        1.474856   -0.922043   -0.325527
      5          9           0       -1.425833   -0.002703   -0.000571
      6          1           0       -0.485978    0.078964    0.121768
 ---------------------------------------------------------------------
 Rotational constants (GHZ):         191.4947066           7.4503176           7.4475006
 Standard basis: Aug-CC-pVDZ (5D, 7F)
 There are    86 symmetry adapted cartesian basis functions of A   symmetry.
 There are    82 symmetry adapted basis functions of A   symmetry.
    82 basis functions,   130 primitive gaussians,    86 cartesian basis functions
    10 alpha electrons       10 beta electrons
       nuclear repulsion energy        36.8833291923 Hartrees.
 NAtoms=    6 NActive=    6 NUniq=    6 SFac= 1.00D+00 NAtFMM=   60 NAOKFM=F Big=F
 Integral buffers will be    131072 words long.
 Raffenetti 1 integral format.
 Two-electron integral symmetry is turned on.
 One-electron integrals computed using PRISM.
 NBasis=    82 RedAO= T EigKep=  1.38D-03  NBF=    82
 NBsUse=    82 1.00D-06 EigRej= -1.00D+00 NBFU=    82
 Initial guess from the checkpoint file:  "/gscratch/scrubbed/gds001/Gau-27566.chk"
 B after Tr=     0.000000   -0.000000    0.000000
         Rot=    0.988445    0.151552    0.002882   -0.000856 Ang=  17.44 deg.
 ExpMin= 2.97D-02 ExpMax= 1.47D+04 ExpMxC= 5.03D+02 IAcc=3 IRadAn=         5 AccDes= 0.00D+00
 Harris functional with IExCor=  205 and IRadAn=       5 diagonalized for initial guess.
 HarFok:  IExCor=  205 AccDes= 0.00D+00 IRadAn=         5 IDoV= 1 UseB2=F ITyADJ=14
 ICtDFT=  3500011 ScaDFX=  1.000000  1.000000  1.000000  1.000000
 FoFCou: FMM=F IPFlag=           0 FMFlag=      100000 FMFlg1=           0
         NFxFlg=           0 DoJE=T BraDBF=F KetDBF=T FulRan=T
         wScrn=  0.000000 ICntrl=       500 IOpCl=  0 I1Cent=   200000004 NGrid=           0
         NMat0=    1 NMatS0=      1 NMatT0=    0 NMatD0=    1 NMtDS0=    0 NMtDT0=    0
 Petite list used in FoFCou.
 Keep R1 ints in memory in canonical form, NReq=11656806.
 Requested convergence on RMS density matrix=1.00D-08 within 128 cycles.
 Requested convergence on MAX density matrix=1.00D-06.
 Requested convergence on             energy=1.00D-06.
 No special actions if energy rises.
 SCF Done:  E(RHF) =  -156.253531340     A.U. after   10 cycles
            NFock= 10  Conv=0.44D-08     -V/T= 2.0015
 ExpMin= 2.97D-02 ExpMax= 1.47D+04 ExpMxC= 5.03D+02 IAcc=3 IRadAn=         5 AccDes= 0.00D+00
 HarFok:  IExCor=  205 AccDes= 0.00D+00 IRadAn=         5 IDoV=-2 UseB2=F ITyADJ=14
 ICtDFT= 12500011 ScaDFX=  1.000000  1.000000  1.000000  1.000000
 Range of M.O.s used for correlation:     3    82
 NBasis=    82 NAE=    10 NBE=    10 NFC=     2 NFV=     0
 NROrb=     80 NOA=     8 NOB=     8 NVA=    72 NVB=    72
 Fully direct method using O(ONN) memory.
 JobTyp=1 Pass  1:  I=   3 to  10 NPSUse= 28 ParTrn=T ParDer=T DoDerP=T.
 Spin components of T(2) and E(2):
     alpha-alpha T2 =       0.1437284265D-01 E2=     -0.5412414920D-01
     alpha-beta  T2 =       0.8254089647D-01 E2=     -0.3190702211D+00
     beta-beta   T2 =       0.1437284265D-01 E2=     -0.5412414920D-01
 ANorm=    0.1054175783D+01
 E2 =    -0.4273185195D+00 EUMP2 =    -0.15668084985959D+03
          IDoAtm=111111
          Differentiating once with respect to electric field.
                with respect to dipole field.
          Differentiating once with respect to nuclear coordinates.
 Keep R1 ints in memory in canonical form, NReq=11658370.
          There are     1 degrees of freedom in the 1st order CPHF.  IDoFFX=0 NUNeed=     1.
 LinEq1:  Iter=  0 NonCon=     1 RMS=5.56D-03 Max=3.89D-02 NDo=     1
 AX will form     1 AO Fock derivatives at one time.
 LinEq1:  Iter=  1 NonCon=     1 RMS=1.47D-03 Max=1.22D-02 NDo=     1
 LinEq1:  Iter=  2 NonCon=     1 RMS=4.29D-04 Max=3.15D-03 NDo=     1
 LinEq1:  Iter=  3 NonCon=     1 RMS=5.77D-05 Max=6.01D-04 NDo=     1
 LinEq1:  Iter=  4 NonCon=     1 RMS=2.14D-05 Max=1.19D-04 NDo=     1
 LinEq1:  Iter=  5 NonCon=     1 RMS=3.09D-06 Max=1.95D-05 NDo=     1
 LinEq1:  Iter=  6 NonCon=     1 RMS=6.27D-07 Max=5.24D-06 NDo=     1
 LinEq1:  Iter=  7 NonCon=     1 RMS=1.21D-07 Max=1.26D-06 NDo=     1
 LinEq1:  Iter=  8 NonCon=     1 RMS=1.46D-08 Max=1.32D-07 NDo=     1
 LinEq1:  Iter=  9 NonCon=     1 RMS=2.06D-09 Max=1.57D-08 NDo=     1
 LinEq1:  Iter= 10 NonCon=     1 RMS=3.51D-10 Max=1.97D-09 NDo=     1
 LinEq1:  Iter= 11 NonCon=     0 RMS=5.05D-11 Max=4.75D-10 NDo=     1
 Linear equations converged to 1.000D-10 1.000D-09 after    11 iterations.
 End of Minotr F.D. properties file   721 does not exist.
 End of Minotr F.D. properties file   722 does not exist.
 End of Minotr F.D. properties file   788 does not exist.
 Calling FoFJK, ICntrl=  10002127 FMM=F ISym2X=0 I1Cent= 0 IOpClX= 0 NMat=1 NMatS=1 NMatT=0.
 ***** Axes restored to original set *****
 -------------------------------------------------------------------
 Center     Atomic                   Forces (Hartrees/Bohr)
 Number     Number              X              Y              Z
 -------------------------------------------------------------------
      1        7           0.002374340    0.000680005    0.001355842
      2        1           0.001429976    0.000260029   -0.000455561
      3        1          -0.001767043    0.001540016   -0.000105401
      4        1          -0.001434950   -0.001311386   -0.000345120
      5        9          -0.000858777    0.001787242   -0.006003326
      6        1           0.000256455   -0.002955905    0.005553565
 -------------------------------------------------------------------
 Cartesian Forces:  Max     0.006003326 RMS     0.002348501

 GradGradGradGradGradGradGradGradGradGradGradGradGradGradGradGradGradGrad
 Berny optimization.
 Using GEDIIS/GDIIS optimizer.
 FormGI is forming the generalized inverse of G from B-inverse, IUseBI=4.
 Internal  Forces:  Max     0.005754614 RMS     0.001795761
 Search for a local minimum.
 Step number   5 out of a maximum of   27
 All quantities printed in internal units (Hartrees-Bohrs-Radians)
 Mixed Optimization -- RFO/linear search
 Update second derivatives using D2CorX and points    2    3    4    5
 DE= -3.70D-04 DEPred=-4.22D-04 R= 8.77D-01
 TightC=F SS=  1.41D+00  RLast= 1.93D-01 DXNew= 1.0825D+00 5.7957D-01
 Trust test= 8.77D-01 RLast= 1.93D-01 DXMaxT set to 6.44D-01
 The second derivative matrix:
                          R1        R2        R3        R4        R5
           R1           0.42860
           R2           0.02466   0.43508
           R3           0.01991   0.02347   0.42664
           R4           0.00203   0.00299   0.00243   0.06765
           R5           0.02793   0.03722   0.03147   0.00973   0.62165
           A1          -0.00695  -0.00763  -0.00668  -0.00126  -0.01122
           A2          -0.00622  -0.00621  -0.00478   0.00080   0.00416
           A3           0.00374   0.00248   0.00423   0.00350   0.00752
           A4           0.00261   0.00347   0.00310   0.00105   0.01402
           A5           0.00354   0.00619   0.00117  -0.00645  -0.00950
           A6           0.00256   0.00067   0.00255   0.00315  -0.00294
           A7           0.00079   0.00381   0.00290   0.00194   0.01434
           A8           0.00762   0.01043   0.00936   0.00338   0.03652
           D1           0.01475   0.01761   0.01474   0.00236   0.02894
           D2           0.00318   0.00330   0.00244  -0.00046  -0.00234
           D3           0.00763   0.00841   0.00685   0.00034   0.00732
           D4           0.00445   0.00511   0.00442   0.00079   0.00966
                          A1        A2        A3        A4        A5
           A1           0.15795
           A2          -0.00166   0.15780
           A3           0.00493   0.00292   0.13756
           A4          -0.00139   0.00062   0.00377   0.16183
           A5          -0.00692  -0.00140   0.03873  -0.00598   0.08821
           A6           0.00805   0.00073  -0.03187   0.00158   0.05591
           A7           0.00126   0.00308  -0.00477   0.00018   0.00390
           A8          -0.00137   0.00480   0.00272   0.00495  -0.00755
           D1          -0.00003   0.00396  -0.00051   0.00330  -0.00255
           D2          -0.00029  -0.00017  -0.00034  -0.00044   0.00041
           D3          -0.00030   0.00102   0.00002   0.00083  -0.00088
           D4          -0.00001   0.00119   0.00036   0.00127  -0.00129
                          A6        A7        A8        D1        D2
           A6           0.11892
           A7          -0.00430   0.02669
           A8          -0.00248   0.00540   0.02231
           D1          -0.00340   0.00310   0.00666   0.00876
           D2           0.00127  -0.00089  -0.00194  -0.00040   0.00271
           D3          -0.00009  -0.00147   0.00044   0.00092   0.00025
           D4          -0.00135  -0.00059   0.00238   0.00132  -0.00015
                          D3        D4
           D3           0.00294
           D4           0.00039   0.00284
 ITU=  1  1  1  1  0
 Use linear search instead of GDIIS.
     Eigenvalues ---    0.01015   0.02001   0.03062   0.04240   0.06753
     Eigenvalues ---    0.07949   0.09604   0.16504   0.40672   0.40762
     Eigenvalues ---    0.45698   0.64584
 RFO step:  Lambda=-4.19567523D-04 EMin= 1.01547003D-02
 Quartic linear search produced a step of -0.07848.
 Iteration  1 RMS(Cart)=  0.04149371 RMS(Int)=  0.00317157
 Iteration  2 RMS(Cart)=  0.00268682 RMS(Int)=  0.00027919
 Iteration  3 RMS(Cart)=  0.00001916 RMS(Int)=  0.00027829
 Iteration  4 RMS(Cart)=  0.00000000 RMS(Int)=  0.00027829
 Variable       Old X    -DE/DX   Delta X   Delta X   Delta X     New X
                                 (Linear)    (Quad)   (Total)
    R1        1.92693   0.00105  -0.00017   0.00040   0.00022   1.92715
    R2        1.92435   0.00161  -0.00029   0.00138   0.00108   1.92543
    R3        1.92566   0.00152  -0.00007   0.00052   0.00045   1.92610
    R4        3.22680   0.00062   0.00146  -0.00655  -0.00509   3.22171
    R5        1.79769   0.00575  -0.00037   0.00288   0.00251   1.80020
    A1        1.84654   0.00038   0.00092  -0.00284  -0.00168   1.84486
    A2        1.84328   0.00058   0.00029   0.00360   0.00309   1.84637
    A3        1.88221   0.00071  -0.00480   0.03664   0.03156   1.91377
    A4        1.85590   0.00082   0.00041  -0.00439  -0.00390   1.85200
    A5        2.12711  -0.00156   0.00858  -0.06566  -0.05693   2.07018
    A6        1.89023  -0.00063  -0.00633   0.03920   0.03253   1.92276
    A7        3.04553   0.00197   0.00514   0.07763   0.08277   3.12830
    A8        2.69261   0.00221   0.00540   0.04813   0.05353   2.74614
    D1        1.95680   0.00102   0.00134  -0.00349  -0.00220   1.95459
    D2       -2.13763   0.00001  -0.00338   0.02053   0.01746  -2.12017
    D3        1.98696   0.00071  -0.00444   0.04219   0.03826   2.02521
    D4       -2.15860   0.00070  -0.00107   0.02165   0.02080  -2.13780
         Item               Value     Threshold  Converged?
 Maximum Force            0.005755     0.000450     NO 
 RMS     Force            0.001796     0.000300     NO 
 Maximum Displacement     0.094823     0.001800     NO 
 RMS     Displacement     0.042787     0.001200     NO 
 Predicted change in Energy=-2.170893D-04
 GradGradGradGradGradGradGradGradGradGradGradGradGradGradGradGradGradGrad

                          Input orientation:                          
 ---------------------------------------------------------------------
 Center     Atomic      Atomic             Coordinates (Angstroms)
 Number     Number       Type             X           Y           Z
 ---------------------------------------------------------------------
      1          7           0        1.366872    1.600697    0.040768
      2          1           0        2.368716    1.633572    0.228468
      3          1           0        0.946551    2.286889    0.665764
      4          1           0        1.052833    0.688586    0.369863
      5          9           0        0.933340    1.667415   -2.571327
      6          1           0        1.092520    1.747130   -1.635485
 ---------------------------------------------------------------------
                    Distance matrix (angstroms):
                    1          2          3          4          5
     1  N    0.000000
     2  H    1.019806   0.000000
     3  H    1.018896   1.624994   0.000000
     4  H    1.019251   1.626204   1.628935   0.000000
     5  F    2.648668   3.146474   3.295858   3.102093   0.000000
     6  H    1.704856   2.261833   2.368205   2.267931   0.952624
                    6
     6  H    0.000000
 Stoichiometry    FH4N
[...]
 -0.00003651,0.00008181,0.00002545,0.00015330,-0.00002890,0.00005674,-0
 .00000349,0.00003225,0.00006392,-0.00000007,-0.00005137,-0.00017511,-0
 .00033660,-0.00057499,-0.00041850,0.00000106,-0.00001876,0.00002701,-0
 .00001824,0.00000174,0.00003911,0.00005298,0.00007390,0.00006469,0.001
 10894,0.00017543,-0.00235697,0.00007810,-0.00001401,0.00023695,-0.0000
 2492,0.00002451,-0.00018052,-0.00001471,-0.00000827,-0.00014719,-0.003
 30588,0.00017726,0.00146710,0.00095488,-0.00000164,0.00001492,0.000043
 15,0.00004553,-0.00000363,0.00023525,-0.00003983,0.00004072,-0.0002358
 4,-0.00013985,-0.00365263,-0.00235928,0.00094571,-0.01144636,0.0000612
 1,0.00002406,-0.00020532,-0.00007102,0.00008284,-0.00006882,-0.0000719
 2,-0.00007805,-0.00015021,0.00220625,-0.00077360,0.00861614,-0.0011639
 9,0.00000585,-0.00023392,-0.00007957,0.00005530,-0.00078126,0.00009057
 ,-0.00004000,0.00057389,0.00005904,-0.00002552,0.00044798,0.00215845,-
 0.00004148,0.00023478,-0.00106451,0.00000366,-0.00112519,0.00006654,-0
 .00002330,-0.00001165,-0.00012193,-0.00014992,0.00005635,-0.00073596,0
 .00016151,-0.00001172,0.00075396,-0.00003782,0.00213352,-0.00020097,0.
 00004585,-0.00104130,-0.00022558,0.00007529,-0.00243256,0.00021379,-0.
 00003002,0.00056543,-0.00001947,0.00008579,0.00031221,0.00003124,-0.00
 014559,0.00043789,0.00024149,-0.00022385,0.00325458,-0.00024146,0.0002
 3836,-0.00213755,-0.02821139,-0.00205236,-0.08287333,0.01128951,-0.001
 88224,-0.01399208,0.01522925,0.00193102,0.00474918,-0.01491001,0.00215
 163,-0.00369359,0.00042450,-0.00217697,0.00418294,0.00225232,-0.000354
 07,0.00275581,-0.00335747,-0.00057224,-0.00212396,0.00538582,-0.014592
 71,-0.00940913,-0.00036729,-0.00063923,-0.00032947,-0.00516455,-0.0128
 9874,0.02288538,0.01990410,0.00046262,-0.00080361,-0.00078647,0.012920
 71,-0.02196325,-0.00580322,0.01133456,0.00625381,-0.00014371,-0.000567
 21,0.00000347,0.00721281,-0.01842277,-0.00450347,0.00275145,0.01426670
 ,-0.00627508,-0.00009005,0.00083803,-0.00036631,-0.00040438,-0.0005865
 6,0.00036303,-0.00260243,0.01178322,0.03786357,-0.01983942,-0.00016876
 ,-0.00086685,0.00051611,0.00011355,0.00097173,0.00018016,-0.01208765,-
 0.03749467,-0.00311560,-0.00904520,0.00072521,-0.00035326,0.00029733,0
 .00000579,0.00039982,0.00025573,-0.00091323,0.00480240,0.01720276,0.00
 213076,-0.00111633,0.00031897,0.00022384,-0.00007789,0.00001870,0.0001
 6952,0.00009411,-0.00034057,0.00048689,0.00002524,0.00008188,0.0004988
 8,0.08084940,0.00002778,0.00518450,0.00004356,-0.00004508,-0.00003196,
 0.00027950,0.00082466,-0.00067755,0.00081817,-0.00067752,-0.00069781,-
 0.00100830,0.02356939,0.34499831,0.00243095,0.00077329,0.00204826,-0.0
 0112810,-0.00017117,-0.00006293,-0.00006678,-0.00018302,0.00075345,-0.
 00021433,-0.00042673,0.00097190,-0.21948621,0.10191788,-1.09399862,0.0
 0596117,0.00012838,-0.00057831,0.00021600,-0.00019216,0.00163142,0.000
 45628,0.00044255,-0.00211581,0.00032017,0.00027776,-0.00223224,-0.0797
 7455,-0.02369922,0.21846447,0.07282093,0.00098847,0.02063349,0.0013495
 0,-0.00000283,0.00121307,0.00091717,0.00137302,-0.00041269,0.00665708,
 -0.00175300,0.00022403,-0.00770232,-0.02364837,-0.34877550,-0.10191025
 ,0.02304271,0.32711760,-0.00705396,-0.00082635,0.00220898,0.00023336,0
 .00058880,-0.00057818,0.00219275,-0.00076757,-0.00159403,0.00169029,0.
 00236711,-0.00292043,0.21810709,-0.10205081,1.09028793,-0.21516954,0.1
 0068881,-1.08740427,-0.08348770,0.00087354,-0.03112051,0.00501877,-0.0
 0459780,-0.01048977,0.05086997,0.00252462,0.01453884,-0.05077965,0.003
 64700,-0.00108555,0.00089062,-0.00273572,0.00101058,0.00171625,0.00034
 391,-0.00395777,-0.01071382,-0.00063855,0.00766629,0.00622759,-0.01220
 385,-0.01106700,0.00023438,-0.00111797,-0.00042786,-0.00505726,-0.0122
 9256,0.01243438,0.01166096,-0.00034680,-0.00013947,-0.00034863,0.01200
 188,-0.01197808,-0.00568161,0.00778768,0.00687566,-0.00041700,-0.00025
 712,-0.00059553,0.01078788,-0.00935229,-0.00625838,0.00049764,0.008934
 38,-0.00451739,-0.00034964,0.00116089,-0.00022694,-0.00054252,-0.00056
 803,0.00079092,0.00041597,0.00847325,0.01419552,-0.00827926,0.00028240
 ,-0.00005058,0.00040780,0.00059514,-0.00059348,-0.00013456,-0.00889050
 ,-0.01374637,-0.00135887,-0.00532015,0.00411265,-0.00033010,0.00032297
 ,-0.00028532,0.00088842,0.00017944,-0.00013717,0.00458057,0.00649470,-
 0.00374207,0.00489733,-0.00033809,-0.00005357,-0.00059853,-0.00019732,
 0.00121226,-0.00040704,0.00068796,-0.00083711,-0.00019760,-0.00030272,
 -0.00075054,0.30497411,-0.00004049,-0.00142790,-0.00011365,-0.00000329
 ,0.00000755,-0.00023994,-0.00031681,0.00008196,-0.00013614,0.00016117,
 0.00003523,-0.00002257,0.01074718,0.11432774,-0.00226049,-0.00086541,0
 .00264490,0.00099589,0.00007893,0.00096694,0.00060863,-0.00036889,0.00
 034727,0.00059603,0.00076804,0.00006464,-0.26113859,0.08758106,-1.0874
 3910,0.02099516,0.00020941,-0.00391965,0.00062348,-0.00075688,0.008440
 10,-0.00045515,0.00051756,-0.00464306,0.00017616,-0.00015756,-0.003029
 49,-0.30866829,-0.01054775,0.26119852,0.28732864,-0.00066074,0.0070040
 6,0.00043914,0.00027879,0.00025748,0.00047541,0.00104162,0.00019469,0.
 00209243,-0.00079790,0.00015968,-0.00165438,-0.01059701,-0.11302458,-0
 .08719374,0.01073523,0.10540868,0.00256594,0.00265178,0.00081431,-0.00
 407380,-0.00039684,-0.00379461,-0.00079007,-0.00177060,-0.00023186,-0.
 00122319,0.00074329,-0.00001273,0.26156754,-0.08706876,1.08341534,-0.2
 5804643,0.08584114,-1.08019045,-0.34785580,-0.00207112,-0.35234509,0.0
 2913677,-0.01154811,-0.19284828,0.31888287,0.01598949,0.14864966,-0.30
 459718,0.01074828,-0.01741632,0.01190896,-0.01348835,0.01698748,0.2082
 5320,0.01706141,-0.00660419,-0.16260700,-0.01525337,0.03046338,0.02511
 170,-0.07832342,-0.11032319,-0.00708874,-0.00628040,-0.02405754,-0.024
 24476,-0.08455398,0.13177144,0.18026960,0.00974764,0.00279417,-0.00547
 574,0.07909896,-0.12733158,-0.14531085,0.22868654,0.13807777,0.0100967
 1,-0.01773984,-0.01409806,0.12515922,-0.19494266,-0.10568277,-0.001828
 91,0.06428164,-0.06576148,-0.00647725,0.00922486,-0.02350448,0.0067603
 8,-0.00446432,0.01091696,0.00198357,0.07575517,0.23203933,-0.18130318,
 -0.01229135,-0.00205349,0.00353447,0.00503798,-0.00651583,-0.01730529,
 -0.06850248,-0.22273764,-0.09037728,-0.23488223,0.06477972,0.00475874,
 0.02119526,-0.00984073,0.00842978,0.02113491,-0.01860266,0.07781390,0.
 19415391,-0.03655555,-0.00295318,0.00001166,-0.00015716,0.00100037,0.0
 0009403,-0.00022104,0.00034664,-0.00013708,0.00085809,0.00027701,-0.00
 005904,0.00078091,0.00176864,0.00001010,-0.00293084,0.00005839,-0.0000
 9077,0.00015226,-0.00026150,-0.00035838,0.00051971,-0.00063587,0.00034
 869,0.00073708,0.00033969,0.00002674,0.00182318,-0.00015707,0.00006696
 ,-0.00379468,0.00189562,-0.00008170,0.00292696,-0.00038488,0.00107946,
 0.00321393,-0.00009312,-0.00156430,0.00305999,-0.00037193,0.00015115,-
 0.00025632,0.00864330,0.00011174,-0.00154460,-0.00172008,-0.00029841,0
 .00213687,-0.00088522,0.00030879,-0.00172013,-0.00071480,0.00005972,-0
 .00140605,-0.00043950,0.00006362,-0.00088862,-0.00488371,0.00011156,0.
 00888147,0.00061435,0.00013334,-0.00046409,0.00039473,0.00082525,-0.00
 123791,0.00193712,-0.00088838,-0.00146944,-0.00194153,0.00006369,-0.00
 030138,0.00034843,-0.00024546,-0.00540864,-0.00154476,0.00061543,0.000
 38964,-0.00279374,-0.00002931,-0.00284736,0.00117661,-0.00206558,-0.00
 290820,0.00062822,0.00248440,-0.00284077,-0.00088888,0.00034816,-0.005
 14989,0.00342254,-0.00135310,0.01335658,-0.58852223,0.00051395,-0.2322
 3829,-0.04683942,-0.04799956,-0.10407540,0.55427995,0.04658610,0.08763
 020,-0.51703666,0.05361167,-0.05748377,0.00209603,-0.04781446,0.065116
 95,0.14905627,0.00566058,0.01289023,-0.13286936,-0.00393930,-0.0126146
 8,0.02074725,-0.03415359,-0.03128942,-0.01710604,-0.03885702,-0.013803
 25,0.00165833,-0.09079192,0.15510533,0.09870610,0.02191267,-0.00596604
 ,-0.00443915,0.06862476,-0.15111343,-0.07107681,0.10721034,0.06613497,
 0.02675644,-0.01239794,-0.00054950,0.04325948,-0.09587393,-0.06608708,
 0.01163685,-0.01295651,-0.00903404,-0.01826424,0.03318947,-0.00221844,
 -0.00530914,0.00001709,0.00074798,0.01170692,0.03670596,0.13526663,-0.
 05263964,-0.02055211,-0.00213417,0.00254301,0.00375318,0.00197149,0.00
 099393,-0.01978781,-0.13505870,-0.03105959,-0.06482591,0.02438223,0.01
 897562,0.01421003,0.00116716,0.00151599,0.00234655,0.00062013,0.010337
 69,0.04837082,-0.02645822,-0.00079185,0.00006947,0.00020392,0.00086658
 ,0.00009334,0.00003160,-0.00011864,-0.00015026,-0.00008009,-0.00017097
 ,0.00001127,-0.00008910,-0.00017483,-0.00005385,0.00073922,0.00016870,
 0.00011894,-0.00061094,-0.00015355,-0.00027561,-0.00006578,-0.00002650
 ,0.00017961,-0.00005646,0.00002591,0.00003903,0.00020128,0.00120276,0.
 00045907,-0.00091401,-0.00003118,-0.00016396,0.00089266,-0.00034719,0.
 00024789,0.00009727,-0.00032117,-0.00039843,-0.00018793,-0.00046843,0.
 00022996,-0.00286910,0.00265002,-0.00005941,-0.00067124,-0.00273958,-0
 .00022300,-0.00019683,0.00012825,0.00038766,0.00039301,0.00040059,-0.0
 0013049,0.00031939,0.00038973,-0.00000812,-0.00003479,-0.00082902,0.00
 001419,-0.00138911,-0.00033164,-0.00025114,0.00107796,0.00032841,0.000
 90828,0.00006843,0.00009410,-0.00064185,0.00001120,-0.00012740,-0.0000
 6284,-0.00020730,-0.00037452,0.00003336,0.00043882,-0.00128321,-0.0005
 0452,0.00158197,-0.00046171,0.00019515,-0.00178587,0.00066439,-0.00098
 746,-0.00021580,0.00048797,0.00113032,0.00047662,0.00040209,-0.0002445
 3,0.00298111,0.00019046,0.00041104,-0.00303803,-0.18979872,-0.00722802
 ,-0.56008547,0.14034683,0.01076450,-0.17487900,0.06483911,-0.00052645,
 0.02065994,-0.06867848,-0.01488957,0.03633542,0.00363036,0.00492933,-0
 .00718589,0.04256222,0.00726890,0.00440365,-0.01529347,-0.00124551,-0.
 01278421,0.09385066,-0.18191274,-0.10551688,0.00215808,-0.00319275,-0.
 01175434,-0.08411332,-0.13397059,0.17177925,0.12573253,0.01125939,-0.0
 1254496,-0.00057203,0.15665294,-0.14367377,-0.11464671,0.18491455,0.10
 763006,-0.00218893,0.00045956,0.00358767,0.10615050,-0.15300964,-0.109
 89033,0.03170929,0.18967495,-0.05594778,0.00169427,0.01326448,-0.01574
 159,-0.01204492,-0.03466114,0.01093637,-0.02161095,0.15604923,0.350060
 48,-0.14028521,-0.01565928,-0.01696148,-0.00537709,0.02800097,-0.01483
 788,-0.03193479,-0.16779425,-0.31696095,-0.06834291,-0.20300005,0.0622
 7495,-0.00252428,-0.00280924,0.00412684,0.01067050,0.02844667,-0.00071
 794,0.06057194,0.17698430,-0.06497043,0.00048733,-0.00005711,-0.000400
 09,-0.00007896,0.00004123,-0.00008091,-0.00016928,-0.00044231,0.000167
 09,-0.00031082,0.00043108,0.00028539,0.00010615,0.00006900,-0.00101117
 ,-0.00009269,-0.00003442,-0.00010013,0.00005226,-0.00037327,0.00025546
 ,0.00012669,0.00036515,0.00055659,-0.00012085,0.00003820,-0.00011151,-
 0.00140582,-0.00038458,-0.00044371,0.00053600,0.00011250,-0.00053477,0
 .00011356,0.00029862,0.00043525,0.00029371,-0.00018826,0.00059451,-0.0
 0058277,0.00018781,-0.00283527,-0.00108768,0.00004937,0.00085799,0.000
 06599,-0.00015273,0.00030809,0.00031878,0.00116171,-0.00041832,0.00056
 313,-0.00102775,-0.00066065,-0.00003441,-0.00006467,0.00104532,0.00017
 420,-0.00003007,0.00292150,0.00025050,0.00003142,0.00045703,-0.0001265
 3,0.00082486,-0.00097811,-0.00055637,-0.00084919,-0.00185676,0.0004991
 8,-0.00001110,0.00041076,-0.00002609,0.00003408,-0.00095442,0.00148639
 ,0.00043668,0.00101403,-0.00118926,-0.00014767,0.00120083,0.00033666,-
 0.00089616,-0.00104471,-0.00011265,0.00080105,-0.00130793,0.00061130,-
 0.00015322,0.00278400,-0.00113243,-0.00004068,-0.00264621,0.05744560,0
 .00051253,0.05850503,-0.00689116,0.00275802,0.02062102,-0.00823776,-0.
 00053195,-0.00427561,0.00597487,-0.00223722,0.00188794,0.00135543,0.00
 085348,-0.00218320,0.01509743,0.00302993,-0.01745553,-0.00149890,-0.00
 099184,0.00750438,-0.00378213,0.00831785,0.00017469,0.00063684,0.00005
 763,-0.00164073,0.00115739,0.00629271,-0.00703356,-0.00295818,0.000657
 90,0.00091938,0.00140468,-0.00454330,0.00378440,-0.01120294,0.01278110
 ,-0.01297057,0.00253453,-0.00038790,0.00136114,0.00173859,-0.00084488,
 0.00633836,-0.00155261,-0.00737492,-0.00180741,0.00078866,0.00016999,-
 0.00135690,0.00090354,0.00020251,-0.00035635,-0.00025937,-0.00364248,-
 0.00754027,0.00394069,-0.00111835,0.00095611,-0.00172358,-0.00001275,0
 .00041200,-0.00243160,0.00351231,0.00488102,-0.00981449,-0.01347966,-0
 .01465532,0.00228210,0.00074398,0.00118795,-0.00076845,0.00212134,0.00
 162361,0.00231114,0.00083871,0.00660328,0.00047206,-0.00062100,0.00863
 139,0.00007125,0.00009048,-0.00055977,-0.00007360,-0.00028737,0.000963
 44,-0.00017242,0.00010558,0.00086249,-1.06993398,-0.00061750,-0.000845
 22,-0.00341218,-0.00001289,-0.00038167,-0.00028859,-0.00041268,0.00000
 651,-0.00088841,0.00033398,0.00000716,0.00067307,-0.10761824,-1.300620
 16,0.00862735,-0.00342987,0.04656264,0.00063310,-0.00018448,0.00232817
 ,0.00026609,0.00007738,0.00208633,0.00037087,-0.00039679,0.00217775,1.
 50829533,-0.59437197,6.98724455,-0.04434519,-0.00030250,0.00416810,0.0
 0076614,0.00106564,-0.01004113,0.00115795,-0.00232245,0.00632273,0.000
 29220,0.00115570,0.00512721,1.06963667,0.10832734,-1.51819274,-1.02750
 778,-0.00030803,-0.04497393,-0.00168379,0.00015182,-0.00119856,-0.0014
 3060,-0.00340674,0.00191126,-0.00822831,0.00315614,0.00128398,0.009102
 56,0.10833054,1.30183336,0.59830572,-0.10792374,-1.25885611,0.00418381
 ,-0.00165953,-0.02210227,0.00032478,-0.00053519,0.00507388,0.00022981,
 0.00019966,0.00156113,0.00083865,-0.00022743,0.00306272,-1.51819287,0.
 59828807,-7.04039944,1.51261582,-0.59606558,7.05280399,1.49988800,0.02
 025129,1.54632218,-0.29113212,0.11639606,-0.04883988,-1.48749801,-0.12
 052730,-0.36656907,1.49878670,-0.11683722,0.27191467,-0.02631956,0.122
 02890,-0.28725337,-0.40866437,-0.02995527,0.21854283,0.37592599,0.0281
 5731,-0.24592470,-0.10437202,0.60974710,0.43533567,-0.00877048,0.03171
 517,0.01998033,0.09876878,0.61412716,-0.69182933,-0.68826435,-0.007683
 14,0.00983795,-0.00055937,-0.62629351,0.69635194,0.46004901,-0.7224862
 2,-0.20275599,-0.00624584,0.00305624,0.01366096,-0.45064291,0.70682916
 ,0.17238662,0.09352720,-0.50945398,0.22210679,-0.00396772,-0.03710596,
 0.01363454,0.01396584,0.02029012,-0.00357822,-0.10375619,-0.51752253,-
 1.12482285,0.59829627,0.00616938,0.00545419,0.00247037,-0.01450440,-0.
 01523201,0.01306225,0.52561277,1.13341899,0.23948061,0.63614831,0.0331
 8808,-0.00436378,-0.00496466,0.01325512,-0.00383740,-0.01927764,0.0160
 2513,-0.23166839,-0.61251207,-0.06301753,-0.00011199,-0.00004919,0.000
 66369,-0.00029724,-0.00005345,0.00028316,0.00001308,-0.00000655,-0.000
 19218,0.00003096,0.00006555,-0.00014946,-0.00220162,-0.00004794,-0.000
 21280,-0.00026204,0.00004478,0.00003350,0.00003412,0.00011124,-0.00008
 394,0.00020846,-0.00015194,-0.00019419,-0.00022235,-0.00031863,-0.0028
 8622,0.00065947,-0.00026733,0.00342285,-0.00083972,-0.00006188,-0.0000
 8540,0.00046899,-0.00070470,-0.00028005,0.00031688,0.00079305,-0.00018
 733,0.00446751,-0.00175799,0.02164742,-0.00143320,0.00003209,-0.000404
 96,0.00174675,0.00025256,-0.00115965,0.00039480,-0.00043409,0.00061013
 ,0.00019990,0.00017924,0.00053843,0.00256676,0.00036248,-0.00507312,-0
 .00347501,0.00002924,-0.00137187,0.00015362,-0.00003262,0.00001306,-0.
 00014718,-0.00077561,0.00095539,-0.00066989,0.00080899,0.00137587,0.00
 082841,0.00036227,0.00334363,0.00199885,-0.00039228,-0.00431607,-0.000
 39260,0.00016444,-0.00355790,0.00209241,0.00013255,0.00055120,-0.00130
 468,0.00197690,0.00096334,-0.00081160,-0.00210987,0.00073653,-0.005072
 72,0.00199980,-0.02451748,0.00548917,-0.00216381,0.02582430,-0.0490868
 0,-0.27099771,2.76342836,-1.21607130,0.28625760,0.33642055,0.00457895,
 -0.00686287,0.02239342,0.01496296,-0.00432175,-0.01722137,0.00002956,0
 .01021011,-0.00257770,-0.00341197,-0.00232627,-0.01414192,-0.00155662,
 0.00036558,-0.00108639,-0.13506165,1.08783620,0.81840286,-0.01004996,0
 .00323766,0.00222058,0.14853146,1.09126946,-1.11082769,-1.25904595,-0.
 00727475,0.00925677,0.00149016,-1.08462399,1.09070304,0.83146824,-1.27
 501691,-0.37006045,-0.01182735,0.00708849,0.00783722,-0.81861655,1.259
 73475,0.36345198,0.18178789,-0.81015143,0.37526268,-0.00966721,-0.0091
 7548,0.00271437,-0.00440580,0.00108466,-0.00099407,-0.16839044,-0.8159
 3133,-1.63149843,0.97308919,0.00397370,0.01010260,0.00044480,-0.005352
 03,0.00924702,0.00789839,0.81713900,1.61030351,0.38504791,0.99151818,0
 .04737829,-0.00888873,-0.00758366,0.00729185,-0.00041927,-0.00333751,-
 0.00202597,-0.37581003,-0.98049539,-0.05316522,0.00103120,-0.00014044,
 0.00028289,-0.00015267,-0.00003794,0.00007590,-0.00039958,0.00037397,-
 0.00009770,-0.00023177,-0.00019734,-0.00012347,0.00048041,-0.00016615,
 0.00156727,0.00010365,0.00001702,-0.00022952,-0.00008012,0.00069867,-0
 .00062061,-0.00009164,-0.00056882,-0.00064622,0.00006537,0.00003969,0.
 00026408,0.00070352,0.00008182,0.00021898,0.00017511,-0.00007516,0.000
 77899,-0.00025618,0.00039729,-0.00058291,-0.00021857,-0.00041447,-0.00
 045746,-0.00005485,-0.00001486,0.00039724,-0.00324961,0.00031625,-0.00
 027055,0.00032793,0.00008741,-0.00004226,0.00138554,-0.00082934,0.0000
 6742,0.00090733,0.00036800,0.00019359,-0.00072763,-0.00002040,-0.00034
 901,0.00135644,0.00014749,-0.00544815,-0.00043404,-0.00006321,0.000669
 22,0.00010584,-0.00179650,0.00224147,0.00038692,0.00167207,0.00249151,
 -0.00016700,-0.00003794,-0.00033500,0.00002537,0.00007808,0.00038095,0
 .00226360,-0.00051442,0.00018454,-0.00029583,0.00017519,-0.00067975,-0
 .00133144,0.00076125,0.00138015,-0.00095437,-0.00052253,0.00097851,-0.
 00008276,0.00001760,-0.00035484,0.00040080,0.00008291,-0.00150861,3.11
 530872,0.31472646,0.38894287,0.62188582,-0.04939536,-0.45334868,-3.215
 50653,-0.25263702,-0.91342477,3.18699848,-0.25117969,0.69709965,-0.059
 73784,0.24737782,-0.68497549,-0.93291099,-0.06130580,0.51383380,0.9129
 2679,0.06145284,-0.51017587,-0.00524761,0.24351195,0.16197224,0.012678
 20,0.00714315,0.01191211,-0.01587454,0.24482244,-0.31968125,-0.3027262
 7,-0.00174746,-0.00586734,-0.00509207,-0.24910460,0.33191154,0.1754838
 8,-0.32351620,-0.08819708,-0.00040906,-0.00273241,-0.00215446,-0.17491
 930,0.31934097,0.08214170,0.10953204,-0.30532271,0.12813244,0.01258555
 ,-0.00354766,0.00862221,0.00795219,0.00629530,0.00000693,-0.13060047,-
 0.30828225,-0.76372076,0.41211443,0.00687607,-0.00680451,0.00496052,-0
 .00172189,-0.00705185,0.00693375,0.30278006,0.77650322,0.13705453,0.43
 435784,0.02668118,-0.00065395,0.00093881,-0.00177297,0.00079032,-0.012
 22197,0.00802193,-0.13706399,-0.42320786,-0.03305664,0.00132093,0.0001
 5755,-0.00055761,-0.00101915,-0.00006786,0.00010223,-0.00018262,0.0002
 6998,0.00019721,-0.00015724,-0.00035701,0.00010305,0.00028295,0.000186
 16,0.00082767,0.00000634,-0.00017752,0.00008240,0.00011528,-0.00012154
 ,-0.00033426,-0.00005315,0.00013243,-0.00043396,-0.00006433,-0.0000405
 8,0.00049622,-0.00098723,0.00001566,0.00067046,0.00063294,0.00016727,-
 0.00115375,-0.00001088,-0.00003086,0.00042640,-0.00005549,-0.00013674,
 0.00022899,0.00006088,0.00001463,0.00036247,-0.00540756,-0.00043623,0.
 00199188,0.00426345,0.00027423,-0.00065234,0.00067438,-0.00053566,-0.0
 0035965,0.00068793,0.00070502,-0.00022996,-0.00024488,0.00002105,0.000
 35978,0.00002668,-0.00027312,-0.00346817,-0.00026129,0.00030810,0.0004
 6529,-0.00013078,0.00029293,0.00102316,0.00002705,-0.00033742,0.001507
 85,0.00019750,0.00003792,-0.00063806,-0.00002996,-0.00002841,0.0011099
 3,-0.00052600,-0.00015615,0.00036031,0.00092806,-0.00008868,0.00142325
 ,0.00025552,0.00073020,-0.00023849,0.00035790,-0.00066410,-0.00010249,
 0.00009423,-0.00001876,-0.00053456,-0.00110970,0.00019749,-0.00090803\
 \@


 SCIENCE IS LONG AND LIFE IS SHORT.

                     DON MOSER IN THE FEBRUARY 1979 SMITHSONIAN
 Job cpu time:       0 days  3 hours 26 minutes 27.6 seconds.
 Elapsed time:       0 days  0 hours  7 minutes 43.8 seconds.
 File lengths (MBytes):  RWF=    368 Int=      0 D2E=      0 Chk=     44 Scr=      8
 Normal termination of Gaussian 16 at Wed Nov 24 12:11:31 2021.
