 Entering Gaussian System, Link 0=g16
 Input=hf_nch_mp2_avdz_opt_anharmonic.gjf
 Output=hf_nch_mp2_avdz_opt_anharmonic.log
 Initial command:
 /sw/contrib/gaussian/g16/A03/g16/l1.exe "/gscratch/scrubbed/gds001/Gau-8852.inp" -scrdir="/gscratch/scrubbed/gds001/"
 Entering Link 1 = /sw/contrib/gaussian/g16/A03/g16/l1.exe PID=      8853.
  
 Copyright (c) 1988,1990,1992,1993,1995,1998,2003,2009,2016,
            Gaussian, Inc.  All Rights Reserved.
  
 This is part of the Gaussian(R) 16 program.  It is based on
 the Gaussian(R) 09 system (copyright 2009, Gaussian, Inc.),
 the Gaussian(R) 03 system (copyright 2003, Gaussian, Inc.),
 the Gaussian(R) 98 system (copyright 1998, Gaussian, Inc.),
 the Gaussian(R) 94 system (copyright 1995, Gaussian, Inc.),
 the Gaussian 92(TM) system (copyright 1992, Gaussian, Inc.),
 the Gaussian 90(TM) system (copyright 1990, Gaussian, Inc.),
 the Gaussian 88(TM) system (copyright 1988, Gaussian, Inc.),
 the Gaussian 86(TM) system (copyright 1986, Carnegie Mellon
 University), and the Gaussian 82(TM) system (copyright 1983,
 Carnegie Mellon University). Gaussian is a federally registered
 trademark of Gaussian, Inc.
  
 This software contains proprietary and confidential information,
 including trade secrets, belonging to Gaussian, Inc.
  
 This software is provided under written license and may be
 used, copied, transmitted, or stored only in accord with that
 written license.
  
 The following legend is applicable only to US Government
 contracts under FAR:
  
                    RESTRICTED RIGHTS LEGEND
  
 Use, reproduction and disclosure by the US Government is
 subject to restrictions as set forth in subparagraphs (a)
 and (c) of the Commercial Computer Software - Restricted
 Rights clause in FAR 52.227-19.
  
 Gaussian, Inc.
 340 Quinnipiac St., Bldg. 40, Wallingford CT 06492
  
  
 ---------------------------------------------------------------
 Warning -- This program may not be used in any manner that
 competes with the business of Gaussian, Inc. or will provide
 assistance to any competitor of Gaussian, Inc.  The licensee
 of this program is prohibited from giving any competitor of
 Gaussian, Inc. access to this program.  By using this program,
 the user acknowledges that Gaussian, Inc. is engaged in the
 business of creating and licensing software in the field of
 computational chemistry and represents and warrants to the
 licensee that it is not a competitor of Gaussian, Inc. and that
 it will not use this program in any manner prohibited above.
 ---------------------------------------------------------------
  

 Cite this work as:
 Gaussian 16, Revision A.03,
 M. J. Frisch, G. W. Trucks, H. B. Schlegel, G. E. Scuseria, 
 M. A. Robb, J. R. Cheeseman, G. Scalmani, V. Barone, 
 G. A. Petersson, H. Nakatsuji, X. Li, M. Caricato, A. V. Marenich, 
 J. Bloino, B. G. Janesko, R. Gomperts, B. Mennucci, H. P. Hratchian, 
 J. V. Ortiz, A. F. Izmaylov, J. L. Sonnenberg, D. Williams-Young, 
 F. Ding, F. Lipparini, F. Egidi, J. Goings, B. Peng, A. Petrone, 
 T. Henderson, D. Ranasinghe, V. G. Zakrzewski, J. Gao, N. Rega, 
 G. Zheng, W. Liang, M. Hada, M. Ehara, K. Toyota, R. Fukuda, 
 J. Hasegawa, M. Ishida, T. Nakajima, Y. Honda, O. Kitao, H. Nakai, 
 T. Vreven, K. Throssell, J. A. Montgomery, Jr., J. E. Peralta, 
 F. Ogliaro, M. J. Bearpark, J. J. Heyd, E. N. Brothers, K. N. Kudin, 
 V. N. Staroverov, T. A. Keith, R. Kobayashi, J. Normand, 
 K. Raghavachari, A. P. Rendell, J. C. Burant, S. S. Iyengar, 
 J. Tomasi, M. Cossi, J. M. Millam, M. Klene, C. Adamo, R. Cammi, 
 J. W. Ochterski, R. L. Martin, K. Morokuma, O. Farkas, 
 J. B. Foresman, and D. J. Fox, Gaussian, Inc., Wallingford CT, 2016.
 
 ******************************************
 Gaussian 16:  ES64L-G16RevA.03 25-Dec-2016
                17-Dec-2021 
 ******************************************
 %nprocshared=28
 Will use up to   28 processors via shared memory.
 %mem=41GB
 ----------------------------------------------
 # MP2/aug-cc-pVDZ opt freq=(vibrot,anharmonic)
 ----------------------------------------------
 1/18=20,19=15,38=1,80=1/1,3;
 2/9=110,12=2,17=6,18=5,40=1/2;
 3/5=16,7=10,11=9,25=1,30=1,71=1/1,2,3;
 4//1;
 5/5=2,38=5/2;
 8/6=4,10=1/1;
 9/15=2,16=-3/6;
 10/5=1/2;
 6/7=2,8=2,9=2,10=2/1;
 7/12=2/1,2,3,16;
 1/18=20,19=15,80=1/3(2);
 2/9=110/2;
 99//99;
 2/9=110/2;
 3/5=16,7=10,11=9,25=1,30=1,71=1/1,2,3;
 4/5=5,16=3,69=1/1;
 5/5=2,38=5/2;
 8/6=4,10=1/1;
 9/15=2,16=-3/6;
 10/5=1/2;
 7/12=2/1,2,3,16;
 1/18=20,19=15,80=1/3(-8);
 2/9=110/2;
 6/7=2,8=2,9=2,10=2/1;
 99//99;
 ----
 bleh
 ----
 Symbolic Z-matrix:
 Charge =  0 Multiplicity = 1
 C                     1.30468   0.08855  -0.00917 
 N                     0.19871  -0.0497   -0.0016 
 H                     2.3634    0.22087  -0.01639 
 F                    -1.74065  -0.29433   0.01403 
 H                    -0.80826  -0.1756    0.00533 
 

 GradGradGradGradGradGradGradGradGradGradGradGradGradGradGradGradGradGrad
 Berny optimization.
 Initialization pass.
                           ----------------------------
                           !    Initial Parameters    !
                           ! (Angstroms and Degrees)  !
 --------------------------                            --------------------------
 ! Name  Definition              Value          Derivative Info.                !
 --------------------------------------------------------------------------------
 ! R1    R(1,2)                  1.1146         estimate D2E/DX2                !
 ! R2    R(1,3)                  1.067          estimate D2E/DX2                !
 ! R3    R(2,5)                  1.0148         estimate D2E/DX2                !
 ! R4    R(4,5)                  0.94           estimate D2E/DX2                !
 ! A1    L(2,1,3,-3,-1)        180.0018         estimate D2E/DX2                !
 ! A2    L(1,2,5,-3,-1)        179.9987         estimate D2E/DX2                !
 ! A3    L(2,5,4,-3,-1)        179.8698         estimate D2E/DX2                !
 ! A4    L(2,1,3,-2,-2)        180.0019         estimate D2E/DX2                !
 ! A5    L(1,2,5,-2,-2)        179.9986         estimate D2E/DX2                !
 ! A6    L(2,5,4,-2,-2)        179.859          estimate D2E/DX2                !
 --------------------------------------------------------------------------------
 Trust Radius=3.00D-01 FncErr=1.00D-07 GrdErr=1.00D-07 EigMax=2.50D+02 EigMin=1.00D-04
 Number of steps in this run=     20 maximum allowed number of steps=    100.
 GradGradGradGradGradGradGradGradGradGradGradGradGradGradGradGradGradGrad

                          Input orientation:                          
 ---------------------------------------------------------------------
 Center     Atomic      Atomic             Coordinates (Angstroms)
 Number     Number       Type             X           Y           Z
 ---------------------------------------------------------------------
      1          6           0        1.304678    0.088554   -0.009172
      2          7           0        0.198714   -0.049700   -0.001596
      3          1           0        2.363404    0.220870   -0.016389
      4          9           0       -1.740652   -0.294332    0.014029
      5          1           0       -0.808264   -0.175603    0.005326
 ---------------------------------------------------------------------
                    Distance matrix (angstroms):
                    1          2          3          4          5
     1  C    0.000000
     2  N    1.114598   0.000000
     3  H    1.066987   2.181584   0.000000
     4  F    3.069394   1.954797   4.136380   0.000000
     5  H    2.129439   1.014842   3.196426   0.939958   0.000000
 This structure is nearly, but not quite of a higher symmetry.
 Consider Symm=Loose if the higher symmetry is desired.
 Stoichiometry    CH2FN
 Framework group  C1[X(CH2FN)]
 Deg. of freedom     9
 Full point group                 C1      NOp   1
 Largest Abelian subgroup         C1      NOp   1
 Largest concise Abelian subgroup C1      NOp   1
                         Standard orientation:                         
 ---------------------------------------------------------------------
 Center     Atomic      Atomic             Coordinates (Angstroms)
 Number     Number       Type             X           Y           Z
 ---------------------------------------------------------------------
      1          6           0       -0.935311    0.602629    1.036144
      2          7           0       -0.249631    0.160078    0.276986
      3          1           0       -1.591700    1.026318    1.762849
      4          9           0        0.952923   -0.613311   -1.056042
      5          1           0        0.374680   -0.242837   -0.414244
 ---------------------------------------------------------------------
 Rotational constants (GHZ):    27284651.3861097           6.1266287           6.1266273
 Standard basis: Aug-CC-pVDZ (5D, 7F)
 There are    93 symmetry adapted cartesian basis functions of A   symmetry.
 There are    87 symmetry adapted basis functions of A   symmetry.
    87 basis functions,   151 primitive gaussians,    93 cartesian basis functions
    12 alpha electrons       12 beta electrons
       nuclear repulsion energy        62.5032617369 Hartrees.
 NAtoms=    5 NActive=    5 NUniq=    5 SFac= 1.00D+00 NAtFMM=   60 NAOKFM=F Big=F
 Integral buffers will be    131072 words long.
 Raffenetti 1 integral format.
 Two-electron integral symmetry is turned on.
 One-electron integrals computed using PRISM.
 NBasis=    87 RedAO= T EigKep=  2.75D-04  NBF=    87
 NBsUse=    87 1.00D-06 EigRej= -1.00D+00 NBFU=    87
 ExpMin= 2.97D-02 ExpMax= 1.47D+04 ExpMxC= 5.03D+02 IAcc=3 IRadAn=         5 AccDes= 0.00D+00
 Harris functional with IExCor=  205 and IRadAn=       5 diagonalized for initial guess.
 HarFok:  IExCor=  205 AccDes= 0.00D+00 IRadAn=         5 IDoV= 1 UseB2=F ITyADJ=14
 ICtDFT=  3500011 ScaDFX=  1.000000  1.000000  1.000000  1.000000
 FoFCou: FMM=F IPFlag=           0 FMFlag=      100000 FMFlg1=           0
         NFxFlg=           0 DoJE=T BraDBF=F KetDBF=T FulRan=T
         wScrn=  0.000000 ICntrl=       500 IOpCl=  0 I1Cent=   200000004 NGrid=           0
         NMat0=    1 NMatS0=      1 NMatT0=    0 NMatD0=    1 NMtDS0=    0 NMtDT0=    0
 Petite list used in FoFCou.
 Keep R1 ints in memory in canonical form, NReq=13212518.
 Requested convergence on RMS density matrix=1.00D-08 within 128 cycles.
 Requested convergence on MAX density matrix=1.00D-06.
 Requested convergence on             energy=1.00D-06.
 No special actions if energy rises.
 SCF Done:  E(RHF) =  -192.826613502     A.U. after   11 cycles
            NFock= 11  Conv=0.29D-08     -V/T= 1.9963
 ExpMin= 2.97D-02 ExpMax= 1.47D+04 ExpMxC= 5.03D+02 IAcc=3 IRadAn=         5 AccDes= 0.00D+00
 HarFok:  IExCor=  205 AccDes= 0.00D+00 IRadAn=         5 IDoV=-2 UseB2=F ITyADJ=14
 ICtDFT= 12500011 ScaDFX=  1.000000  1.000000  1.000000  1.000000
 Range of M.O.s used for correlation:     4    87
 NBasis=    87 NAE=    12 NBE=    12 NFC=     3 NFV=     0
 NROrb=     84 NOA=     9 NOB=     9 NVA=    75 NVB=    75

 **** Warning!!: The largest alpha MO coefficient is  0.18763108D+02

 Fully direct method using O(ONN) memory.
 JobTyp=1 Pass  1:  I=   4 to  12 NPSUse= 28 ParTrn=T ParDer=T DoDerP=T.
 Spin components of T(2) and E(2):
     alpha-alpha T2 =       0.2082475198D-01 E2=     -0.6943114304D-01
     alpha-beta  T2 =       0.1127803347D+00 E2=     -0.3818907824D+00
     beta-beta   T2 =       0.2082475198D-01 E2=     -0.6943114304D-01
 ANorm=    0.1074443967D+01
 E2 =    -0.5207530685D+00 EUMP2 =    -0.19334736657014D+03
          IDoAtm=11111
          Differentiating once with respect to electric field.
                with respect to dipole field.
          Differentiating once with respect to nuclear coordinates.
 Keep R1 ints in memory in canonical form, NReq=13214869.
          There are     1 degrees of freedom in the 1st order CPHF.  IDoFFX=0 NUNeed=     1.
 LinEq1:  Iter=  0 NonCon=     1 RMS=6.80D-03 Max=7.80D-02 NDo=     1
 AX will form     1 AO Fock derivatives at one time.
 LinEq1:  Iter=  1 NonCon=     1 RMS=1.80D-03 Max=1.40D-02 NDo=     1
 LinEq1:  Iter=  2 NonCon=     1 RMS=4.89D-04 Max=2.99D-03 NDo=     1
 LinEq1:  Iter=  3 NonCon=     1 RMS=1.51D-04 Max=1.60D-03 NDo=     1
 LinEq1:  Iter=  4 NonCon=     1 RMS=6.34D-05 Max=6.20D-04 NDo=     1
 LinEq1:  Iter=  5 NonCon=     1 RMS=1.62D-05 Max=1.35D-04 NDo=     1
 LinEq1:  Iter=  6 NonCon=     1 RMS=3.07D-06 Max=2.76D-05 NDo=     1
 LinEq1:  Iter=  7 NonCon=     1 RMS=4.14D-07 Max=2.84D-06 NDo=     1
 LinEq1:  Iter=  8 NonCon=     1 RMS=7.42D-08 Max=6.13D-07 NDo=     1
 LinEq1:  Iter=  9 NonCon=     1 RMS=1.19D-08 Max=9.39D-08 NDo=     1
 LinEq1:  Iter= 10 NonCon=     1 RMS=1.47D-09 Max=1.22D-08 NDo=     1
 LinEq1:  Iter= 11 NonCon=     1 RMS=1.84D-10 Max=1.46D-09 NDo=     1
 LinEq1:  Iter= 12 NonCon=     0 RMS=2.86D-11 Max=2.92D-10 NDo=     1
 Linear equations converged to 1.000D-10 1.000D-09 after    12 iterations.
 End of Minotr F.D. properties file   721 does not exist.
 End of Minotr F.D. properties file   722 does not exist.
 End of Minotr F.D. properties file   788 does not exist.

 **********************************************************************

            Population analysis using the SCF density.

 **********************************************************************

 Orbital symmetries:
       Occupied  (A) (A) (A) (A) (A) (A) (A) (A) (A) (A) (A) (A)
       Virtual   (A) (A) (A) (A) (A) (A) (A) (A) (A) (A) (A) (A)
                 (A) (A) (A) (A) (A) (A) (A) (A) (A) (A) (A) (A)
                 (A) (A) (A) (A) (A) (A) (A) (A) (A) (A) (A) (A)
                 (A) (A) (A) (A) (A) (A) (A) (A) (A) (A) (A) (A)
                 (A) (A) (A) (A) (A) (A) (A) (A) (A) (A) (A) (A)
                 (A) (A) (A) (A) (A) (A) (A) (A) (A) (A) (A) (A)
                 (A) (A) (A)
 The electronic state is 1-A.
 Alpha  occ. eigenvalues --  -26.15798 -15.64989 -11.36717  -1.50715  -1.33131
 Alpha  occ. eigenvalues --   -0.91480  -0.83589  -0.58938  -0.58938  -0.52020
 Alpha  occ. eigenvalues --   -0.51970  -0.51967
 Alpha virt. eigenvalues --    0.01309   0.05714   0.05714   0.06483   0.10661
 Alpha virt. eigenvalues --    0.13212   0.13980   0.13980   0.20746   0.20746
 Alpha virt. eigenvalues --    0.22973   0.23196   0.31988   0.33574   0.33574
 Alpha virt. eigenvalues --    0.35986   0.38685   0.38685   0.39254   0.39254
 Alpha virt. eigenvalues --    0.47184   0.53441   0.56412   0.62912   0.62912
 Alpha virt. eigenvalues --    0.64458   0.64458   0.72144   0.76634   0.76634
 Alpha virt. eigenvalues --    0.77500   0.77500   0.77899   0.95181   1.10389
 Alpha virt. eigenvalues --    1.11969   1.21073   1.21074   1.33544   1.44477
 Alpha virt. eigenvalues --    1.44477   1.50266   1.50266   1.58435   1.58435
 Alpha virt. eigenvalues --    1.60512   1.63113   1.63113   1.75070   1.75070
 Alpha virt. eigenvalues --    1.86053   1.93646   1.96303   1.96305   2.19648
 Alpha virt. eigenvalues --    2.24134   2.24134   2.35474   2.52281   2.52281
 Alpha virt. eigenvalues --    2.54283   2.54283   2.72912   2.99946   3.32324
 Alpha virt. eigenvalues --    3.32324   3.43844   3.83134   4.33084   4.93413
 Alpha virt. eigenvalues --    4.97780   4.97780   5.10420   5.10422   5.69089
          Condensed to atoms (all electrons):
               1          2          3          4          5
     1  C    5.731654   0.443407   0.092699  -0.116813  -0.518191
     2  N    0.443407   6.672565  -0.094143  -0.284822   0.204852
     3  H    0.092699  -0.094143   0.935375   0.003869   0.003804
     4  F   -0.116813  -0.284822   0.003869   9.590425   0.331287
     5  H   -0.518191   0.204852   0.003804   0.331287   0.938083
 Mulliken charges:
               1
     1  C    0.367244
     2  N    0.058141
     3  H    0.058396
     4  F   -0.523945
     5  H    0.040165
 Sum of Mulliken charges =  -0.00000
 Mulliken charges with hydrogens summed into heavy atoms:
               1
     1  C    0.425640
     2  N    0.058141
     4  F   -0.483781
 Electronic spatial extent (au):  <R**2>=            190.9167
 Charge=             -0.0000 electrons
 Dipole moment (field-independent basis, Debye):
    X=             -4.6666    Y=              3.0046    Z=              5.1709  Tot=              7.5857
 Quadrupole moment (field-independent basis, Debye-Ang):
   XX=            -15.4769   YY=            -16.3597   ZZ=            -15.1376
   XY=             -0.9839   XZ=             -1.6809   YZ=              1.0882
 Traceless Quadrupole moment (field-independent basis, Debye-Ang):
   XX=              0.1812   YY=             -0.7017   ZZ=              0.5205
   XY=             -0.9839   XZ=             -1.6809   YZ=              1.0882
 Octapole moment (field-independent basis, Debye-Ang**2):
  XXX=             -4.7796  YYY=             -0.1518  ZZZ=              7.4513  XYY=             -2.2979
  XXY=              4.7171  XXZ=              8.1048  XZZ=             -9.2662  YZZ=              5.9732
  YYZ=              2.5448  XYZ=             -6.1299
 Hexadecapole moment (field-independent basis, Debye-Ang**3):
 XXXX=            -74.3238 YYYY=            -41.4482 ZZZZ=            -85.6529 XXXY=             16.5647
 XXXZ=             28.5195 YYYX=             19.5781 YYYZ=            -21.6939 ZZZX=             26.5135
 ZZZY=            -17.0630 XXYY=            -17.5319 XXZZ=            -20.1903 YYZZ=            -19.3388
 XXYZ=             -2.3098 YYXZ=              8.7747 ZZXY=              0.9138
 N-N= 6.250326173688D+01 E-N=-5.831989250747D+02  KE= 1.935442180722D+02
 Calling FoFJK, ICntrl=  10002127 FMM=F ISym2X=0 I1Cent= 0 IOpClX= 0 NMat=1 NMatS=1 NMatT=0.
 ***** Axes restored to original set *****
 -------------------------------------------------------------------
 Center     Atomic                   Forces (Hartrees/Bohr)
 Number     Number              X              Y              Z
 -------------------------------------------------------------------
      1        6           0.143236453    0.017886504   -0.000960724
      2        7           0.101720641    0.012919942   -0.000914320
      3        1           0.006559681    0.000812197   -0.000036603
      4        9          -0.171165268   -0.021651451    0.001443726
      5        1          -0.080351507   -0.009967192    0.000467921
 -------------------------------------------------------------------
 Cartesian Forces:  Max     0.171165268 RMS     0.067191477

 GradGradGradGradGradGradGradGradGradGradGradGradGradGradGradGradGradGrad
 Berny optimization.
 FormGI is forming the generalized inverse of G from B-inverse, IUseBI=4.
 Internal  Forces:  Max     0.253503073 RMS     0.108104367
 Search for a local minimum.
 Step number   1 out of a maximum of   20
 All quantities printed in internal units (Hartrees-Bohrs-Radians)
 Mixed Optimization -- RFO/linear search
 Second derivative matrix not updated -- first step.
 The second derivative matrix:
                          R1        R2        R3        R4        A1
           R1           1.62783
           R2           0.00000   0.37614
           R3           0.00000   0.00000   0.45171
           R4           0.00000   0.00000   0.00000   0.60018
           A1           0.00000   0.00000   0.00000   0.00000   0.00539
           A2           0.00000   0.00000   0.00000   0.00000   0.00000
           A3           0.00000   0.00000   0.00000   0.00000   0.00000
           A4           0.00000   0.00000   0.00000   0.00000   0.00000
           A5           0.00000   0.00000   0.00000   0.00000   0.00000
           A6           0.00000   0.00000   0.00000   0.00000   0.00000
                          A2        A3        A4        A5        A6
           A2           0.00832
           A3           0.00000   0.01558
           A4           0.00000   0.00000   0.00539
           A5           0.00000   0.00000   0.00000   0.00832
           A6           0.00000   0.00000   0.00000   0.00000   0.01558
 ITU=  0
     Eigenvalues ---    0.00539   0.00624   0.00832   0.01400   0.01558
     Eigenvalues ---    0.37614   0.45171   0.60018   1.62783
 RFO step:  Lambda=-1.57600182D-01 EMin= 5.39251657D-03
 Linear search not attempted -- first point.
 Maximum step size (   0.300) exceeded in Quadratic search.
    -- Step size scaled by   0.623
 Iteration  1 RMS(Cart)=  0.11244196 RMS(Int)=  0.01865622
 Iteration  2 RMS(Cart)=  0.02043643 RMS(Int)=  0.00011416
 Iteration  3 RMS(Cart)=  0.00000118 RMS(Int)=  0.00011415
 Iteration  4 RMS(Cart)=  0.00000010 RMS(Int)=  0.00011415
 Variable       Old X    -DE/DX   Delta X   Delta X   Delta X     New X
                                 (Linear)    (Quad)   (Total)
    R1        2.10628   0.15096   0.00000   0.05263   0.05263   2.15892
    R2        2.01631   0.00661   0.00000   0.00771   0.00771   2.02402
    R3        1.91777   0.25350   0.00000   0.25900   0.25900   2.17677
    R4        1.77626   0.17253   0.00000   0.14174   0.14174   1.91800
    A1        3.14162   0.00024   0.00000   0.00031   0.00020   3.14183
    A2        3.14157  -0.00041   0.00000  -0.00064  -0.00045   3.14112
    A3        3.13932   0.00005   0.00000   0.00070   0.00085   3.14017
    A4        3.14163   0.00000   0.00000   0.00005   0.00015   3.14177
    A5        3.14157  -0.00006   0.00000  -0.00026  -0.00044   3.14113
    A6        3.13913   0.00028   0.00000   0.00099   0.00085   3.13998
         Item               Value     Threshold  Converged?
 Maximum Force            0.253503     0.000450     NO 
 RMS     Force            0.108104     0.000300     NO 
 Maximum Displacement     0.289124     0.001800     NO 
 RMS     Displacement     0.132020     0.001200     NO 
 Predicted change in Energy=-7.466328D-02
 GradGradGradGradGradGradGradGradGradGradGradGradGradGradGradGradGradGrad

                          Input orientation:                          
 ---------------------------------------------------------------------
 Center     Atomic      Atomic             Coordinates (Angstroms)
 Number     Number       Type             X           Y           Z
 ---------------------------------------------------------------------
      1          6           0        1.389711    0.099356   -0.009902
      2          7           0        0.256105   -0.042321   -0.002180
      3          1           0        2.452517    0.231932   -0.016950
      4          9           0       -1.893650   -0.313474    0.015091
      5          1           0       -0.886802   -0.185706    0.006139
 ---------------------------------------------------------------------
                    Distance matrix (angstroms):
                    1          2          3          4          5
     1  C    0.000000
     2  N    1.142451   0.000000
     3  H    1.071066   2.213517   0.000000
     4  F    3.309307   2.166857   4.380372   0.000000
     5  H    2.294347   1.151896   3.365413   1.014962   0.000000
 Stoichiometry    CH2FN
 Framework group  C1[X(CH2FN)]
 Deg. of freedom     9
 Full point group                 C1      NOp   1
 Largest Abelian subgroup         C1      NOp   1
 Largest concise Abelian subgroup C1      NOp   1
                         Standard orientation:                         
 ---------------------------------------------------------------------
 Center     Atomic      Atomic             Coordinates (Angstroms)
 Number     Number       Type             X           Y           Z
 ---------------------------------------------------------------------
      1          6           0       -1.625175    0.000343    0.000009
      2          7           0       -0.482725   -0.000878    0.000001
      3          1           0       -2.696240    0.001799   -0.000035
      4          9           0        1.684132    0.000404    0.000001
      5          1           0        0.669171   -0.001349   -0.000034
 ---------------------------------------------------------------------
 Rotational constants (GHZ):    25285750.7863815           5.2462951           5.2462940
 Standard basis: Aug-CC-pVDZ (5D, 7F)
 There are    93 symmetry adapted cartesian basis functions of A   symmetry.
 There are    87 symmetry adapted basis functions of A   symmetry.
    87 basis functions,   151 primitive gaussians,    93 cartesian basis functions
    12 alpha electrons       12 beta electrons
       nuclear repulsion energy        58.6489662420 Hartrees.
 NAtoms=    5 NActive=    5 NUniq=    5 SFac= 1.00D+00 NAtFMM=   60 NAOKFM=F Big=F
 Integral buffers will be    131072 words long.
 Raffenetti 1 integral format.
 Two-electron integral symmetry is turned on.
 One-electron integrals computed using PRISM.
 NBasis=    87 RedAO= T EigKep=  3.31D-04  NBF=    87
 NBsUse=    87 1.00D-06 EigRej= -1.00D+00 NBFU=    87
 Initial guess from the checkpoint file:  "/gscratch/scrubbed/gds001/Gau-8853.chk"
 B after Tr=    -0.000000    0.000000    0.000000
         Rot=    0.867442   -0.234809    0.423662   -0.113664 Ang= -59.67 deg.
 ExpMin= 2.97D-02 ExpMax= 1.47D+04 ExpMxC= 5.03D+02 IAcc=3 IRadAn=         5 AccDes= 0.00D+00
 Harris functional with IExCor=  205 and IRadAn=       5 diagonalized for initial guess.
 HarFok:  IExCor=  205 AccDes= 0.00D+00 IRadAn=         5 IDoV= 1 UseB2=F ITyADJ=14
 ICtDFT=  3500011 ScaDFX=  1.000000  1.000000  1.000000  1.000000
 FoFCou: FMM=F IPFlag=           0 FMFlag=      100000 FMFlg1=           0
         NFxFlg=           0 DoJE=T BraDBF=F KetDBF=T FulRan=T
         wScrn=  0.000000 ICntrl=       500 IOpCl=  0 I1Cent=   200000004 NGrid=           0
         NMat0=    1 NMatS0=      1 NMatT0=    0 NMatD0=    1 NMtDS0=    0 NMtDT0=    0
 Petite list used in FoFCou.
 Keep R1 ints in memory in canonical form, NReq=13211185.
 Requested convergence on RMS density matrix=1.00D-08 within 128 cycles.
 Requested convergence on MAX density matrix=1.00D-06.
 Requested convergence on             energy=1.00D-06.
 No special actions if energy rises.
 SCF Done:  E(RHF) =  -192.883796927     A.U. after   11 cycles
            NFock= 11  Conv=0.59D-08     -V/T= 1.9999
 ExpMin= 2.97D-02 ExpMax= 1.47D+04 ExpMxC= 5.03D+02 IAcc=3 IRadAn=         5 AccDes= 0.00D+00
 HarFok:  IExCor=  205 AccDes= 0.00D+00 IRadAn=         5 IDoV=-2 UseB2=F ITyADJ=14
 ICtDFT= 12500011 ScaDFX=  1.000000  1.000000  1.000000  1.000000
 Range of M.O.s used for correlation:     4    87
 NBasis=    87 NAE=    12 NBE=    12 NFC=     3 NFV=     0
 NROrb=     84 NOA=     9 NOB=     9 NVA=    75 NVB=    75

 **** Warning!!: The largest alpha MO coefficient is  0.18073739D+02

 Fully direct method using O(ONN) memory.
 JobTyp=1 Pass  1:  I=   4 to  12 NPSUse= 28 ParTrn=T ParDer=T DoDerP=T.
 Spin components of T(2) and E(2):
     alpha-alpha T2 =       0.2174350147D-01 E2=     -0.6997983880D-01
     alpha-beta  T2 =       0.1183796186D+00 E2=     -0.3873972725D+00
     beta-beta   T2 =       0.2174350147D-01 E2=     -0.6997983880D-01
 ANorm=    0.1077899170D+01
 E2 =    -0.5273569501D+00 EUMP2 =    -0.19341115387676D+03
          IDoAtm=11111
          Differentiating once with respect to electric field.
                with respect to dipole field.
          Differentiating once with respect to nuclear coordinates.
 Keep R1 ints in memory in canonical form, NReq=13213580.
          There are     1 degrees of freedom in the 1st order CPHF.  IDoFFX=0 NUNeed=     1.
 LinEq1:  Iter=  0 NonCon=     1 RMS=6.87D-03 Max=5.85D-02 NDo=     1
 AX will form     1 AO Fock derivatives at one time.
 LinEq1:  Iter=  1 NonCon=     1 RMS=1.82D-03 Max=2.01D-02 NDo=     1
 LinEq1:  Iter=  2 NonCon=     1 RMS=5.16D-04 Max=4.30D-03 NDo=     1
 LinEq1:  Iter=  3 NonCon=     1 RMS=1.57D-04 Max=1.58D-03 NDo=     1
 LinEq1:  Iter=  4 NonCon=     1 RMS=7.13D-05 Max=9.21D-04 NDo=     1
 LinEq1:  Iter=  5 NonCon=     1 RMS=2.19D-05 Max=1.75D-04 NDo=     1
 LinEq1:  Iter=  6 NonCon=     1 RMS=4.37D-06 Max=3.67D-05 NDo=     1
 LinEq1:  Iter=  7 NonCon=     1 RMS=5.53D-07 Max=3.77D-06 NDo=     1
 LinEq1:  Iter=  8 NonCon=     1 RMS=9.15D-08 Max=7.28D-07 NDo=     1
 LinEq1:  Iter=  9 NonCon=     1 RMS=1.44D-08 Max=1.18D-07 NDo=     1
 LinEq1:  Iter= 10 NonCon=     1 RMS=1.74D-09 Max=1.52D-08 NDo=     1
 LinEq1:  Iter= 11 NonCon=     1 RMS=2.05D-10 Max=1.49D-09 NDo=     1
 LinEq1:  Iter= 12 NonCon=     0 RMS=2.55D-11 Max=1.65D-10 NDo=     1
 Linear equations converged to 1.000D-10 1.000D-09 after    12 iterations.
 End of Minotr F.D. properties file   721 does not exist.
 End of Minotr F.D. properties file   722 does not exist.
 End of Minotr F.D. properties file   788 does not exist.
 Calling FoFJK, ICntrl=  10002127 FMM=F ISym2X=0 I1Cent= 0 IOpClX= 0 NMat=1 NMatS=1 NMatT=0.
 ***** Axes restored to original set *****
 -------------------------------------------------------------------
 Center     Atomic                   Forces (Hartrees/Bohr)
 Number     Number              X              Y              Z
 -------------------------------------------------------------------
      1        6           0.064677818    0.008065711   -0.000425790
      2        7           0.036049429    0.004620802   -0.000366798
      3        1           0.004175895    0.000526599   -0.000030942
      4        9          -0.035752325   -0.004486132    0.000260250
      5        1          -0.069150817   -0.008726980    0.000563280
 -------------------------------------------------------------------
 Cartesian Forces:  Max     0.069150817 RMS     0.027980894

 GradGradGradGradGradGradGradGradGradGradGradGradGradGradGradGradGradGrad
 Berny optimization.
 Using GEDIIS/GDIIS optimizer.
 FormGI is forming the generalized inverse of G from B-inverse, IUseBI=4.
 Internal  Forces:  Max     0.105735033 RMS     0.041606393
 Search for a local minimum.
 Step number   2 out of a maximum of   20
 All quantities printed in internal units (Hartrees-Bohrs-Radians)
 Mixed Optimization -- RFO/linear search
 Update second derivatives using D2CorX and points    1    2
 DE= -6.38D-02 DEPred=-7.47D-02 R= 8.54D-01
 TightC=F SS=  1.41D+00  RLast= 3.00D-01 DXNew= 5.0454D-01 9.0000D-01
 Trust test= 8.54D-01 RLast= 3.00D-01 DXMaxT set to 5.05D-01
 The second derivative matrix:
                          R1        R2        R3        R4        A1
           R1           1.57871
           R2          -0.00214   0.37605
           R3          -0.01914  -0.00151   0.51239
           R4           0.02435   0.00003   0.11345   0.74671
           A1           0.00021   0.00001   0.00039   0.00036   0.00539
           A2          -0.00033  -0.00001  -0.00061  -0.00056  -0.00000
           A3           0.00002   0.00000   0.00005   0.00006   0.00000
           A4           0.00002   0.00000   0.00003   0.00003   0.00000
           A5          -0.00005  -0.00000  -0.00010  -0.00009  -0.00000
           A6           0.00020   0.00001   0.00037   0.00035   0.00000
                          A2        A3        A4        A5        A6
           A2           0.00832
           A3          -0.00000   0.01558
           A4          -0.00000   0.00000   0.00539
           A5           0.00000  -0.00000  -0.00000   0.00832
           A6          -0.00000   0.00000   0.00000  -0.00000   0.01558
 ITU=  1  0
 Use linear search instead of GDIIS.
 Linear search step of   0.600 exceeds DXMaxT=   0.505 but not scaled.
 Quartic linear search produced a step of  2.00000.
 Iteration  1 RMS(Cart)=  0.14059605 RMS(Int)=  0.10396397
 Iteration  2 RMS(Cart)=  0.08579510 RMS(Int)=  0.03731144
 Iteration  3 RMS(Cart)=  0.04087262 RMS(Int)=  0.00000084
 Iteration  4 RMS(Cart)=  0.00000017 RMS(Int)=  0.00000082
 Variable       Old X    -DE/DX   Delta X   Delta X   Delta X     New X
                                 (Linear)    (Quad)   (Total)
    R1        2.15892   0.06939   0.10527   0.00000   0.10527   2.26419
    R2        2.02402   0.00421   0.01542   0.00000   0.01542   2.03944
    R3        2.17677   0.10574   0.51799   0.00000   0.51799   2.69476
    R4        1.91800   0.03603   0.28348   0.00000   0.28348   2.20148
    A1        3.14183   0.00008   0.00041   0.00000   0.00041   3.14223
    A2        3.14112  -0.00015  -0.00090   0.00000  -0.00090   3.14023
    A3        3.14017   0.00002   0.00170   0.00000   0.00171   3.14188
    A4        3.14177  -0.00001   0.00029   0.00000   0.00029   3.14207
    A5        3.14113  -0.00001  -0.00089   0.00000  -0.00089   3.14024
    A6        3.13998   0.00011   0.00170   0.00000   0.00170   3.14168
         Item               Value     Threshold  Converged?
 Maximum Force            0.105735     0.000450     NO 
 RMS     Force            0.041606     0.000300     NO 
 Maximum Displacement     0.578264     0.001800     NO 
 RMS     Displacement     0.264039     0.001200     NO 
 Predicted change in Energy=-5.150786D-02
 GradGradGradGradGradGradGradGradGradGradGradGradGradGradGradGradGradGrad

                          Input orientation:                          
 ---------------------------------------------------------------------
 Center     Atomic      Atomic             Coordinates (Angstroms)
 Number     Number       Type             X           Y           Z
 ---------------------------------------------------------------------
      1          6           0        1.559771    0.120995   -0.011395
      2          7           0        0.370873   -0.027466   -0.003441
      3          1           0        2.630744    0.254034   -0.018051
      4          9           0       -2.199654   -0.351685    0.017143
      5          1           0       -1.043854   -0.206090    0.007942
 ---------------------------------------------------------------------
                    Distance matrix (angstroms):
                    1          2          3          4          5
     1  C    0.000000
     2  N    1.198157   0.000000
     3  H    1.079225   2.277382   0.000000
     4  F    3.789131   2.590976   4.868355   0.000000
     5  H    2.624161   1.426005   3.703385   1.164971   0.000000
 Stoichiometry    CH2FN
 Framework group  C1[X(CH2FN)]
 Deg. of freedom     9
 Full point group                 C1      NOp   1
 Largest Abelian subgroup         C1      NOp   1
 Largest concise Abelian subgroup C1      NOp   1
                         Standard orientation:                         
 ---------------------------------------------------------------------
 Center     Atomic      Atomic             Coordinates (Angstroms)
 Number     Number       Type             X           Y           Z
 ---------------------------------------------------------------------
      1          6           0       -1.834759    0.000355    0.000028
      2          7           0       -0.636603   -0.001115   -0.000011
      3          1           0       -2.913982    0.002528   -0.000071
      4          9           0        1.954373    0.000365    0.000007
      5          1           0        0.789402   -0.000133   -0.000093
 ---------------------------------------------------------------------
 Rotational constants (GHZ):    18500971.5110570           3.9646140           3.9646131
 Standard basis: Aug-CC-pVDZ (5D, 7F)
 There are    93 symmetry adapted cartesian basis functions of A   symmetry.
 There are    87 symmetry adapted basis functions of A   symmetry.
    87 basis functions,   151 primitive gaussians,    93 cartesian basis functions
    12 alpha electrons       12 beta electrons
       nuclear repulsion energy        52.5435967063 Hartrees.
 NAtoms=    5 NActive=    5 NUniq=    5 SFac= 1.00D+00 NAtFMM=   60 NAOKFM=F Big=F
 Integral buffers will be    131072 words long.
 Raffenetti 1 integral format.
 Two-electron integral symmetry is turned on.
 One-electron integrals computed using PRISM.
 NBasis=    87 RedAO= T EigKep=  4.25D-04  NBF=    87
 NBsUse=    87 1.00D-06 EigRej= -1.00D+00 NBFU=    87
 Initial guess from the checkpoint file:  "/gscratch/scrubbed/gds001/Gau-8853.chk"
 B after Tr=     0.000000   -0.000000    0.000000
         Rot=    0.999969   -0.007901    0.000000    0.000017 Ang=  -0.91 deg.
 ExpMin= 2.97D-02 ExpMax= 1.47D+04 ExpMxC= 5.03D+02 IAcc=3 IRadAn=         5 AccDes= 0.00D+00
 Harris functional with IExCor=  205 and IRadAn=       5 diagonalized for initial guess.
 HarFok:  IExCor=  205 AccDes= 0.00D+00 IRadAn=         5 IDoV= 1 UseB2=F ITyADJ=14
 ICtDFT=  3500011 ScaDFX=  1.000000  1.000000  1.000000  1.000000
 FoFCou: FMM=F IPFlag=           0 FMFlag=      100000 FMFlg1=           0
         NFxFlg=           0 DoJE=T BraDBF=F KetDBF=T FulRan=T
         wScrn=  0.000000 ICntrl=       500 IOpCl=  0 I1Cent=   200000004 NGrid=           0
         NMat0=    1 NMatS0=      1 NMatT0=    0 NMatD0=    1 NMtDS0=    0 NMtDT0=    0
 Petite list used in FoFCou.
 Keep R1 ints in memory in canonical form, NReq=13208801.
 Requested convergence on RMS density matrix=1.00D-08 within 128 cycles.
 Requested convergence on MAX density matrix=1.00D-06.
 Requested convergence on             energy=1.00D-06.
 No special actions if energy rises.
 SCF Done:  E(RHF) =  -192.879538066     A.U. after   12 cycles
            NFock= 12  Conv=0.15D-08     -V/T= 2.0041
 ExpMin= 2.97D-02 ExpMax= 1.47D+04 ExpMxC= 5.03D+02 IAcc=3 IRadAn=         5 AccDes= 0.00D+00
 HarFok:  IExCor=  205 AccDes= 0.00D+00 IRadAn=         5 IDoV=-2 UseB2=F ITyADJ=14
 ICtDFT= 12500011 ScaDFX=  1.000000  1.000000  1.000000  1.000000
 Range of M.O.s used for correlation:     4    87
 NBasis=    87 NAE=    12 NBE=    12 NFC=     3 NFV=     0
 NROrb=     84 NOA=     9 NOB=     9 NVA=    75 NVB=    75

 **** Warning!!: The largest alpha MO coefficient is  0.14816061D+02

 Fully direct method using O(ONN) memory.
 JobTyp=1 Pass  1:  I=   4 to  12 NPSUse= 28 ParTrn=T ParDer=T DoDerP=T.
 Spin components of T(2) and E(2):
     alpha-alpha T2 =       0.2403636996D-01 E2=     -0.7197728798D-01
     alpha-beta  T2 =       0.1317341894D+00 E2=     -0.4008185198D+00
     beta-beta   T2 =       0.2403636996D-01 E2=     -0.7197728798D-01
 ANorm=    0.1086189177D+01
 E2 =    -0.5447730957D+00 EUMP2 =    -0.19342431116135D+03
          IDoAtm=11111
          Differentiating once with respect to electric field.
                with respect to dipole field.
          Differentiating once with respect to nuclear coordinates.
 Keep R1 ints in memory in canonical form, NReq=13211240.
          There are     1 degrees of freedom in the 1st order CPHF.  IDoFFX=0 NUNeed=     1.
 LinEq1:  Iter=  0 NonCon=     1 RMS=7.51D-03 Max=5.51D-02 NDo=     1
 AX will form     1 AO Fock derivatives at one time.
 LinEq1:  Iter=  1 NonCon=     1 RMS=2.06D-03 Max=1.89D-02 NDo=     1
 LinEq1:  Iter=  2 NonCon=     1 RMS=6.40D-04 Max=3.87D-03 NDo=     1
 LinEq1:  Iter=  3 NonCon=     1 RMS=2.20D-04 Max=2.50D-03 NDo=     1
 LinEq1:  Iter=  4 NonCon=     1 RMS=1.15D-04 Max=1.21D-03 NDo=     1
 LinEq1:  Iter=  5 NonCon=     1 RMS=3.98D-05 Max=2.74D-04 NDo=     1
 LinEq1:  Iter=  6 NonCon=     1 RMS=8.10D-06 Max=5.57D-05 NDo=     1
 LinEq1:  Iter=  7 NonCon=     1 RMS=9.54D-07 Max=7.10D-06 NDo=     1
 LinEq1:  Iter=  8 NonCon=     1 RMS=1.40D-07 Max=1.14D-06 NDo=     1
 LinEq1:  Iter=  9 NonCon=     1 RMS=2.25D-08 Max=1.89D-07 NDo=     1
 LinEq1:  Iter= 10 NonCon=     1 RMS=2.66D-09 Max=2.26D-08 NDo=     1
 LinEq1:  Iter= 11 NonCon=     1 RMS=3.45D-10 Max=1.95D-09 NDo=     1
 LinEq1:  Iter= 12 NonCon=     0 RMS=4.66D-11 Max=3.22D-10 NDo=     1
 Linear equations converged to 1.000D-10 1.000D-09 after    12 iterations.
 End of Minotr F.D. properties file   721 does not exist.
 End of Minotr F.D. properties file   722 does not exist.
 End of Minotr F.D. properties file   788 does not exist.
 Calling FoFJK, ICntrl=  10002127 FMM=F ISym2X=0 I1Cent= 0 IOpClX= 0 NMat=1 NMatS=1 NMatT=0.
 ***** Axes restored to original set *****
 -------------------------------------------------------------------
 Center     Atomic                   Forces (Hartrees/Bohr)
 Number     Number              X              Y              Z
 -------------------------------------------------------------------
      1        6          -0.047986640   -0.006026754    0.000346568
      2        7           0.053159269    0.006639818   -0.000357579
      3        1          -0.000138932    0.000005995   -0.000016974
      4        9           0.079493687    0.010003640   -0.000626182
      5        1          -0.084527384   -0.010622700    0.000654167
 -------------------------------------------------------------------
 Cartesian Forces:  Max     0.084527384 RMS     0.035484421

 GradGradGradGradGradGradGradGradGradGradGradGradGradGradGradGradGradGrad
 Berny optimization.
 Using GEDIIS/GDIIS optimizer.
 FormGI is forming the generalized inverse of G from B-inverse, IUseBI=4.
 Internal  Forces:  Max     0.080123087 RMS     0.029661227
 Search for a local minimum.
 Step number   3 out of a maximum of   20
 All quantities printed in internal units (Hartrees-Bohrs-Radians)
 Mixed Optimization -- RFO/linear search
 Update second derivatives using D2CorX and points    2    3
 The second derivative matrix:
                          R1        R2        R3        R4        A1
           R1           1.61374
           R2          -0.00005   0.37615
           R3          -0.09212  -0.00275   0.26369
           R4          -0.01506  -0.00009  -0.09238   0.58416
           A1           0.00016   0.00001   0.00014   0.00016   0.00539
           A2          -0.00023  -0.00001  -0.00020  -0.00023  -0.00000
           A3           0.00000   0.00000  -0.00001   0.00000   0.00000
           A4           0.00003   0.00000   0.00002   0.00003   0.00000
           A5          -0.00003  -0.00000  -0.00002  -0.00003  -0.00000
           A6           0.00013   0.00000   0.00010   0.00013   0.00000
                          A2        A3        A4        A5        A6
           A2           0.00832
           A3          -0.00000   0.01558
           A4          -0.00000   0.00000   0.00539
           A5           0.00000  -0.00000  -0.00000   0.00832
           A6          -0.00000   0.00000   0.00000  -0.00000   0.01558
 ITU=  0  1  0
 Use linear search instead of GDIIS.
     Eigenvalues ---    0.00539   0.00611   0.00832   0.01395   0.01558
     Eigenvalues ---    0.23267   0.37620   0.60880   1.62007
 RFO step:  Lambda=-4.60674834D-03 EMin= 5.39251744D-03
 Quartic linear search produced a step of -0.41030.
 Iteration  1 RMS(Cart)=  0.09942595 RMS(Int)=  0.00076312
 Iteration  2 RMS(Cart)=  0.00085796 RMS(Int)=  0.00057914
 Iteration  3 RMS(Cart)=  0.00079565 RMS(Int)=  0.00044435
 Iteration  4 RMS(Cart)=  0.00017505 RMS(Int)=  0.00042683
 Iteration  5 RMS(Cart)=  0.00005626 RMS(Int)=  0.00042595
 Iteration  6 RMS(Cart)=  0.00000959 RMS(Int)=  0.00042590
 Iteration  7 RMS(Cart)=  0.00000331 RMS(Int)=  0.00042590
 Iteration  8 RMS(Cart)=  0.00000057 RMS(Int)=  0.00042590
 Variable       Old X    -DE/DX   Delta X   Delta X   Delta X     New X
                                 (Linear)    (Quad)   (Total)
    R1        2.26419  -0.04850  -0.04319   0.00073  -0.04247   2.22172
    R2        2.03944  -0.00014  -0.00633   0.00316  -0.00317   2.03627
    R3        2.69476   0.00507  -0.21253   0.07166  -0.14087   2.55388
    R4        2.20148  -0.08012  -0.11631  -0.06371  -0.18002   2.02146
    A1        3.14223  -0.00006  -0.00017  -0.00258  -0.00353   3.13871
    A2        3.14023   0.00005   0.00037   0.00058   0.00191   3.14213
    A3        3.14188  -0.00001  -0.00070  -0.00316  -0.00359   3.13829
    A4        3.14207  -0.00004  -0.00012  -0.00374  -0.00351   3.13856
    A5        3.14024   0.00002   0.00036   0.00322   0.00342   3.14366
    A6        3.14168  -0.00002  -0.00070  -0.00155  -0.00199   3.13969
         Item               Value     Threshold  Converged?
 Maximum Force            0.080123     0.000450     NO 
 RMS     Force            0.029661     0.000300     NO 
 Maximum Displacement     0.244236     0.001800     NO 
 RMS     Displacement     0.099449     0.001200     NO 
 Predicted change in Energy=-5.240461D-03
 GradGradGradGradGradGradGradGradGradGradGradGradGradGradGradGradGradGrad

                          Input orientation:                          
 ---------------------------------------------------------------------
 Center     Atomic      Atomic             Coordinates (Angstroms)
 Number     Number       Type             X           Y           Z
 ---------------------------------------------------------------------
      1          6           0        1.498467    0.111537   -0.009077
      2          7           0        0.331840   -0.033860   -0.000286
      3          1           0        2.567296    0.247878   -0.020373
      4          9           0       -2.070410   -0.335497    0.014882
      5          1           0       -1.009312   -0.200271    0.007052
 ---------------------------------------------------------------------
                    Distance matrix (angstroms):
                    1          2          3          4          5
     1  C    0.000000
     2  N    1.175685   0.000000
     3  H    1.077549   2.253229   0.000000
     4  F    3.596845   2.421161   4.674387   0.000000
     5  H    2.527141   1.351457   3.604680   1.069709   0.000000
 Stoichiometry    CH2FN
 Framework group  C1[X(CH2FN)]
 Deg. of freedom     9
 Full point group                 C1      NOp   1
 Largest Abelian subgroup         C1      NOp   1
 Largest concise Abelian subgroup C1      NOp   1
                         Standard orientation:                         
 ---------------------------------------------------------------------
 Center     Atomic      Atomic             Coordinates (Angstroms)
 Number     Number       Type             X           Y           Z
 ---------------------------------------------------------------------
      1          6           0       -1.752125    0.000371   -0.000545
      2          7           0       -0.576441    0.000785    0.000588
      3          1           0       -2.829664   -0.004195    0.000040
      4          9           0        1.844720   -0.000216   -0.000265
      5          1           0        0.775014   -0.001575    0.001500
 ---------------------------------------------------------------------
 Rotational constants (GHZ):    12172499.1778025           4.4138367           4.4138360
 Standard basis: Aug-CC-pVDZ (5D, 7F)
 There are    93 symmetry adapted cartesian basis functions of A   symmetry.
 There are    87 symmetry adapted basis functions of A   symmetry.
    87 basis functions,   151 primitive gaussians,    93 cartesian basis functions
    12 alpha electrons       12 beta electrons
       nuclear repulsion energy        54.8241102628 Hartrees.
 NAtoms=    5 NActive=    5 NUniq=    5 SFac= 1.00D+00 NAtFMM=   60 NAOKFM=F Big=F
 Integral buffers will be    131072 words long.
 Raffenetti 1 integral format.
 Two-electron integral symmetry is turned on.
 One-electron integrals computed using PRISM.
 NBasis=    87 RedAO= T EigKep=  3.92D-04  NBF=    87
 NBsUse=    87 1.00D-06 EigRej= -1.00D+00 NBFU=    87
 Initial guess from the checkpoint file:  "/gscratch/scrubbed/gds001/Gau-8853.chk"
 B after Tr=    -0.000000   -0.000000    0.000000
         Rot=    0.200559    0.979682   -0.000007   -0.000002 Ang= 156.86 deg.
 ExpMin= 2.97D-02 ExpMax= 1.47D+04 ExpMxC= 5.03D+02 IAcc=3 IRadAn=         5 AccDes= 0.00D+00
 Harris functional with IExCor=  205 and IRadAn=       5 diagonalized for initial guess.
 HarFok:  IExCor=  205 AccDes= 0.00D+00 IRadAn=         5 IDoV= 1 UseB2=F ITyADJ=14
 ICtDFT=  3500011 ScaDFX=  1.000000  1.000000  1.000000  1.000000
 FoFCou: FMM=F IPFlag=           0 FMFlag=      100000 FMFlg1=           0
         NFxFlg=           0 DoJE=T BraDBF=F KetDBF=T FulRan=T
         wScrn=  0.000000 ICntrl=       500 IOpCl=  0 I1Cent=   200000004 NGrid=           0
         NMat0=    1 NMatS0=      1 NMatT0=    0 NMatD0=    1 NMtDS0=    0 NMtDT0=    0
 Petite list used in FoFCou.
 Keep R1 ints in memory in canonical form, NReq=13209958.
 Requested convergence on RMS density matrix=1.00D-08 within 128 cycles.
 Requested convergence on MAX density matrix=1.00D-06.
 Requested convergence on             energy=1.00D-06.
 No special actions if energy rises.
 SCF Done:  E(RHF) =  -192.898916146     A.U. after   11 cycles
            NFock= 11  Conv=0.12D-08     -V/T= 2.0026
 ExpMin= 2.97D-02 ExpMax= 1.47D+04 ExpMxC= 5.03D+02 IAcc=3 IRadAn=         5 AccDes= 0.00D+00
 HarFok:  IExCor=  205 AccDes= 0.00D+00 IRadAn=         5 IDoV=-2 UseB2=F ITyADJ=14
 ICtDFT= 12500011 ScaDFX=  1.000000  1.000000  1.000000  1.000000
 Range of M.O.s used for correlation:     4    87
 NBasis=    87 NAE=    12 NBE=    12 NFC=     3 NFV=     0
 NROrb=     84 NOA=     9 NOB=     9 NVA=    75 NVB=    75

 **** Warning!!: The largest alpha MO coefficient is  0.15290716D+02

 Fully direct method using O(ONN) memory.
 JobTyp=1 Pass  1:  I=   4 to  12 NPSUse= 28 ParTrn=T ParDer=T DoDerP=T.
 Spin components of T(2) and E(2):
     alpha-alpha T2 =       0.2295075251D-01 E2=     -0.7085337698D-01
     alpha-beta  T2 =       0.1255504242D+00 E2=     -0.3941640455D+00
     beta-beta   T2 =       0.2295075251D-01 E2=     -0.7085337698D-01
 ANorm=    0.1082336329D+01
 E2 =    -0.5358707994D+00 EUMP2 =    -0.19343478694563D+03
          IDoAtm=11111
          Differentiating once with respect to electric field.
                with respect to dipole field.
          Differentiating once with respect to nuclear coordinates.
 Keep R1 ints in memory in canonical form, NReq=13212102.
          There are     1 degrees of freedom in the 1st order CPHF.  IDoFFX=0 NUNeed=     1.
 LinEq1:  Iter=  0 NonCon=     1 RMS=7.04D-03 Max=5.17D-02 NDo=     1
 AX will form     1 AO Fock derivatives at one time.
 LinEq1:  Iter=  1 NonCon=     1 RMS=1.89D-03 Max=1.71D-02 NDo=     1
 LinEq1:  Iter=  2 NonCon=     1 RMS=5.72D-04 Max=3.52D-03 NDo=     1
 LinEq1:  Iter=  3 NonCon=     1 RMS=1.95D-04 Max=1.70D-03 NDo=     1
 LinEq1:  Iter=  4 NonCon=     1 RMS=9.52D-05 Max=8.88D-04 NDo=     1
 LinEq1:  Iter=  5 NonCon=     1 RMS=3.07D-05 Max=1.95D-04 NDo=     1
 LinEq1:  Iter=  6 NonCon=     1 RMS=6.12D-06 Max=4.07D-05 NDo=     1
 LinEq1:  Iter=  7 NonCon=     1 RMS=7.21D-07 Max=4.11D-06 NDo=     1
 LinEq1:  Iter=  8 NonCon=     1 RMS=1.09D-07 Max=8.92D-07 NDo=     1
 LinEq1:  Iter=  9 NonCon=     1 RMS=1.74D-08 Max=1.49D-07 NDo=     1
 LinEq1:  Iter= 10 NonCon=     1 RMS=2.25D-09 Max=1.67D-08 NDo=     1
 LinEq1:  Iter= 11 NonCon=     1 RMS=3.65D-10 Max=2.94D-09 NDo=     1
 LinEq1:  Iter= 12 NonCon=     0 RMS=8.10D-11 Max=8.93D-10 NDo=     1
 Linear equations converged to 1.000D-10 1.000D-09 after    12 iterations.
 End of Minotr F.D. properties file   721 does not exist.
 End of Minotr F.D. properties file   722 does not exist.
 End of Minotr F.D. properties file   788 does not exist.
 Calling FoFJK, ICntrl=  10002127 FMM=F ISym2X=0 I1Cent= 0 IOpClX= 0 NMat=1 NMatS=1 NMatT=0.
 ***** Axes restored to original set *****
 -------------------------------------------------------------------
 Center     Atomic                   Forces (Hartrees/Bohr)
 Number     Number              X              Y              Z
 -------------------------------------------------------------------
      1        6          -0.005310915   -0.000502272   -0.000125690
      2        7           0.031906271    0.003985374   -0.000189968
      3        1           0.000296631   -0.000059014    0.000098440
      4        9           0.042419800    0.005488730   -0.000370768
      5        1          -0.069311787   -0.008912818    0.000587986
 -------------------------------------------------------------------
 Cartesian Forces:  Max     0.069311787 RMS     0.022768568

 GradGradGradGradGradGradGradGradGradGradGradGradGradGradGradGradGradGrad
 Berny optimization.
 Using GEDIIS/GDIIS optimizer.
 FormGI is forming the generalized inverse of G from B-inverse, IUseBI=4.
 Internal  Forces:  Max     0.042774919 RMS     0.016094376
 Search for a local minimum.
 Step number   4 out of a maximum of   20
 All quantities printed in internal units (Hartrees-Bohrs-Radians)
 Mixed Optimization -- RFO/linear search
 Update second derivatives using D2CorX and points    2    3    4
 DE= -1.05D-02 DEPred=-5.24D-03 R= 2.00D+00
 TightC=F SS=  1.41D+00  RLast= 2.33D-01 DXNew= 8.4853D-01 6.9793D-01
 Trust test= 2.00D+00 RLast= 2.33D-01 DXMaxT set to 6.98D-01
 The second derivative matrix:
                          R1        R2        R3        R4        A1
           R1           1.63397
           R2          -0.00141   0.37611
           R3          -0.07799  -0.00397   0.24193
           R4          -0.08305  -0.00083  -0.04845   0.26494
           A1           0.00082   0.00000   0.00028   0.00079   0.00540
           A2          -0.00024  -0.00001  -0.00022  -0.00006  -0.00000
           A3           0.00057  -0.00000   0.00015   0.00050   0.00000
           A4           0.00082  -0.00000   0.00019   0.00090   0.00001
           A5          -0.00024   0.00000  -0.00009  -0.00017  -0.00000
           A6           0.00041   0.00000   0.00018   0.00031   0.00000
                          A2        A3        A4        A5        A6
           A2           0.00832
           A3          -0.00000   0.01558
           A4          -0.00000   0.00000   0.00540
           A5           0.00000  -0.00000  -0.00000   0.00832
           A6          -0.00000   0.00000   0.00000  -0.00000   0.01558
 ITU=  1  0  1  0
 Use linear search instead of GDIIS.
     Eigenvalues ---    0.00539   0.00615   0.00832   0.01408   0.01558
     Eigenvalues ---    0.19473   0.30300   0.37623   1.64300
 RFO step:  Lambda=-7.13307891D-03 EMin= 5.39367311D-03
 Quartic linear search produced a step of  0.25465.
 Iteration  1 RMS(Cart)=  0.03496204 RMS(Int)=  0.00115378
 Iteration  2 RMS(Cart)=  0.00051488 RMS(Int)=  0.00103678
 Iteration  3 RMS(Cart)=  0.00003612 RMS(Int)=  0.00103662
 Iteration  4 RMS(Cart)=  0.00000150 RMS(Int)=  0.00103662
 Iteration  5 RMS(Cart)=  0.00000016 RMS(Int)=  0.00103662
 Variable       Old X    -DE/DX   Delta X   Delta X   Delta X     New X
                                 (Linear)    (Quad)   (Total)
    R1        2.22172  -0.00504  -0.01081   0.00603  -0.00479   2.21693
    R2        2.03627   0.00029  -0.00081   0.00237   0.00156   2.03784
    R3        2.55388   0.02711  -0.03587   0.12857   0.09270   2.64658
    R4        2.02146  -0.04277  -0.04584  -0.08406  -0.12991   1.89155
    A1        3.13871   0.00017  -0.00090   0.02213   0.02321   3.16192
    A2        3.14213  -0.00002   0.00049   0.00237   0.00060   3.14273
    A3        3.13829   0.00019  -0.00091   0.01670   0.01503   3.15331
    A4        3.13856   0.00021  -0.00089   0.03112   0.02931   3.16787
    A5        3.14366  -0.00006   0.00087  -0.01050  -0.00908   3.13457
    A6        3.13969   0.00011  -0.00051   0.00814   0.00745   3.14714
         Item               Value     Threshold  Converged?
 Maximum Force            0.042775     0.000450     NO 
 RMS     Force            0.016094     0.000300     NO 
 Maximum Displacement     0.077482     0.001800     NO 
 RMS     Displacement     0.034912     0.001200     NO 
 Predicted change in Energy=-4.248203D-03
 GradGradGradGradGradGradGradGradGradGradGradGradGradGradGradGradGradGrad

                          Input orientation:                          
 ---------------------------------------------------------------------
 Center     Atomic      Atomic             Coordinates (Angstroms)
 Number     Number       Type             X           Y           Z
 ---------------------------------------------------------------------
      1          6           0        1.501291    0.122157   -0.022791
      2          7           0        0.338233   -0.031029   -0.012074
      3          1           0        2.572921    0.241197   -0.004501
      4          9           0       -2.044251   -0.330233    0.021094
      5          1           0       -1.050314   -0.212303    0.010469
 ---------------------------------------------------------------------
                    Distance matrix (angstroms):
                    1          2          3          4          5
     1  C    0.000000
     2  N    1.173151   0.000000
     3  H    1.078377   2.251221   0.000000
     4  F    3.574556   2.401428   4.652470   0.000000
     5  H    2.573646   1.400511   3.651537   1.000966   0.000000
 Stoichiometry    CH2FN
 Framework group  C1[X(CH2FN)]
 Deg. of freedom     9
 Full point group                 C1      NOp   1
 Largest Abelian subgroup         C1      NOp   1
 Largest concise Abelian subgroup C1      NOp   1
                         Standard orientation:                         
 ---------------------------------------------------------------------
 Center     Atomic      Atomic             Coordinates (Angstroms)
 Number     Number       Type             X           Y           Z
 ---------------------------------------------------------------------
      1          6           0       -1.744945   -0.003943    0.002969
      2          7           0       -0.571812   -0.003653   -0.003392
      3          1           0       -2.822774    0.030295   -0.000208
      4          9           0        1.829606    0.001546    0.001312
      5          1           0        0.828671    0.005020   -0.005669
 ---------------------------------------------------------------------
 Rotational constants (GHZ):      313863.4106147           4.4673148           4.4672772
 Standard basis: Aug-CC-pVDZ (5D, 7F)
 There are    93 symmetry adapted cartesian basis functions of A   symmetry.
 There are    87 symmetry adapted basis functions of A   symmetry.
    87 basis functions,   151 primitive gaussians,    93 cartesian basis functions
    12 alpha electrons       12 beta electrons
       nuclear repulsion energy        55.2168098911 Hartrees.
 NAtoms=    5 NActive=    5 NUniq=    5 SFac= 1.00D+00 NAtFMM=   60 NAOKFM=F Big=F
 Integral buffers will be    131072 words long.
 Raffenetti 1 integral format.
 Two-electron integral symmetry is turned on.
 One-electron integrals computed using PRISM.
 NBasis=    87 RedAO= T EigKep=  3.90D-04  NBF=    87
 NBsUse=    87 1.00D-06 EigRej= -1.00D+00 NBFU=    87
 Initial guess from the checkpoint file:  "/gscratch/scrubbed/gds001/Gau-8853.chk"
 B after Tr=     0.000000    0.000000   -0.000000
         Rot=    0.019039    0.999819   -0.000000    0.000005 Ang= 177.82 deg.
 ExpMin= 2.97D-02 ExpMax= 1.47D+04 ExpMxC= 5.03D+02 IAcc=3 IRadAn=         5 AccDes= 0.00D+00
 Harris functional with IExCor=  205 and IRadAn=       5 diagonalized for initial guess.
 HarFok:  IExCor=  205 AccDes= 0.00D+00 IRadAn=         5 IDoV= 1 UseB2=F ITyADJ=14
 ICtDFT=  3500011 ScaDFX=  1.000000  1.000000  1.000000  1.000000
 FoFCou: FMM=F IPFlag=           0 FMFlag=      100000 FMFlg1=           0
         NFxFlg=           0 DoJE=T BraDBF=F KetDBF=T FulRan=T
         wScrn=  0.000000 ICntrl=       500 IOpCl=  0 I1Cent=   200000004 NGrid=           0
         NMat0=    1 NMatS0=      1 NMatT0=    0 NMatD0=    1 NMtDS0=    0 NMtDT0=    0
 Petite list used in FoFCou.
 Keep R1 ints in memory in canonical form, NReq=13210002.
 Requested convergence on RMS density matrix=1.00D-08 within 128 cycles.
 Requested convergence on MAX density matrix=1.00D-06.
 Requested convergence on             energy=1.00D-06.
 No special actions if energy rises.
 SCF Done:  E(RHF) =  -192.909324249     A.U. after   12 cycles
            NFock= 12  Conv=0.81D-08     -V/T= 2.0021
 ExpMin= 2.97D-02 ExpMax= 1.47D+04 ExpMxC= 5.03D+02 IAcc=3 IRadAn=         5 AccDes= 0.00D+00
 HarFok:  IExCor=  205 AccDes= 0.00D+00 IRadAn=         5 IDoV=-2 UseB2=F ITyADJ=14
 ICtDFT= 12500011 ScaDFX=  1.000000  1.000000  1.000000  1.000000
 Range of M.O.s used for correlation:     4    87
 NBasis=    87 NAE=    12 NBE=    12 NFC=     3 NFV=     0
 NROrb=     84 NOA=     9 NOB=     9 NVA=    75 NVB=    75

 **** Warning!!: The largest alpha MO coefficient is  0.15355812D+02

 Fully direct method using O(ONN) memory.
 JobTyp=1 Pass  1:  I=   4 to  12 NPSUse= 28 ParTrn=T ParDer=T DoDerP=T.
 Spin components of T(2) and E(2):
     alpha-alpha T2 =       0.2260709961D-01 E2=     -0.7026892421D-01
     alpha-beta  T2 =       0.1238130921D+00 E2=     -0.3914436101D+00
     beta-beta   T2 =       0.2260709961D-01 E2=     -0.7026892421D-01
 ANorm=    0.1081215654D+01
 E2 =    -0.5319814586D+00 EUMP2 =    -0.19344130570743D+03
          IDoAtm=11111
          Differentiating once with respect to electric field.
                with respect to dipole field.
          Differentiating once with respect to nuclear coordinates.
 Keep R1 ints in memory in canonical form, NReq=13212190.
          There are     1 degrees of freedom in the 1st order CPHF.  IDoFFX=0 NUNeed=     1.
 LinEq1:  Iter=  0 NonCon=     1 RMS=6.77D-03 Max=5.78D-02 NDo=     1
 AX will form     1 AO Fock derivatives at one time.
 LinEq1:  Iter=  1 NonCon=     1 RMS=1.80D-03 Max=1.89D-02 NDo=     1
 LinEq1:  Iter=  2 NonCon=     1 RMS=5.49D-04 Max=4.15D-03 NDo=     1
 LinEq1:  Iter=  3 NonCon=     1 RMS=2.06D-04 Max=2.09D-03 NDo=     1
 LinEq1:  Iter=  4 NonCon=     1 RMS=9.49D-05 Max=9.88D-04 NDo=     1
 LinEq1:  Iter=  5 NonCon=     1 RMS=2.79D-05 Max=1.83D-04 NDo=     1
 LinEq1:  Iter=  6 NonCon=     1 RMS=5.47D-06 Max=3.72D-05 NDo=     1
 LinEq1:  Iter=  7 NonCon=     1 RMS=6.75D-07 Max=6.09D-06 NDo=     1
 LinEq1:  Iter=  8 NonCon=     1 RMS=1.55D-07 Max=1.76D-06 NDo=     1
 LinEq1:  Iter=  9 NonCon=     1 RMS=4.45D-08 Max=4.15D-07 NDo=     1
 LinEq1:  Iter= 10 NonCon=     1 RMS=7.45D-09 Max=4.55D-08 NDo=     1
 LinEq1:  Iter= 11 NonCon=     1 RMS=1.03D-09 Max=7.68D-09 NDo=     1
 LinEq1:  Iter= 12 NonCon=     1 RMS=1.76D-10 Max=1.60D-09 NDo=     1
 LinEq1:  Iter= 13 NonCon=     0 RMS=2.32D-11 Max=1.56D-10 NDo=     1
 Linear equations converged to 1.000D-10 1.000D-09 after    13 iterations.
 End of Minotr F.D. properties file   721 does not exist.
 End of Minotr F.D. properties file   722 does not exist.
 End of Minotr F.D. properties file   788 does not exist.
 Calling FoFJK, ICntrl=  10002127 FMM=F ISym2X=0 I1Cent= 0 IOpClX= 0 NMat=1 NMatS=1 NMatT=0.
 ***** Axes restored to original set *****
 -------------------------------------------------------------------
 Center     Atomic                   Forces (Hartrees/Bohr)
 Number     Number              X              Y              Z
 -------------------------------------------------------------------
      1        6           0.004102853   -0.000626751    0.001448140
      2        7           0.025825777    0.003582944   -0.000843026
      3        1          -0.000571561    0.000581497   -0.000834790
      4        9           0.014655297    0.001425109    0.000054575
      5        1          -0.044012366   -0.004962799    0.000175101
 -------------------------------------------------------------------
 Cartesian Forces:  Max     0.044012366 RMS     0.013855839

 GradGradGradGradGradGradGradGradGradGradGradGradGradGradGradGradGradGrad
 Berny optimization.
 Using GEDIIS/GDIIS optimizer.
 FormGI is forming the generalized inverse of G from B-inverse, IUseBI=4.
 Internal  Forces:  Max     0.029566880 RMS     0.010526872
 Search for a local minimum.
 Step number   5 out of a maximum of   20
 All quantities printed in internal units (Hartrees-Bohrs-Radians)
 Mixed Optimization -- RFO/linear search
 Update second derivatives using D2CorX and points    2    3    4    5
 DE= -6.52D-03 DEPred=-4.25D-03 R= 1.53D+00
 TightC=F SS=  1.41D+00  RLast= 1.65D-01 DXNew= 1.1738D+00 4.9528D-01
 Trust test= 1.53D+00 RLast= 1.65D-01 DXMaxT set to 6.98D-01
 The second derivative matrix:
                          R1        R2        R3        R4        A1
           R1           1.57542
           R2          -0.00519   0.37640
           R3          -0.08691  -0.00595   0.14709
           R4          -0.05648  -0.00552   0.12587   0.30176
           A1          -0.00301   0.00028  -0.00161  -0.00908   0.00579
           A2          -0.00084   0.00006  -0.00046  -0.00204   0.00008
           A3          -0.00216   0.00022  -0.00166  -0.00683   0.00032
           A4          -0.00492   0.00045  -0.00255  -0.01447   0.00062
           A5           0.00063  -0.00007   0.00050   0.00213  -0.00010
           A6          -0.00103   0.00012  -0.00074  -0.00341   0.00016
                          A2        A3        A4        A5        A6
           A2           0.00834
           A3           0.00006   0.01584
           A4           0.00013   0.00050   0.00636
           A5          -0.00002  -0.00008  -0.00016   0.00835
           A6           0.00003   0.00013   0.00025  -0.00004   0.01565
 ITU=  1  1  0  1  0
 Use linear search instead of GDIIS.
     Eigenvalues ---    0.00548   0.00623   0.00833   0.01436   0.01560
     Eigenvalues ---    0.07557   0.36178   0.38087   1.58392
 RFO step:  Lambda=-7.62811627D-03 EMin= 5.48233605D-03
 Quartic linear search produced a step of  0.77204.
 Iteration  1 RMS(Cart)=  0.13048241 RMS(Int)=  0.05650370
 Iteration  2 RMS(Cart)=  0.06701457 RMS(Int)=  0.02082728
 Iteration  3 RMS(Cart)=  0.00869875 RMS(Int)=  0.01991845
 Iteration  4 RMS(Cart)=  0.00042950 RMS(Int)=  0.01993617
 Iteration  5 RMS(Cart)=  0.00008560 RMS(Int)=  0.01993675
 Iteration  6 RMS(Cart)=  0.00000623 RMS(Int)=  0.01993644
 Iteration  7 RMS(Cart)=  0.00000125 RMS(Int)=  0.01993643
 Iteration  8 RMS(Cart)=  0.00000009 RMS(Int)=  0.01993643
 Variable       Old X    -DE/DX   Delta X   Delta X   Delta X     New X
                                 (Linear)    (Quad)   (Total)
    R1        2.21693   0.00349  -0.00370   0.01418   0.01029   2.22722
    R2        2.03784  -0.00052   0.00121   0.00005   0.00172   2.03956
    R3        2.64658   0.02957   0.07157   0.21108   0.28266   2.92924
    R4        1.89155  -0.01472  -0.10029  -0.06067  -0.16127   1.73028
    A1        3.16192  -0.00103   0.01792  -0.21621  -0.23876   2.92316
    A2        3.14273  -0.00026   0.00046  -0.07402  -0.03316   3.10957
    A3        3.15331  -0.00082   0.01160  -0.11708  -0.09422   3.05909
    A4        3.16787  -0.00167   0.02263  -0.36425  -0.32053   2.84734
    A5        3.13457   0.00025  -0.00701   0.06374   0.04540   3.17998
    A6        3.14714  -0.00040   0.00575  -0.05009  -0.04201   3.10512
         Item               Value     Threshold  Converged?
 Maximum Force            0.029567     0.000450     NO 
 RMS     Force            0.010527     0.000300     NO 
 Maximum Displacement     0.288304     0.001800     NO 
 RMS     Displacement     0.178629     0.001200     NO 
 Predicted change in Energy=-7.827131D-03
 GradGradGradGradGradGradGradGradGradGradGradGradGradGradGradGradGradGrad

                          Input orientation:                          
 ---------------------------------------------------------------------
 Center     Atomic      Atomic             Coordinates (Angstroms)
 Number     Number       Type             X           Y           Z
 ---------------------------------------------------------------------
      1          6           0        1.564998    0.029614    0.117914
      2          7           0        0.388842   -0.039223    0.086260
      3          1           0        2.568917    0.314922   -0.157064
      4          9           0       -2.053236   -0.336532   -0.040452
      5          1           0       -1.151642   -0.178994   -0.014460
 ---------------------------------------------------------------------
                    Distance matrix (angstroms):
                    1          2          3          4          5
     1  C    0.000000
     2  N    1.178594   0.000000
     3  H    1.079290   2.222016   0.000000
     4  F    3.640159   2.463370   4.669292   0.000000
     5  H    2.727852   1.550087   3.755909   0.915623   0.000000
 Stoichiometry    CH2FN
 Framework group  C1[X(CH2FN)]
 Deg. of freedom     9
 Full point group                 C1      NOp   1
 Largest Abelian subgroup         C1      NOp   1
 Largest concise Abelian subgroup C1      NOp   1
                         Standard orientation:                         
 ---------------------------------------------------------------------
 Center     Atomic      Atomic             Coordinates (Angstroms)
 Number     Number       Type             X           Y           Z
 ---------------------------------------------------------------------
      1          6           0       -1.779184    0.047577   -0.025630
      2          7           0       -0.602259    0.023707    0.032372
      3          1           0       -2.799764   -0.303051   -0.007100
      4          9           0        1.860458   -0.012183   -0.011525
      5          1           0        0.946560   -0.038716    0.037996
 ---------------------------------------------------------------------
 Rotational constants (GHZ):        3370.7471463           4.3058692           4.3023159
 Standard basis: Aug-CC-pVDZ (5D, 7F)
 There are    93 symmetry adapted cartesian basis functions of A   symmetry.
 There are    87 symmetry adapted basis functions of A   symmetry.
    87 basis functions,   151 primitive gaussians,    93 cartesian basis functions
    12 alpha electrons       12 beta electrons
       nuclear repulsion energy        54.7660989857 Hartrees.
 NAtoms=    5 NActive=    5 NUniq=    5 SFac= 1.00D+00 NAtFMM=   60 NAOKFM=F Big=F
 Integral buffers will be    131072 words long.
 Raffenetti 1 integral format.
 Two-electron integral symmetry is turned on.
 One-electron integrals computed using PRISM.
 NBasis=    87 RedAO= T EigKep=  4.10D-04  NBF=    87
 NBsUse=    87 1.00D-06 EigRej= -1.00D+00 NBFU=    87
 Initial guess from the checkpoint file:  "/gscratch/scrubbed/gds001/Gau-8853.chk"
 B after Tr=    -0.000000    0.000000   -0.000000
         Rot=    0.032214    0.999481    0.000274   -0.000004 Ang= 176.31 deg.
 ExpMin= 2.97D-02 ExpMax= 1.47D+04 ExpMxC= 5.03D+02 IAcc=3 IRadAn=         5 AccDes= 0.00D+00
 Harris functional with IExCor=  205 and IRadAn=       5 diagonalized for initial guess.
 HarFok:  IExCor=  205 AccDes= 0.00D+00 IRadAn=         5 IDoV= 1 UseB2=F ITyADJ=14
 ICtDFT=  3500011 ScaDFX=  1.000000  1.000000  1.000000  1.000000
 FoFCou: FMM=F IPFlag=           0 FMFlag=      100000 FMFlg1=           0
         NFxFlg=           0 DoJE=T BraDBF=F KetDBF=T FulRan=T
         wScrn=  0.000000 ICntrl=       500 IOpCl=  0 I1Cent=   200000004 NGrid=           0
         NMat0=    1 NMatS0=      1 NMatT0=    0 NMatD0=    1 NMtDS0=    0 NMtDT0=    0
 Petite list used in FoFCou.
 Keep R1 ints in memory in canonical form, NReq=13209914.
 Requested convergence on RMS density matrix=1.00D-08 within 128 cycles.
 Requested convergence on MAX density matrix=1.00D-06.
 Requested convergence on             energy=1.00D-06.
 No special actions if energy rises.
 SCF Done:  E(RHF) =  -192.913801378     A.U. after   14 cycles
            NFock= 14  Conv=0.24D-08     -V/T= 2.0017
 ExpMin= 2.97D-02 ExpMax= 1.47D+04 ExpMxC= 5.03D+02 IAcc=3 IRadAn=         5 AccDes= 0.00D+00
 HarFok:  IExCor=  205 AccDes= 0.00D+00 IRadAn=         5 IDoV=-2 UseB2=F ITyADJ=14
 ICtDFT= 12500011 ScaDFX=  1.000000  1.000000  1.000000  1.000000
 Range of M.O.s used for correlation:     4    87
 NBasis=    87 NAE=    12 NBE=    12 NFC=     3 NFV=     0
 NROrb=     84 NOA=     9 NOB=     9 NVA=    75 NVB=    75

 **** Warning!!: The largest alpha MO coefficient is  0.13833216D+02

 Fully direct method using O(ONN) memory.
 JobTyp=1 Pass  1:  I=   4 to  12 NPSUse= 28 ParTrn=T ParDer=T DoDerP=T.
 Spin components of T(2) and E(2):
     alpha-alpha T2 =       0.2247924537D-01 E2=     -0.6961702817D-01
     alpha-beta  T2 =       0.1239547677D+00 E2=     -0.3895225301D+00
     beta-beta   T2 =       0.2247924537D-01 E2=     -0.6961702817D-01
 ANorm=    0.1081162919D+01
 E2 =    -0.5287565864D+00 EUMP2 =    -0.19344255796482D+03
          IDoAtm=11111
          Differentiating once with respect to electric field.
                with respect to dipole field.
          Differentiating once with respect to nuclear coordinates.
 Keep R1 ints in memory in canonical form, NReq=13212146.
          There are     1 degrees of freedom in the 1st order CPHF.  IDoFFX=0 NUNeed=     1.
 LinEq1:  Iter=  0 NonCon=     1 RMS=6.53D-03 Max=5.28D-02 NDo=     1
 AX will form     1 AO Fock derivatives at one time.
 LinEq1:  Iter=  1 NonCon=     1 RMS=1.72D-03 Max=1.44D-02 NDo=     1
 LinEq1:  Iter=  2 NonCon=     1 RMS=5.70D-04 Max=5.14D-03 NDo=     1
 LinEq1:  Iter=  3 NonCon=     1 RMS=2.75D-04 Max=4.49D-03 NDo=     1
 LinEq1:  Iter=  4 NonCon=     1 RMS=1.59D-04 Max=2.38D-03 NDo=     1
 LinEq1:  Iter=  5 NonCon=     1 RMS=6.26D-05 Max=7.87D-04 NDo=     1
 LinEq1:  Iter=  6 NonCon=     1 RMS=1.46D-05 Max=1.17D-04 NDo=     1
 LinEq1:  Iter=  7 NonCon=     1 RMS=2.73D-06 Max=1.55D-05 NDo=     1
 LinEq1:  Iter=  8 NonCon=     1 RMS=3.70D-07 Max=2.86D-06 NDo=     1
 LinEq1:  Iter=  9 NonCon=     1 RMS=7.67D-08 Max=5.99D-07 NDo=     1
 LinEq1:  Iter= 10 NonCon=     1 RMS=1.58D-08 Max=1.08D-07 NDo=     1
 LinEq1:  Iter= 11 NonCon=     1 RMS=2.18D-09 Max=1.13D-08 NDo=     1
 LinEq1:  Iter= 12 NonCon=     1 RMS=2.66D-10 Max=1.31D-09 NDo=     1
 LinEq1:  Iter= 13 NonCon=     0 RMS=3.11D-11 Max=1.92D-10 NDo=     1
 Linear equations converged to 1.000D-10 1.000D-09 after    13 iterations.
 End of Minotr F.D. properties file   721 does not exist.
 End of Minotr F.D. properties file   722 does not exist.
 End of Minotr F.D. properties file   788 does not exist.
 Calling FoFJK, ICntrl=  10002127 FMM=F ISym2X=0 I1Cent= 0 IOpClX= 0 NMat=1 NMatS=1 NMatT=0.
 ***** Axes restored to original set *****
 -------------------------------------------------------------------
 Center     Atomic                   Forces (Hartrees/Bohr)
 Number     Number              X              Y              Z
 -------------------------------------------------------------------
      1        6          -0.002621456    0.011476227   -0.015492161
      2        7           0.018553514   -0.002424245    0.007297317
      3        1           0.004156748   -0.005817170    0.008224822
      4        9          -0.042733436   -0.005581761   -0.002533225
      5        1           0.022644630    0.002346949    0.002503247
 -------------------------------------------------------------------
 Cartesian Forces:  Max     0.042733436 RMS     0.014807617

 GradGradGradGradGradGradGradGradGradGradGradGradGradGradGradGradGradGrad
 Berny optimization.
 Using GEDIIS/GDIIS optimizer.
 FormGI is forming the generalized inverse of G from B-inverse, IUseBI=4.
 Internal  Forces:  Max     0.042897997 RMS     0.016395692
 Search for a local minimum.
 Step number   6 out of a maximum of   20
 All quantities printed in internal units (Hartrees-Bohrs-Radians)
 Mixed Optimization -- RFO/linear search
 Update second derivatives using D2CorX and points    5    6
 DE= -1.25D-03 DEPred=-7.83D-03 R= 1.60D-01
 Trust test= 1.60D-01 RLast= 5.29D-01 DXMaxT set to 6.98D-01
 The second derivative matrix:
                          R1        R2        R3        R4        A1
           R1           1.57420
           R2          -0.00505   0.37639
           R3          -0.09536  -0.00495   0.08960
           R4          -0.06003  -0.00440   0.11620   0.45465
           A1          -0.00435   0.00063  -0.00678   0.03207   0.01675
           A2          -0.00044  -0.00003   0.00141  -0.01068  -0.00219
           A3          -0.00197   0.00023   0.00026  -0.00004   0.00225
           A4          -0.00633   0.00082  -0.00799   0.02903   0.01221
           A5           0.00022   0.00002  -0.00152   0.00983   0.00191
           A6          -0.00130   0.00020  -0.00149   0.00851   0.00337
                          A2        A3        A4        A5        A6
           A2           0.00880
           A3          -0.00037   0.01604
           A4          -0.00227   0.00254   0.01861
           A5          -0.00042   0.00032   0.00196   0.00869
           A6          -0.00064   0.00066   0.00365   0.00056   0.01658
 ITU=  0  1  1  0  1  0
 Use linear search instead of GDIIS.
     Eigenvalues ---    0.00614   0.00832   0.01138   0.01460   0.01880
     Eigenvalues ---    0.06530   0.37579   0.48579   1.57868
 RFO step:  Lambda=-1.35172218D-02 EMin= 6.14148722D-03
 Quartic linear search produced a step of -0.43762.
 Iteration  1 RMS(Cart)=  0.12967095 RMS(Int)=  0.12346014
 Iteration  2 RMS(Cart)=  0.10959267 RMS(Int)=  0.05346579
 Iteration  3 RMS(Cart)=  0.08457693 RMS(Int)=  0.03425525
 Iteration  4 RMS(Cart)=  0.01129715 RMS(Int)=  0.03190143
 Iteration  5 RMS(Cart)=  0.00270890 RMS(Int)=  0.03186547
 Iteration  6 RMS(Cart)=  0.00024472 RMS(Int)=  0.03187173
 Iteration  7 RMS(Cart)=  0.00006912 RMS(Int)=  0.03187158
 Iteration  8 RMS(Cart)=  0.00000645 RMS(Int)=  0.03187139
 Iteration  9 RMS(Cart)=  0.00000180 RMS(Int)=  0.03187140
 Iteration 10 RMS(Cart)=  0.00000017 RMS(Int)=  0.03187140
 Variable       Old X    -DE/DX   Delta X   Delta X   Delta X     New X
                                 (Linear)    (Quad)   (Total)
    R1        2.22722   0.00124  -0.00450   0.02548   0.02075   2.24797
    R2        2.03956   0.00002  -0.00075   0.00297   0.00264   2.04220
    R3        2.92924   0.01987  -0.12370   0.43333   0.30961   3.23885
    R4        1.73028   0.04290   0.07058  -0.11083  -0.04044   1.68984
    A1        2.92316   0.01421   0.10448   0.29517   0.34811   3.27126
    A2        3.10957  -0.00338   0.01451  -0.06224   0.00095   3.11052
    A3        3.05909   0.00198   0.04123  -0.01766   0.03939   3.09848
    A4        2.84734   0.01444   0.14027   0.33960   0.52182   3.36916
    A5        3.17998   0.00300  -0.01987   0.04723  -0.02426   3.15572
    A6        3.10512   0.00410   0.01839   0.02983   0.02684   3.13196
         Item               Value     Threshold  Converged?
 Maximum Force            0.042898     0.000450     NO 
 RMS     Force            0.016396     0.000300     NO 
 Maximum Displacement     0.453216     0.001800     NO 
 RMS     Displacement     0.283437     0.001200     NO 
 Predicted change in Energy=-1.132492D-02
 GradGradGradGradGradGradGradGradGradGradGradGradGradGradGradGradGradGrad

                          Input orientation:                          
 ---------------------------------------------------------------------
 Center     Atomic      Atomic             Coordinates (Angstroms)
 Number     Number       Type             X           Y           Z
 ---------------------------------------------------------------------
      1          6           0        1.610774    0.185492   -0.107810
      2          7           0        0.431495    0.041031   -0.048462
      3          1           0        2.674494    0.177216    0.082767
      4          9           0       -2.137544   -0.393997    0.052925
      5          1           0       -1.261339   -0.219955    0.012777
 ---------------------------------------------------------------------
                    Distance matrix (angstroms):
                    1          2          3          4          5
     1  C    0.000000
     2  N    1.189576   0.000000
     3  H    1.080688   2.250958   0.000000
     4  F    3.796253   2.607583   4.845914   0.000000
     5  H    2.903095   1.713928   3.956440   0.894225   0.000000
 Stoichiometry    CH2FN
 Framework group  C1[X(CH2FN)]
 Deg. of freedom     9
 Full point group                 C1      NOp   1
 Largest Abelian subgroup         C1      NOp   1
 Largest concise Abelian subgroup C1      NOp   1
                         Standard orientation:                         
 ---------------------------------------------------------------------
 Center     Atomic      Atomic             Coordinates (Angstroms)
 Number     Number       Type             X           Y           Z
 ---------------------------------------------------------------------
      1          6           0       -1.847714   -0.026876   -0.018343
      2          7           0       -0.658742   -0.031651    0.019275
      3          1           0       -2.892042    0.249605    0.010361
[...]
 12963159,0.00045615,0.00734069,-0.00963907,0.00851900,0.12582325,0.003
 86426,-0.00454860,-0.01892959,-0.00046880,0.00021303,-0.10666811,-0.00
 337381,-0.16468429,-0.00489215,0.00592219,0.02486248,0.00054050,-0.000
 26060,0.13952666,0.00432829,-0.00567112,-0.00045741,0.00011613,-0.0001
 5860,0.00030463,-0.00015920,0.00016255,0.00006300,-0.00014304,0.000195
 93,0.00897587,0.00050257,0.00011245,-0.00008645,-0.00049690,-0.0000852
 4,0.00006358,-0.00006742,-0.00006713,0.00006302,-0.01685922,-0.0092980
 9,-0.00079960,-0.00004706,0.00002335,0.00072258,0.00004329,-0.00000542
 ,0.00010358,0.00001282,-0.00000846,0.02502074,0.00629990,0.00036374,0.
 00075017,0.00036031,-0.00048275,-0.00089655,0.00036068,-0.00050002,-0.
 00014860,-0.00008252,0.00009923,-0.00888609,0.01692096,-0.02504730,0.0
 0918107,-0.00129026,-0.00008127,0.00003008,0.00154972,0.00029540,-0.00
 016774,0.00025464,0.00004548,-0.00003966,0.01704533,0.00933802,-0.0063
 0895,-0.01755943,-0.00959764,0.00192288,0.00007295,-0.00003932,-0.0022
 7353,-0.00021361,0.00002852,-0.00035958,-0.00000555,0.00001799,-0.0252
 2062,-0.00634005,-0.00037320,0.02593084,0.00648626,0.00036601,0.001033
 19,0.10835514,0.00397140,0.08062854,-0.00083316,-0.00295528,0.00055948
 ,0.02307003,0.01878238,-0.00162008,0.05653017,0.00118023,-0.00078408,-
 0.04664481,-0.00152022,0.04411108,0.00038452,-0.00138345,-0.03652133,0
 .00019613,0.00153628,-0.00111964,-0.13080262,-0.09894252,0.00015768,-0
 .00963043,-0.00731892,0.00081035,-0.16589340,-0.00510797,0.00168866,0.
 02492090,0.00061975,-0.00051672,0.14067429,0.00446014,-0.12558521,0.00
 042245,0.00435598,0.01890658,0.00072344,-0.00013407,0.10645866,-0.0011
 7412,-0.00421806,0.00071441,-0.00015211,-0.00014327,-0.00046703,0.0002
 2303,0.00015191,-0.00008916,0.00018677,0.00015045,-0.01258215,-0.00063
 027,-0.00015180,-0.00005261,0.00063873,0.00011410,0.00003868,0.0000883
 4,0.00009120,0.00004657,0.02189450,0.01214798,-0.00060000,-0.00004319,
 -0.00002320,0.00055086,0.00003887,-0.00000922,0.00007947,0.00001376,0.
 00001882,0.01872934,0.00501548,0.00031514,-0.00118744,-0.00047045,-0.0
 0032514,0.00136995,-0.00047796,-0.00042274,0.00024077,0.00011144,0.000
 06950,0.01242393,-0.02199130,-0.01875966,-0.01284722,0.00163837,0.0001
 0813,-0.00001880,-0.00198486,-0.00039385,-0.00010262,-0.00032959,-0.00
 006312,-0.00001834,-0.02215219,-0.01220147,-0.00502492,0.02282827,0.01
 255031,0.00144559,0.00006938,0.00000595,-0.00171850,-0.00017436,-0.000
 00954,-0.00027670,-0.00001157,-0.00002267,-0.01888843,-0.00504812,-0.0
 0030154,0.01943804,0.00516469,0.00032781,-1.66654745,-0.03841867,0.159
 95529,0.03361283,0.00070178,0.16018029,1.49553069,0.03490038,-0.030167
 52,-1.48461831,0.03552838,-0.15375798,-0.00066118,-0.03299258,0.162323
 80,-0.03005913,-0.00064882,-0.15385758,0.03031082,0.00067519,0.1618459
 5,0.17086697,0.00296073,-0.00347490,-0.00307671,0.00001498,-0.00017758
 ,-0.16796683,0.00282710,-0.00470860,-0.00005168,0.00025605,-0.01080124
 ,-0.00000616,-0.00302102,0.01519842,-0.00352569,-0.00005474,-0.0047259
 1,-0.00011331,-0.00000132,-0.01078901,0.00364354,0.00005791,0.01519464
 ,-0.00115009,-0.00071472,-0.00003816,-0.00240662,-0.00032014,0.0000028
 9,-0.00019666,0.00019000,0.00002042,0.01353668,-0.00035816,0.00069983,
 -0.00000875,-0.00057817,-0.00045283,-0.00000035,-0.00005121,-0.0001932
 7,0.00000595,0.00399907,-0.00144340,0.00000028,-0.00000228,0.00084838,
 -0.00002177,-0.00000476,-0.00035258,-0.00000722,0.00000134,-0.00023824
 ,0.00011550,0.00003101,-0.00246078,0.00129987,0.00127227,0.00006776,-0
 .00542904,-0.00223063,-0.00007699,0.00037322,-0.00025212,-0.00002495,-
 0.00978330,-0.00301153,-0.00008678,0.01353925,0.00042136,-0.00218853,0
 .00001983,-0.00158568,0.00268826,-0.00001986,0.00009652,0.00050469,-0.
 00000780,-0.00315420,0.00138967,-0.00002531,0.00422200,-0.00239409,-0.
 00002829,0.00000406,-0.00244518,-0.00000822,-0.00000793,0.00315321,0.0
 0001617,-0.00000141,0.00055853,-0.00010064,-0.00002786,0.00220322,0.00
 012097,0.00003314,-0.00346977,-0.72787423,-0.00717021,0.10317238,0.018
 33005,0.00017906,0.10277171,-0.52974139,-0.01348152,0.01092897,0.53607
 152,-0.01375584,0.07769487,0.00025445,0.01326207,-0.06988114,0.0109483
 9,0.00025018,0.07774014,-0.01096359,-0.00025781,-0.06982192,1.25607460
 ,0.02102214,-0.02919709,-0.00666408,-0.00005217,-0.00002412,-1.2487237
 0,0.02066176,-0.18160701,-0.00042087,0.00005038,-0.00709550,-0.0000026
 8,-0.02090654,0.18914033,-0.02929416,-0.00042978,-0.18131000,0.0000394
 2,0.00000061,-0.00708166,0.02922450,0.00042480,0.18885299,-0.00035798,
 0.00026134,0.00002907,-0.00049306,-0.00032875,-0.00002218,-0.00021901,
 -0.00016960,-0.00000943,-0.03773147,-0.00003720,-0.00027224,0.00000495
 ,-0.00017197,0.00018701,-0.00000298,-0.00010059,0.00018722,-0.00000125
 ,-0.01104827,0.00253674,-0.00000381,-0.00000013,-0.00031579,-0.0000032
 9,-0.00000022,0.00024743,-0.00000171,-0.00000023,0.00021986,-0.0003225
 1,-0.00008107,0.00535419,0.00189899,-0.00063176,-0.00009100,0.00082702
 ,0.00087469,0.00006150,-0.00046780,0.00036401,0.00003967,0.03880153,0.
 01135803,0.00033132,-0.04105974,0.00030149,0.00101199,-0.00001758,0.00
 034104,-0.00090525,0.00001329,0.00003716,-0.00062505,0.00000563,0.0112
 8528,-0.00263874,0.00008166,-0.01196496,0.00315704,0.00001953,0.000000
 68,0.00111395,-0.00000152,0.00000297,-0.00108399,-0.00000158,-0.000001
 01,-0.00068118,0.00032505,0.00008036,-0.00550568,-0.00034149,-0.000082
 99,0.00615690,-0.00031477,0.00147052,0.00308722,0.00021145,-0.00002873
 ,0.00305389,0.01165314,-0.00154328,-0.00055920,-0.00089388,-0.00312235
 ,-0.00677314,0.00004914,0.00293837,0.01402442,-0.00074850,0.00001558,-
 0.00661184,0.00063508,-0.00003522,0.01375011,-0.02032018,-0.00045089,0
 .00047418,-0.00076485,0.00005028,-0.00000347,0.02157625,-0.00076329,0.
 00357113,0.00001604,0.00048831,-0.00114355,-0.00000987,0.00044986,-0.0
 0325491,0.00043744,0.00000990,0.00356691,0.00005072,-0.00000123,-0.001
 14590,-0.00049350,-0.00000887,-0.00325427,-0.00750857,-0.00056405,0.00
 009212,-0.02807260,-0.00679616,-0.00017880,0.00009338,0.00039223,0.000
 04211,-2.06832013,-0.00190521,-0.00010894,0.00002058,-0.00741835,0.000
 27228,-0.00004023,0.00002981,-0.00003536,0.00000988,-0.61035186,0.1449
 2093,-0.00005379,-0.00000630,0.00005711,-0.00020236,-0.00004232,0.0019
 1979,-0.00000081,0.00000167,-0.00012368,-0.01797089,-0.00462932,0.3019
 6262,0.01649039,0.00108770,-0.00021854,0.01807820,0.00692986,0.0002956
 9,-0.00058460,-0.00056710,-0.00003678,2.10380792,0.61964560,0.01822785
 ,-2.13779190,0.00432032,0.00022373,-0.00005703,0.00553495,-0.00638001,
 0.00006973,-0.00007906,0.00086269,-0.00000969,0.61731985,-0.14504892,0
 .00467628,-0.62709606,0.15034252,0.00015340,0.00000955,-0.00006607,0.0
 0007575,0.00002962,-0.00791217,0.00002360,0.00000103,0.00095694,0.0180
 1546,0.00463909,-0.30381584,-0.01826822,-0.00467929,0.31083715,-0.2989
 6961,-0.00754121,0.08251460,0.00591805,0.00691353,0.02429300,0.2337903
 9,0.00624674,-0.00454085,-0.23400514,0.00657946,-0.06202006,-0.0050981
 7,-0.00651555,0.06288568,-0.00447709,-0.00509104,-0.01936536,0.0045241
 5,0.00504219,0.02051456,0.06541390,0.00112775,-0.00140014,-0.00055939,
 0.00001951,-0.00002506,-0.06482601,0.00112896,-0.02007111,-0.00179230,
 0.00002317,-0.00146987,0.00002614,-0.00114753,0.02157555,-0.00141638,-
 0.00179232,-0.00471446,-0.00000684,0.00002634,-0.00153970,0.00142413,0
 .00177119,0.00623565,0.00037393,-0.00018179,-0.00002711,-0.00001186,0.
 00036312,0.00003686,0.00000840,-0.00001284,-0.00000134,-0.03767375,0.0
 0007049,0.00023170,0.00001370,0.00004747,-0.00050631,-0.00002993,-0.00
 000058,0.00002344,0.00000443,-0.01296385,0.00999956,0.00000444,0.00001
 908,0.00010010,-0.00000158,-0.00003669,-0.00025266,-0.00000066,0.00000
 463,-0.00001687,-0.00056790,0.00090692,0.00460298,-0.00060862,0.000348
 51,0.00005006,0.00078599,-0.00044654,-0.00005885,-0.00003690,0.0000082
 4,0.00000044,0.03730328,0.01284647,0.00056571,-0.03744375,-0.00023770,
 -0.00065513,-0.00003677,0.00019817,0.00111056,0.00005263,0.00000085,-0
 .00005801,-0.00000964,0.01279536,-0.00974839,-0.00089393,-0.01275668,0
 .00935097,-0.00002901,-0.00004925,-0.00031329,0.00002512,0.00006633,0.
 00064315,0.00000174,-0.00000966,0.00003537,0.00055950,-0.00089513,-0.0
 0443354,-0.00055735,0.00088771,0.00406830,-0.00561727,0.00021084,0.001
 68014,0.00016875,0.00014272,0.00066289,0.00373510,-0.00022381,-0.00013
 204,0.00319632,-0.00030314,-0.00122901,-0.00010969,0.00160501,0.001018
 47,-0.00012569,-0.00011077,-0.00051571,0.00012771,0.00009341,0.0000202
 8,0.00142727,0.00000703,-0.00003197,-0.00016227,-0.00002415,-0.0000024
 2,-0.00131992,0.00005179,-0.00047813,-0.00003169,-0.00006794,-0.000029
 95,0.00001597,0.00000511,0.00047582,-0.00003267,-0.00003083,-0.0001609
 0,0.00000028,0.00001536,0.00000289,0.00003324,0.00001492,0.00012504,-0
 .00086055,-0.00009404,0.00000621,-0.00465520,-0.00103631,-0.00000487,0
 .00004595,0.00000923,-0.00000036,0.00085074,-0.00018046,-0.00003860,0.
 00000162,-0.00112554,0.00055458,-0.00000089,0.00001756,-0.00003864,-0.
 00000038,0.00043654,-0.00073760,-0.00000056,0.00000004,-0.00002056,-0.
 00001704,-0.00000291,0.00077341,0.00000010,-0.00000026,-0.00004134,0.0
 0000155,0.00000712,-0.00091774,0.00131545,0.00009998,-0.00001094,-0.00
 211396,-0.00024141,0.00000527,0.00000896,0.00000181,-0.00000049,0.0046
 1906,0.00085190,0.00001596,-0.00382951,0.00022098,0.00006560,-0.000002
 97,-0.00018772,-0.00031409,0.00000228,-0.00000556,0.00007090,0.0000009
 3,0.00068458,0.00026024,-0.00000399,-0.00071228,-0.00008264,-0.0000098
 2,-0.00000117,0.00003428,0.00002110,0.00000384,-0.00028087,0.00000105,
 0.00000107,0.00007431,-0.00000253,-0.00000748,0.00020626,-0.00000980,0
 .00000374,-0.00003397,-0.01039956,-0.00168707,-0.00063165,-0.00022130,
 -0.00098471,-0.00007726,0.01603449,0.00143052,-0.00006912,-0.02617910,
 0.00324786,0.00214313,0.00041630,-0.00231636,-0.00789534,0.00037564,0.
 00043192,0.00167920,-0.00007073,0.00263387,-0.00860366,0.00226648,0.00
 023440,0.00003997,0.00108710,-0.00006814,-0.00013712,-0.00280424,0.000
 31035,-0.00120372,0.00039446,-0.00043083,0.00100063,-0.00024145,-0.000
 10979,0.00068192,0.00000624,0.00040657,-0.00131887,-0.00011302,-0.0002
 4797,0.00115074,0.00006049,-0.00044672,0.00077308,-0.00297350,-0.00023
 357,0.00015486,-0.00385307,-0.00178706,0.00006769,-0.00109417,0.000236
 18,0.00000949,-1.42413785,-0.00119565,0.00006922,-0.00005980,-0.001074
 01,-0.00085790,-0.00002368,-0.00018229,-0.00002629,0.00006210,-0.44163
 967,0.19060222,0.00006385,-0.00015632,0.00007160,-0.00027055,0.0000842
 4,-0.00016015,0.00003976,0.00003499,-0.00011967,0.02493752,-0.16346113
 ,0.36771903,-0.00492792,0.00025572,0.00009559,0.01291057,0.00092369,-0
 .00023548,0.00054483,-0.00000591,0.00003681,1.43205862,0.44409161,-0.0
 2477058,-1.44058610,-0.00067550,-0.00037697,0.00023376,0.00239067,0.00
 560949,-0.00280066,0.00012582,-0.00045254,0.00022602,0.44342412,-0.189
 78723,0.16349821,-0.44526511,0.18500725,-0.00022444,0.00030255,-0.0003
 5468,0.00052342,-0.00288644,0.00593385,-0.00000310,0.00025872,-0.00048
 530,-0.02516955,0.16348250,-0.36751076,0.02487367,-0.16115733,0.362416
 89,-0.01042951,-0.00151768,-0.00021663,0.00029958,0.00108686,-0.000501
 01,0.01597360,0.00138988,-0.00022562,-0.02600837,0.00309817,0.00202525
 ,-0.00056340,-0.00227386,-0.00906444,-0.00021867,-0.00050236,0.0019447
 1,0.00033379,-0.00257801,-0.00771487,0.00235875,0.00016432,-0.00014927
 ,0.00109080,0.00000749,0.00012677,-0.00288954,0.00026804,-0.00141003,-
 0.00040124,-0.00039739,0.00111028,0.00028592,-0.00008335,0.00089386,-0
 .00010237,-0.00041306,-0.00118870,0.00001973,0.00028113,0.00103960,0.0
 0007581,0.00041372,0.00063624,-0.00293775,-0.00030295,-0.00008962,-0.0
 0386829,-0.00192390,-0.00036637,-0.00108904,0.00026330,0.00009611,-1.4
 2042089,-0.00126851,0.00012981,0.00012260,-0.00090783,-0.00093127,-0.0
 0011167,-0.00021898,-0.00003958,-0.00003471,-0.45826988,0.25097922,-0.
 00021048,0.00017840,0.00003965,0.00022899,-0.00016597,-0.00017030,-0.0
 0004384,-0.00002897,-0.00010053,-0.05122163,0.15674292,0.30312109,-0.0
 0496509,0.00026644,0.00016493,0.01281227,0.00109209,0.00012448,0.00052
 903,-0.00005059,-0.00008928,1.42831595,0.46066520,0.05124696,-1.436692
 16,-0.00058002,-0.00052839,-0.00024482,0.00218920,0.00686019,0.0029061
 3,0.00013052,-0.00055452,-0.00024709,0.46023343,-0.25013820,-0.1567263
 8,-0.46197314,0.24436092,0.00023194,-0.00034984,-0.00029464,-0.0003569
 0,0.00302624,0.00490087,-0.00000946,-0.00026942,-0.00038660,0.05158151
 ,-0.15671915,-0.30288989,-0.05144709,0.15431216,0.29867027,-0.86291750
 ,-0.01643976,0.11958461,0.02115537,-0.07207025,0.15898837,0.09118626,0
 .00137156,-0.00116484,-0.05420169,0.00216365,0.01231664,0.00035809,-0.
 00142672,-0.00552799,-0.00098479,0.00028143,0.01169651,0.00047347,-0.0
 0564980,-0.00192555,0.77102620,0.01557104,-0.02013658,-0.03685937,-0.0
 0093315,0.00055644,-0.73300177,0.01446862,-0.13305727,0.07222766,-0.00
 019615,-0.00630845,0.00525320,-0.01452833,0.13999967,-0.02000821,0.072
 32386,-0.17220289,0.00049383,0.00516742,-0.00918023,0.01962421,-0.0778
 7780,0.18226288,0.00135080,0.00035675,-0.00011516,-0.00147286,-0.00036
 315,0.00002656,-0.00040501,-0.00016344,0.00010109,-0.01639186,0.000560
 51,-0.00037767,0.00017406,-0.00058430,0.00020532,-0.00007139,-0.000176
 58,0.00020026,-0.00012437,-0.00503385,0.00197214,0.00011211,0.00018977
 ,-0.00054338,-0.00011664,-0.00007936,0.00033693,0.00000779,-0.00013588
 ,0.00029603,0.00031525,-0.00184837,0.00437351,-0.00064577,-0.00085959,
 0.00026121,0.00134765,0.00055937,-0.00007168,-0.00076005,0.00041931,-0
 .00021092,0.01691892,0.00523422,-0.00031852,-0.01686074,-0.00075301,0.
 00153370,-0.00068955,0.00083562,-0.00068551,0.00018656,0.00006702,-0.0
 0083421,0.00051088,0.00520368,-0.00200004,0.00187384,-0.00535331,0.001
 98606,-0.00027449,-0.00072481,0.00206139,0.00031418,0.00020366,-0.0009
 2766,-0.00005187,0.00053282,-0.00117579,-0.00032774,0.00187006,-0.0044
 6309,0.00033992,-0.00188173,0.00450515,-0.86568215,-0.01327444,0.16053
 756,0.01999306,0.07300605,0.11942625,0.08877633,0.00066538,-0.00254538
 ,-0.05167182,0.00164302,0.01257708,-0.00037554,-0.00061177,-0.00284952
 ,-0.00210456,-0.00028459,0.01247166,0.00169800,0.00558259,-0.00566035,
 0.77623450,0.01325872,-0.01719360,-0.03696202,-0.00125319,0.00034381,-
 0.73810774,0.01166076,-0.17455174,-0.07312705,-0.00013375,-0.00918582,
 -0.00519044,-0.01189950,0.18457620,-0.01805473,-0.07325801,-0.13312103
 ,0.00102836,-0.00508934,-0.00629555,0.01682116,0.07871703,0.14007857,0
 .00141284,0.00045545,0.00012652,-0.00153636,-0.00039494,-0.00003191,-0
 .00041231,-0.00024840,-0.00012021,-0.01615984,0.00048615,-0.00046608,-
 0.00018340,-0.00051677,0.00023767,0.00007827,-0.00017997,0.00026265,0.
 00012525,-0.00526265,0.00279716,-0.00007133,-0.00019202,-0.00042928,0.
 00007168,0.00007666,0.00028437,-0.00001864,0.00013790,0.00021819,-0.00
 064542,0.00173915,0.00317618,-0.00074152,-0.00110510,-0.00038059,0.001
 39387,0.00061688,0.00009466,-0.00075244,0.00062089,0.00032542,0.016695
 71,0.00547325,0.00066371,-0.01659562,-0.00051549,0.00190319,0.00067994
 ,0.00059691,-0.00077941,-0.00018583,0.00007394,-0.00110129,-0.00049494
 ,0.00545055,-0.00283139,-0.00176170,-0.00560591,0.00280891,0.00023757,
 0.00072856,0.00165239,-0.00025266,-0.00019436,-0.00080013,0.00004728,-
 0.00053745,-0.00088018,0.00067101,-0.00175928,-0.00324944,-0.00070320,
 0.00176253,0.00327736,1.64811234,0.03946468,-0.29517384,-0.03570812,-0
 .00073569,-0.29498978,-1.58164635,-0.03790337,0.03437570,1.57757832,-0
 .03829160,0.29133432,0.00069556,0.03920312,-0.29802050,0.03434178,0.00
 068444,0.29127769,-0.03429694,-0.00069880,-0.29827000,-0.06679416,-0.0
 0144600,0.00134400,0.00705007,-0.00010917,-0.00001995,0.05977951,-0.00
 110613,0.00357695,0.00004185,-0.00037650,0.00640871,0.00001662,0.00145
 692,-0.00997408,0.00137833,0.00004997,0.00344982,-0.00004407,0.0000090
 2,0.00649922,-0.00133671,-0.00005730,-0.00994641,-0.00094856,-0.000009
 42,0.00001757,0.00043535,-0.00013404,-0.00002564,-0.00017760,0.0000063
 4,0.00000465,0.00044635,-0.00026549,-0.00009059,0.00000369,0.00017529,
 -0.00007882,-0.00000517,-0.00005726,0.00001547,0.00000080,0.00015114,-
 0.00026059,-0.00001041,-0.00000312,-0.00006708,0.00000772,0.00000202,-
 0.00006524,-0.00000242,0.00000017,0.00001251,-0.00000555,-0.00000297,-
 0.00027789,0.00127672,-0.00010589,-0.00002915,-0.00341740,-0.00066831,
 0.00000075,0.00014218,0.00001937,-0.00000221,0.00024446,-0.00000369,0.
 00001065,0.00175404,0.00019854,0.00035317,-0.00000541,-0.00109854,0.00
 035630,0.00000292,0.00015551,-0.00002704,-0.00000249,-0.00001403,0.000
 41453,0.00000390,0.00075852,-0.00109695,-0.00000159,0.00000441,0.00032
 934,-0.00004241,-0.00000780,0.00055831,0.00001508,-0.00000134,-0.00001
 515,0.00000896,0.00000365,0.00039772,0.00001995,0.00000108,-0.00127024
 ,3.60051078,0.06448572,-0.83377523,-0.08992465,-0.00130661,-0.83265301
 ,-0.19657165,-0.00492593,0.00406595,0.18975591,-0.00523085,0.03014388,
 0.00007653,0.00474687,-0.03693137,0.00401111,0.00006928,0.03005546,-0.
 00406620,-0.00008173,-0.03688412,-3.40293544,-0.05995681,0.08578816,0.
 00688021,-0.00004824,-0.00000223,3.39410766,-0.05929804,0.80403545,0.0
 0122523,0.00002072,0.00686046,0.00000723,0.05978024,-0.81127508,0.0859
 0250,0.00124066,0.80306005,-0.00002052,0.00000774,0.00695123,-0.085781
 88,-0.00123946,-0.81042855,-0.00058430,0.00004167,0.00002151,0.0003245
 0,-0.00012227,-0.00001920,0.00038794,0.00009359,-0.00000206,0.00282336
 ,-0.00039349,0.00021500,0.00001042,0.00004013,-0.00000927,-0.00000183,
 0.00043399,-0.00017110,-0.00000889,0.00085193,-0.00010704,-0.00002511,
 -0.00000005,0.00020448,-0.00000434,0.00000124,0.00000677,0.00003516,-0
 .00000062,-0.00018445,0.00002080,0.00000225,-0.00030379,-0.00041939,0.
 00035535,0.00004902,-0.00038898,0.00065449,0.00007651,0.00155962,-0.00
 059651,-0.00009804,-0.00295151,-0.00093257,-0.00002652,0.00220025,0.00
 043666,-0.00061910,-0.00000558,0.00011821,-0.00006370,0.00000706,-0.00
 020918,0.00055027,-0.00000005,-0.00086492,0.00007242,-0.00000283,0.000
 51924,0.00006011,0.00003614,-0.00000329,-0.00066698,0.00002511,-0.0000
 0377,-0.00012935,-0.00003922,0.00000762,0.00060173,-0.00002106,-0.0000
 0195,0.00027702,-0.00000098,0.00000139,-0.00008242,-0.00519338,0.00229
 946,0.00402204,0.00047822,0.00000621,0.00379342,-0.01823086,-0.0031161
 9,-0.00008550,-0.00007284,-0.00709326,-0.00415437,0.00003390,-0.002600
 97,0.02255755,-0.00054794,-0.00004986,-0.00345290,0.00018959,-0.000029
 05,0.02329984,0.00069261,-0.00036820,-0.00003579,-0.00154467,-0.000204
 17,-0.00005128,0.00112365,-0.00066382,0.00103919,0.00002487,0.00061865
 ,-0.00245209,0.00000892,0.00044903,-0.00007974,-0.00007732,0.00001918,
 0.00100367,0.00006186,0.00002546,-0.00246859,0.00003071,-0.00003438,-0
 .00009419,-0.00007324,-0.00047150,-0.00005732,-0.00869382,0.00024442,0
 .00032761,0.00189775,-0.00080812,-0.00014672,7.73483454,-0.00012174,-0
 .00016958,-0.00000807,-0.00305493,0.00369314,0.00007162,0.00058601,-0.
 00051817,-0.00003874,2.40988254,-1.03048049,-0.00001503,-0.00000046,-0
 .00007651,-0.00008243,-0.00001077,0.00372903,0.00001607,-0.00000546,-0
 .00031344,0.07063415,0.01813272,-1.64874685,0.02280486,0.00165643,-0.0
 0029961,0.02854220,0.00965398,0.00008201,-0.00216934,0.00040426,0.0001
 3148,-7.72796521,-2.40729187,-0.07055276,7.67878749,0.00557936,-0.0007
 3727,-0.00005692,0.00815344,-0.01964423,-0.00000164,-0.00046266,0.0020
 1081,0.00002847,-2.40884734,1.02747511,-0.01811604,2.39557720,-1.00910
 442,0.00016207,0.00002492,-0.00126768,-0.00008352,-0.00001954,-0.02110
 738,0.00004029,0.00000604,0.00187256,-0.07075771,-0.01815753,1.6454078
 2,0.07063888,0.01814611,-1.62490532\\@


 TIME GOES, YOU SAY?  AH NO!
 ALAS, TIME STAYS, WE GO.
    -- A. DOBSON (1840-1921)
 Job cpu time:       0 days  3 hours 21 minutes  5.3 seconds.
 Elapsed time:       0 days  0 hours  7 minutes 28.5 seconds.
 File lengths (MBytes):  RWF=    472 Int=      0 D2E=      0 Chk=     44 Scr=      8
 Normal termination of Gaussian 16 at Fri Dec 17 11:03:56 2021.
