 Entering Gaussian System, Link 0=g16
 Input=hf_nh3_mp2_avtz_opt_anharm.gjf
 Output=hf_nh3_mp2_avtz_opt_anharm.log
 Initial command:
 /sw/contrib/gaussian/g16/A03/g16/l1.exe "/gscratch/scrubbed/gds001/Gau-186284.inp" -scrdir="/gscratch/scrubbed/gds001/"
 Entering Link 1 = /sw/contrib/gaussian/g16/A03/g16/l1.exe PID=    186285.
  
 Copyright (c) 1988,1990,1992,1993,1995,1998,2003,2009,2016,
            Gaussian, Inc.  All Rights Reserved.
  
 This is part of the Gaussian(R) 16 program.  It is based on
 the Gaussian(R) 09 system (copyright 2009, Gaussian, Inc.),
 the Gaussian(R) 03 system (copyright 2003, Gaussian, Inc.),
 the Gaussian(R) 98 system (copyright 1998, Gaussian, Inc.),
 the Gaussian(R) 94 system (copyright 1995, Gaussian, Inc.),
 the Gaussian 92(TM) system (copyright 1992, Gaussian, Inc.),
 the Gaussian 90(TM) system (copyright 1990, Gaussian, Inc.),
 the Gaussian 88(TM) system (copyright 1988, Gaussian, Inc.),
 the Gaussian 86(TM) system (copyright 1986, Carnegie Mellon
 University), and the Gaussian 82(TM) system (copyright 1983,
 Carnegie Mellon University). Gaussian is a federally registered
 trademark of Gaussian, Inc.
  
 This software contains proprietary and confidential information,
 including trade secrets, belonging to Gaussian, Inc.
  
 This software is provided under written license and may be
 used, copied, transmitted, or stored only in accord with that
 written license.
  
 The following legend is applicable only to US Government
 contracts under FAR:
  
                    RESTRICTED RIGHTS LEGEND
  
 Use, reproduction and disclosure by the US Government is
 subject to restrictions as set forth in subparagraphs (a)
 and (c) of the Commercial Computer Software - Restricted
 Rights clause in FAR 52.227-19.
  
 Gaussian, Inc.
 340 Quinnipiac St., Bldg. 40, Wallingford CT 06492
  
  
 ---------------------------------------------------------------
 Warning -- This program may not be used in any manner that
 competes with the business of Gaussian, Inc. or will provide
 assistance to any competitor of Gaussian, Inc.  The licensee
 of this program is prohibited from giving any competitor of
 Gaussian, Inc. access to this program.  By using this program,
 the user acknowledges that Gaussian, Inc. is engaged in the
 business of creating and licensing software in the field of
 computational chemistry and represents and warrants to the
 licensee that it is not a competitor of Gaussian, Inc. and that
 it will not use this program in any manner prohibited above.
 ---------------------------------------------------------------
  

 Cite this work as:
 Gaussian 16, Revision A.03,
 M. J. Frisch, G. W. Trucks, H. B. Schlegel, G. E. Scuseria, 
 M. A. Robb, J. R. Cheeseman, G. Scalmani, V. Barone, 
 G. A. Petersson, H. Nakatsuji, X. Li, M. Caricato, A. V. Marenich, 
 J. Bloino, B. G. Janesko, R. Gomperts, B. Mennucci, H. P. Hratchian, 
 J. V. Ortiz, A. F. Izmaylov, J. L. Sonnenberg, D. Williams-Young, 
 F. Ding, F. Lipparini, F. Egidi, J. Goings, B. Peng, A. Petrone, 
 T. Henderson, D. Ranasinghe, V. G. Zakrzewski, J. Gao, N. Rega, 
 G. Zheng, W. Liang, M. Hada, M. Ehara, K. Toyota, R. Fukuda, 
 J. Hasegawa, M. Ishida, T. Nakajima, Y. Honda, O. Kitao, H. Nakai, 
 T. Vreven, K. Throssell, J. A. Montgomery, Jr., J. E. Peralta, 
 F. Ogliaro, M. J. Bearpark, J. J. Heyd, E. N. Brothers, K. N. Kudin, 
 V. N. Staroverov, T. A. Keith, R. Kobayashi, J. Normand, 
 K. Raghavachari, A. P. Rendell, J. C. Burant, S. S. Iyengar, 
 J. Tomasi, M. Cossi, J. M. Millam, M. Klene, C. Adamo, R. Cammi, 
 J. W. Ochterski, R. L. Martin, K. Morokuma, O. Farkas, 
 J. B. Foresman, and D. J. Fox, Gaussian, Inc., Wallingford CT, 2016.
 
 ******************************************
 Gaussian 16:  ES64L-G16RevA.03 25-Dec-2016
                20-Dec-2021 
 ******************************************
 %nprocshared=32
 Will use up to   32 processors via shared memory.
 %mem=41GB
 ----------------------------------------------
 # MP2/aug-cc-pVTZ opt freq=(vibrot,anharmonic)
 ----------------------------------------------
 1/18=20,19=15,38=1,80=1/1,3;
 2/9=110,12=2,17=6,18=5,40=1/2;
 3/5=16,6=1,7=10,11=9,25=1,30=1,71=1/1,2,3;
 4//1;
 5/5=2,38=5/2;
 8/6=4,10=1/1;
 9/15=2,16=-3/6;
 10/5=1/2;
 6/7=2,8=2,9=2,10=2/1;
 7/12=2/1,2,3,16;
 1/18=20,19=15,80=1/3(2);
 2/9=110/2;
 99//99;
 2/9=110/2;
 3/5=16,6=1,7=10,11=9,25=1,30=1,71=1/1,2,3;
 4/5=5,16=3,69=1/1;
 5/5=2,38=5/2;
 8/6=4,10=1/1;
 9/15=2,16=-3/6;
 10/5=1/2;
 7/12=2/1,2,3,16;
 1/18=20,19=15,80=1/3(-8);
 2/9=110/2;
 6/7=2,8=2,9=2,10=2/1;
 99//99;
 ----
 bleh
 ----
 Symbolic Z-matrix:
 Charge =  0 Multiplicity = 1
 N                     1.21898  -0.00002  -0.00003 
 H                     1.60246  -0.92976  -0.16941 
 H                     1.60264   0.61183  -0.7202 
 H                     1.60186   0.31807   0.89014 
 F                    -1.42997  -0.00001   0.00001 
 H                    -0.47009   0.00007  -0.00039 
 
 Add virtual bond connecting atoms H6         and N1         Dist= 3.19D+00.

 GradGradGradGradGradGradGradGradGradGradGradGradGradGradGradGradGradGrad
 Berny optimization.
 Initialization pass.
                           ----------------------------
                           !    Initial Parameters    !
                           ! (Angstroms and Degrees)  !
 --------------------------                            --------------------------
 ! Name  Definition              Value          Derivative Info.                !
 --------------------------------------------------------------------------------
 ! R1    R(1,2)                  1.0199         estimate D2E/DX2                !
 ! R2    R(1,3)                  1.0199         estimate D2E/DX2                !
 ! R3    R(1,4)                  1.0199         estimate D2E/DX2                !
 ! R4    R(1,6)                  1.6891         estimate D2E/DX2                !
 ! R5    R(5,6)                  0.9599         estimate D2E/DX2                !
 ! A1    A(2,1,3)              106.7487         estimate D2E/DX2                !
 ! A2    A(2,1,4)              106.7454         estimate D2E/DX2                !
 ! A3    A(2,1,6)              112.0873         estimate D2E/DX2                !
 ! A4    A(3,1,4)              106.7375         estimate D2E/DX2                !
 ! A5    A(3,1,6)              112.0856         estimate D2E/DX2                !
 ! A6    A(4,1,6)              112.0596         estimate D2E/DX2                !
 ! A7    L(1,6,5,4,-1)         179.9691         estimate D2E/DX2                !
 ! A8    L(1,6,5,4,-2)         180.0458         estimate D2E/DX2                !
 ! D1    D(2,1,4,3)            113.8743         estimate D2E/DX2                !
 ! D2    D(2,1,6,3)           -120.0188         estimate D2E/DX2                !
 ! D3    D(2,1,6,4)            119.9962         estimate D2E/DX2                !
 ! D4    D(3,1,6,4)           -119.9849         estimate D2E/DX2                !
 --------------------------------------------------------------------------------
 Trust Radius=3.00D-01 FncErr=1.00D-07 GrdErr=1.00D-07 EigMax=2.50D+02 EigMin=1.00D-04
 Number of steps in this run=     27 maximum allowed number of steps=    100.
 GradGradGradGradGradGradGradGradGradGradGradGradGradGradGradGradGradGrad

                          Input orientation:                          
 ---------------------------------------------------------------------
 Center     Atomic      Atomic             Coordinates (Angstroms)
 Number     Number       Type             X           Y           Z
 ---------------------------------------------------------------------
      1          7           0        1.218983   -0.000021   -0.000031
      2          1           0        1.602464   -0.929760   -0.169412
      3          1           0        1.602640    0.611829   -0.720198
      4          1           0        1.601855    0.318067    0.890144
      5          9           0       -1.429972   -0.000006    0.000008
      6          1           0       -0.470090    0.000069   -0.000385
 ---------------------------------------------------------------------
                    Distance matrix (angstroms):
                    1          2          3          4          5
     1  N    0.000000
     2  H    1.019883   0.000000
     3  H    1.019899   1.637028   0.000000
     4  H    1.019893   1.636989   1.636917   0.000000
     5  F    2.648955   3.176289   3.176441   3.175766   0.000000
     6  H    1.689073   2.277857   2.277848   2.277525   0.959882
                    6
     6  H    0.000000
 Stoichiometry    FH4N
 Framework group  C1[X(FH4N)]
 Deg. of freedom    12
 Full point group                 C1      NOp   1
 Largest Abelian subgroup         C1      NOp   1
 Largest concise Abelian subgroup C1      NOp   1
                         Standard orientation:                         
 ---------------------------------------------------------------------
 Center     Atomic      Atomic             Coordinates (Angstroms)
 Number     Number       Type             X           Y           Z
 ---------------------------------------------------------------------
      1          7           0       -1.218983    0.000021   -0.000031
      2          1           0       -1.602464    0.929671   -0.169900
      3          1           0       -1.602640   -0.612207   -0.719877
      4          1           0       -1.601855   -0.317599    0.890311
      5          9           0        1.429972    0.000006    0.000008
      6          1           0        0.470090   -0.000069   -0.000385
 ---------------------------------------------------------------------
 Rotational constants (GHZ):         187.1312640           7.4205175           7.4204942
 Standard basis: Aug-CC-pVTZ (5D, 7F)
 There are   210 symmetry adapted cartesian basis functions of A   symmetry.
 There are   184 symmetry adapted basis functions of A   symmetry.
   184 basis functions,   252 primitive gaussians,   210 cartesian basis functions
    10 alpha electrons       10 beta electrons
       nuclear repulsion energy        36.8012978103 Hartrees.
 NAtoms=    6 NActive=    6 NUniq=    6 SFac= 1.00D+00 NAtFMM=   60 NAOKFM=F Big=F
 Integral buffers will be    131072 words long.
 Raffenetti 1 integral format.
 Two-electron integral symmetry is turned on.
 One-electron integrals computed using PRISM.
 NBasis=   184 RedAO= T EigKep=  9.56D-05  NBF=   184
 NBsUse=   184 1.00D-06 EigRej= -1.00D+00 NBFU=   184
 ExpMin= 2.53D-02 ExpMax= 1.95D+04 ExpMxC= 6.65D+02 IAcc=3 IRadAn=         5 AccDes= 0.00D+00
 Harris functional with IExCor=  205 and IRadAn=       5 diagonalized for initial guess.
 HarFok:  IExCor=  205 AccDes= 0.00D+00 IRadAn=         5 IDoV= 1 UseB2=F ITyADJ=14
 ICtDFT=  3500011 ScaDFX=  1.000000  1.000000  1.000000  1.000000
 FoFCou: FMM=F IPFlag=           0 FMFlag=      100000 FMFlg1=           0
         NFxFlg=           0 DoJE=T BraDBF=F KetDBF=T FulRan=T
         wScrn=  0.000000 ICntrl=       500 IOpCl=  0 I1Cent=   200000004 NGrid=           0
         NMat0=    1 NMatS0=      1 NMatT0=    0 NMatD0=    1 NMtDS0=    0 NMtDT0=    0
 Petite list used in FoFCou.
 Keep R1 ints in memory in canonical form, NReq=160621366.
 Requested convergence on RMS density matrix=1.00D-08 within 128 cycles.
 Requested convergence on MAX density matrix=1.00D-06.
 Requested convergence on             energy=1.00D-06.
 No special actions if energy rises.
 SCF Done:  E(RHF) =  -156.295622291     A.U. after   10 cycles
            NFock= 10  Conv=0.46D-08     -V/T= 2.0014
 ExpMin= 2.53D-02 ExpMax= 1.95D+04 ExpMxC= 6.65D+02 IAcc=3 IRadAn=         5 AccDes= 0.00D+00
 HarFok:  IExCor=  205 AccDes= 0.00D+00 IRadAn=         5 IDoV=-2 UseB2=F ITyADJ=14
 ICtDFT= 12500011 ScaDFX=  1.000000  1.000000  1.000000  1.000000
 Range of M.O.s used for correlation:     3   184
 NBasis=   184 NAE=    10 NBE=    10 NFC=     2 NFV=     0
 NROrb=    182 NOA=     8 NOB=     8 NVA=   174 NVB=   174

 **** Warning!!: The largest alpha MO coefficient is  0.33624094D+02

 Fully direct method using O(ONN) memory.
 JobTyp=1 Pass  1:  I=   3 to  10 NPSUse= 32 ParTrn=T ParDer=T DoDerP=T.
 Spin components of T(2) and E(2):
     alpha-alpha T2 =       0.1521210554D-01 E2=     -0.6364247623D-01
     alpha-beta  T2 =       0.8959963323D-01 E2=     -0.3989819932D+00
     beta-beta   T2 =       0.1521210554D-01 E2=     -0.6364247623D-01
 ANorm=    0.1058311790D+01
 E2 =    -0.5262669457D+00 EUMP2 =    -0.15682188923681D+03
          IDoAtm=111111
          Differentiating once with respect to electric field.
                with respect to dipole field.
          Differentiating once with respect to nuclear coordinates.
 Keep R1 ints in memory in canonical form, NReq=160625042.
          There are     1 degrees of freedom in the 1st order CPHF.  IDoFFX=0 NUNeed=     1.
 LinEq1:  Iter=  0 NonCon=     1 RMS=3.25D-03 Max=3.15D-02 NDo=     1
 AX will form     1 AO Fock derivatives at one time.
 LinEq1:  Iter=  1 NonCon=     1 RMS=8.04D-04 Max=1.24D-02 NDo=     1
 LinEq1:  Iter=  2 NonCon=     1 RMS=2.80D-04 Max=2.65D-03 NDo=     1
 LinEq1:  Iter=  3 NonCon=     1 RMS=4.28D-05 Max=4.43D-04 NDo=     1
 LinEq1:  Iter=  4 NonCon=     1 RMS=1.80D-05 Max=2.00D-04 NDo=     1
 LinEq1:  Iter=  5 NonCon=     1 RMS=3.03D-06 Max=3.14D-05 NDo=     1
 LinEq1:  Iter=  6 NonCon=     1 RMS=5.91D-07 Max=6.84D-06 NDo=     1
 LinEq1:  Iter=  7 NonCon=     1 RMS=1.15D-07 Max=1.68D-06 NDo=     1
 LinEq1:  Iter=  8 NonCon=     1 RMS=1.55D-08 Max=1.89D-07 NDo=     1
 LinEq1:  Iter=  9 NonCon=     1 RMS=3.15D-09 Max=4.20D-08 NDo=     1
 LinEq1:  Iter= 10 NonCon=     1 RMS=5.26D-10 Max=4.96D-09 NDo=     1
 LinEq1:  Iter= 11 NonCon=     0 RMS=6.41D-11 Max=5.58D-10 NDo=     1
 Linear equations converged to 1.000D-10 1.000D-09 after    11 iterations.
 End of Minotr F.D. properties file   721 does not exist.
 End of Minotr F.D. properties file   722 does not exist.
 End of Minotr F.D. properties file   788 does not exist.

 **********************************************************************

            Population analysis using the SCF density.

 **********************************************************************

 Orbital symmetries:
       Occupied  (A) (A) (A) (A) (A) (A) (A) (A) (A) (A)
       Virtual   (A) (A) (A) (A) (A) (A) (A) (A) (A) (A) (A) (A)
                 (A) (A) (A) (A) (A) (A) (A) (A) (A) (A) (A) (A)
                 (A) (A) (A) (A) (A) (A) (A) (A) (A) (A) (A) (A)
                 (A) (A) (A) (A) (A) (A) (A) (A) (A) (A) (A) (A)
                 (A) (A) (A) (A) (A) (A) (A) (A) (A) (A) (A) (A)
                 (A) (A) (A) (A) (A) (A) (A) (A) (A) (A) (A) (A)
                 (A) (A) (A) (A) (A) (A) (A) (A) (A) (A) (A) (A)
                 (A) (A) (A) (A) (A) (A) (A) (A) (A) (A) (A) (A)
                 (A) (A) (A) (A) (A) (A) (A) (A) (A) (A) (A) (A)
                 (A) (A) (A) (A) (A) (A) (A) (A) (A) (A) (A) (A)
                 (A) (A) (A) (A) (A) (A) (A) (A) (A) (A) (A) (A)
                 (A) (A) (A) (A) (A) (A) (A) (A) (A) (A) (A) (A)
                 (A) (A) (A) (A) (A) (A) (A) (A) (A) (A) (A) (A)
                 (A) (A) (A) (A) (A) (A) (A) (A) (A) (A) (A) (A)
                 (A) (A) (A) (A) (A) (A)
 The electronic state is 1-A.
 Alpha  occ. eigenvalues --  -26.22434 -15.59085  -1.52461  -1.18919  -0.70847
 Alpha  occ. eigenvalues --   -0.67260  -0.67257  -0.58054  -0.58054  -0.48550
 Alpha virt. eigenvalues --    0.01870   0.04187   0.04187   0.06943   0.12779
 Alpha virt. eigenvalues --    0.13794   0.14927   0.14928   0.19583   0.19584
 Alpha virt. eigenvalues --    0.20729   0.20729   0.23654   0.27238   0.27241
 Alpha virt. eigenvalues --    0.27507   0.33968   0.34926   0.37448   0.37898
 Alpha virt. eigenvalues --    0.37902   0.38940   0.41876   0.41879   0.44044
 Alpha virt. eigenvalues --    0.44046   0.48316   0.54703   0.54703   0.58452
 Alpha virt. eigenvalues --    0.60733   0.60737   0.67916   0.69993   0.69996
 Alpha virt. eigenvalues --    0.70187   0.83378   0.87657   0.89660   0.89666
 Alpha virt. eigenvalues --    0.90145   0.90845   0.90849   0.95790   0.95794
 Alpha virt. eigenvalues --    0.99050   0.99051   0.99209   1.05088   1.05865
 Alpha virt. eigenvalues --    1.05873   1.10999   1.11001   1.16058   1.16063
 Alpha virt. eigenvalues --    1.16664   1.20305   1.25528   1.25534   1.27058
 Alpha virt. eigenvalues --    1.29372   1.29384   1.32721   1.32726   1.39816
 Alpha virt. eigenvalues --    1.41284   1.41291   1.50551   1.55892   1.61777
 Alpha virt. eigenvalues --    1.63605   1.63614   1.72157   1.80075   1.80079
 Alpha virt. eigenvalues --    1.81223   1.81249   1.93920   1.96988   1.97004
 Alpha virt. eigenvalues --    2.05989   2.05991   2.09011   2.26030   2.26038
 Alpha virt. eigenvalues --    2.29540   2.32524   2.40477   2.40481   2.44070
 Alpha virt. eigenvalues --    2.44082   2.45999   2.77851   2.88400   2.88401
 Alpha virt. eigenvalues --    2.98825   2.98876   3.05552   3.14408   3.14409
 Alpha virt. eigenvalues --    3.18545   3.28904   3.28920   3.42467   3.55276
 Alpha virt. eigenvalues --    3.80140   3.80160   3.86441   3.86455   3.97499
 Alpha virt. eigenvalues --    3.97505   4.12787   4.13605   4.13614   4.16185
 Alpha virt. eigenvalues --    4.16681   4.27218   4.27226   4.28924   4.32229
 Alpha virt. eigenvalues --    4.32235   4.44295   4.47629   4.47638   4.52198
 Alpha virt. eigenvalues --    4.52209   4.58398   4.58404   4.60167   4.70383
 Alpha virt. eigenvalues --    4.75269   4.75275   4.92473   4.93283   4.93294
 Alpha virt. eigenvalues --    5.00170   5.00172   5.05734   5.05735   5.08686
 Alpha virt. eigenvalues --    5.15792   5.63585   5.63591   5.66389   5.77100
 Alpha virt. eigenvalues --    5.84324   5.84326   6.05642   6.15476   6.15484
 Alpha virt. eigenvalues --    6.29898   6.29917   6.35308   6.56143   6.84202
 Alpha virt. eigenvalues --    6.92963   6.92966   7.73441   7.73454   7.92587
 Alpha virt. eigenvalues --    8.89368   8.89395   9.06307   9.06314   9.43299
 Alpha virt. eigenvalues --    9.43304   9.44760   9.44766   9.68289   9.72607
 Alpha virt. eigenvalues --    9.72609   9.97987  15.27344  17.63151
          Condensed to atoms (all electrons):
               1          2          3          4          5          6
     1  N    6.072740   0.406022   0.406047   0.405971  -0.057217   0.034969
     2  H    0.406022   0.472576  -0.006699  -0.006668  -0.000428   0.005721
     3  H    0.406047  -0.006699   0.472588  -0.006678  -0.000440   0.005711
     4  H    0.405971  -0.006668  -0.006678   0.472603  -0.000417   0.005739
     5  F   -0.057217  -0.000428  -0.000440  -0.000417   9.329692   0.192643
     6  H    0.034969   0.005721   0.005711   0.005739   0.192643   0.411247
 Mulliken charges:
               1
     1  N   -0.268532
     2  H    0.129476
     3  H    0.129471
     4  H    0.129449
     5  F   -0.463833
     6  H    0.343969
 Sum of Mulliken charges =  -0.00000
 Mulliken charges with hydrogens summed into heavy atoms:
               1
     1  N    0.119864
     5  F   -0.119864
 Electronic spatial extent (au):  <R**2>=            168.1221
 Charge=             -0.0000 electrons
 Dipole moment (field-independent basis, Debye):
    X=             -4.8136    Y=             -0.0003    Z=              0.0002  Tot=              4.8136
 Quadrupole moment (field-independent basis, Debye-Ang):
   XX=            -13.4625   YY=            -11.6917   ZZ=            -11.6922
   XY=              0.0000   XZ=             -0.0001   YZ=             -0.0000
 Traceless Quadrupole moment (field-independent basis, Debye-Ang):
   XX=             -1.1803   YY=              0.5904   ZZ=              0.5899
   XY=              0.0000   XZ=             -0.0001   YZ=             -0.0000
 Octapole moment (field-independent basis, Debye-Ang**2):
  XXX=             -5.8553  YYY=              0.9183  ZZZ=              0.5556  XYY=             -1.2518
  XXY=              0.0002  XXZ=             -0.0020  XZZ=             -1.2503  YZZ=             -0.9186
  YYZ=             -0.5537  XYZ=             -0.0004
 Hexadecapole moment (field-independent basis, Debye-Ang**3):
 XXXX=           -154.9273 YYYY=            -13.2148 ZZZZ=            -13.2145 XXXY=             -0.0004
 XXXZ=              0.0084 YYYX=             -1.5692 YYYZ=              0.0003 ZZZX=             -0.9475
 ZZZY=             -0.0007 XXYY=            -23.8089 XXZZ=            -23.8125 YYZZ=             -4.4051
 XXYZ=              0.0014 YYXZ=              0.9466 ZZXY=              1.5694
 N-N= 3.680129781030D+01 E-N=-4.458077210567D+02  KE= 1.560722967812D+02
 Calling FoFJK, ICntrl=  10002127 FMM=F ISym2X=0 I1Cent= 0 IOpClX= 0 NMat=1 NMatS=1 NMatT=0.
 ***** Axes restored to original set *****
 -------------------------------------------------------------------
 Center     Atomic                   Forces (Hartrees/Bohr)
 Number     Number              X              Y              Z
 -------------------------------------------------------------------
      1        7           0.006683871    0.000026553    0.000003043
      2        1          -0.002489149    0.005104343    0.000925982
      3        1          -0.002495972   -0.003372979    0.003950719
      4        1          -0.002491862   -0.001754472   -0.004884127
      5        9           0.003492448    0.000003288   -0.000008972
      6        1          -0.002699336   -0.000006733    0.000013355
 -------------------------------------------------------------------
 Cartesian Forces:  Max     0.006683871 RMS     0.003014997

 GradGradGradGradGradGradGradGradGradGradGradGradGradGradGradGradGradGrad
 Berny optimization.
 FormGI is forming the generalized inverse of G from B-inverse, IUseBI=4.
 Internal  Forces:  Max     0.005752072 RMS     0.002570177
 Search for a local minimum.
 Step number   1 out of a maximum of   27
 All quantities printed in internal units (Hartrees-Bohrs-Radians)
 Mixed Optimization -- RFO/linear search
 Second derivative matrix not updated -- first step.
 The second derivative matrix:
                          R1        R2        R3        R4        R5
           R1           0.44357
           R2           0.00000   0.44354
           R3           0.00000   0.00000   0.44355
           R4           0.00000   0.00000   0.00000   0.07571
           R5           0.00000   0.00000   0.00000   0.00000   0.55499
           A1           0.00000   0.00000   0.00000   0.00000   0.00000
           A2           0.00000   0.00000   0.00000   0.00000   0.00000
           A3           0.00000   0.00000   0.00000   0.00000   0.00000
           A4           0.00000   0.00000   0.00000   0.00000   0.00000
           A5           0.00000   0.00000   0.00000   0.00000   0.00000
           A6           0.00000   0.00000   0.00000   0.00000   0.00000
           A7           0.00000   0.00000   0.00000   0.00000   0.00000
           A8           0.00000   0.00000   0.00000   0.00000   0.00000
           D1           0.00000   0.00000   0.00000   0.00000   0.00000
           D2           0.00000   0.00000   0.00000   0.00000   0.00000
           D3           0.00000   0.00000   0.00000   0.00000   0.00000
           D4           0.00000   0.00000   0.00000   0.00000   0.00000
                          A1        A2        A3        A4        A5
           A1           0.16000
           A2           0.00000   0.16000
           A3           0.00000   0.00000   0.16000
           A4           0.00000   0.00000   0.00000   0.16000
           A5           0.00000   0.00000   0.00000   0.00000   0.16000
           A6           0.00000   0.00000   0.00000   0.00000   0.00000
           A7           0.00000   0.00000   0.00000   0.00000   0.00000
           A8           0.00000   0.00000   0.00000   0.00000   0.00000
           D1           0.00000   0.00000   0.00000   0.00000   0.00000
           D2           0.00000   0.00000   0.00000   0.00000   0.00000
           D3           0.00000   0.00000   0.00000   0.00000   0.00000
           D4           0.00000   0.00000   0.00000   0.00000   0.00000
                          A6        A7        A8        D1        D2
           A6           0.16000
           A7           0.00000   0.01294
           A8           0.00000   0.00000   0.01294
           D1           0.00000   0.00000   0.00000   0.00765
           D2           0.00000   0.00000   0.00000   0.00000   0.00230
           D3           0.00000   0.00000   0.00000   0.00000   0.00000
           D4           0.00000   0.00000   0.00000   0.00000   0.00000
                          D3        D4
           D3           0.00230
           D4           0.00000   0.00230
 ITU=  0
     Eigenvalues ---    0.01294   0.01294   0.04797   0.05236   0.07571
     Eigenvalues ---    0.09559   0.16000   0.16000   0.44354   0.44355
     Eigenvalues ---    0.44357   0.55499
 RFO step:  Lambda=-2.57444023D-04 EMin= 1.29441500D-02
 Linear search not attempted -- first point.
 Iteration  1 RMS(Cart)=  0.00740297 RMS(Int)=  0.00001122
 Iteration  2 RMS(Cart)=  0.00000844 RMS(Int)=  0.00000228
 Iteration  3 RMS(Cart)=  0.00000000 RMS(Int)=  0.00000228
 Variable       Old X    -DE/DX   Delta X   Delta X   Delta X     New X
                                 (Linear)    (Quad)   (Total)
    R1        1.92730  -0.00574   0.00000  -0.01294  -0.01294   1.91436
    R2        1.92733  -0.00575   0.00000  -0.01296  -0.01296   1.91437
    R3        1.92732  -0.00575   0.00000  -0.01295  -0.01295   1.91437
    R4        3.19189  -0.00079   0.00000  -0.01044  -0.01044   3.18145
    R5        1.81391  -0.00349   0.00000  -0.00629  -0.00629   1.80762
    A1        1.86312   0.00012   0.00000   0.00191   0.00190   1.86502
    A2        1.86306   0.00024   0.00000   0.00209   0.00209   1.86515
    A3        1.95629  -0.00016   0.00000  -0.00192  -0.00192   1.95437
    A4        1.86292   0.00025   0.00000   0.00221   0.00221   1.86513
    A5        1.95626  -0.00016   0.00000  -0.00188  -0.00188   1.95438
    A6        1.95581  -0.00024   0.00000  -0.00189  -0.00189   1.95392
    A7        3.14105   0.00001   0.00000   0.00084   0.00084   3.14189
    A8        3.14239  -0.00000   0.00000  -0.00031  -0.00031   3.14209
    D1        1.98748   0.00037   0.00000   0.00417   0.00417   1.99165
    D2       -2.09472   0.00007   0.00000   0.00022   0.00022  -2.09450
    D3        2.09433   0.00003   0.00000   0.00002   0.00002   2.09435
    D4       -2.09413  -0.00004   0.00000  -0.00020  -0.00020  -2.09433
         Item               Value     Threshold  Converged?
 Maximum Force            0.005752     0.000450     NO 
 RMS     Force            0.002570     0.000300     NO 
 Maximum Displacement     0.016319     0.001800     NO 
 RMS     Displacement     0.007403     0.001200     NO 
 Predicted change in Energy=-1.288153D-04
 GradGradGradGradGradGradGradGradGradGradGradGradGradGradGradGradGradGrad

                          Input orientation:                          
 ---------------------------------------------------------------------
 Center     Atomic      Atomic             Coordinates (Angstroms)
 Number     Number       Type             X           Y           Z
 ---------------------------------------------------------------------
      1          7           0        1.218766    0.000023    0.000041
      2          1           0        1.597830   -0.924183   -0.168467
      3          1           0        1.597971    0.608116   -0.715974
      4          1           0        1.597432    0.316157    0.884872
      5          9           0       -1.421336   -0.000074   -0.000300
      6          1           0       -0.464783    0.000139   -0.000047
 ---------------------------------------------------------------------
                    Distance matrix (angstroms):
                    1          2          3          4          5
     1  N    0.000000
     2  H    1.013036   0.000000
     3  H    1.013040   1.627176   0.000000
     4  H    1.013043   1.627258   1.627252   0.000000
     5  F    2.640102   3.161902   3.162009   3.161724   0.000000
     6  H    1.683548   2.266519   2.266526   2.266204   0.956554
                    6
     6  H    0.000000
 Stoichiometry    FH4N
 Framework group  C1[X(FH4N)]
 Deg. of freedom    12
 Full point group                 C1      NOp   1
 Largest Abelian subgroup         C1      NOp   1
 Largest concise Abelian subgroup C1      NOp   1
                         Standard orientation:                         
 ---------------------------------------------------------------------
 Center     Atomic      Atomic             Coordinates (Angstroms)
 Number     Number       Type             X           Y           Z
 ---------------------------------------------------------------------
      1          7           0       -1.215376    0.000012   -0.000001
      2          1           0       -1.594388    0.498111    0.796548
      3          1           0       -1.594512    0.440744   -0.829616
      4          1           0       -1.594166   -0.938963    0.033144
      5          9           0        1.424725    0.000021    0.000005
      6          1           0        0.468172   -0.000168   -0.000115
 ---------------------------------------------------------------------
 Rotational constants (GHZ):         189.3803721           7.4747302           7.4747112
 Standard basis: Aug-CC-pVTZ (5D, 7F)
 There are   210 symmetry adapted cartesian basis functions of A   symmetry.
 There are   184 symmetry adapted basis functions of A   symmetry.
   184 basis functions,   252 primitive gaussians,   210 cartesian basis functions
    10 alpha electrons       10 beta electrons
       nuclear repulsion energy        36.9712838286 Hartrees.
 NAtoms=    6 NActive=    6 NUniq=    6 SFac= 1.00D+00 NAtFMM=   60 NAOKFM=F Big=F
 Integral buffers will be    131072 words long.
 Raffenetti 1 integral format.
 Two-electron integral symmetry is turned on.
 One-electron integrals computed using PRISM.
 NBasis=   184 RedAO= T EigKep=  9.33D-05  NBF=   184
 NBsUse=   184 1.00D-06 EigRej= -1.00D+00 NBFU=   184
 Initial guess from the checkpoint file:  "/gscratch/scrubbed/gds001/Gau-186285.chk"
 B after Tr=     0.000000    0.000000   -0.000000
         Rot=    0.827339   -0.561703    0.000007    0.000008 Ang= -68.35 deg.
 Keep R1 ints in memory in canonical form, NReq=160621562.
 Requested convergence on RMS density matrix=1.00D-08 within 128 cycles.
 Requested convergence on MAX density matrix=1.00D-06.
 Requested convergence on             energy=1.00D-06.
 No special actions if energy rises.
 SCF Done:  E(RHF) =  -156.296330498     A.U. after    8 cycles
            NFock=  8  Conv=0.45D-08     -V/T= 2.0012
 ExpMin= 2.53D-02 ExpMax= 1.95D+04 ExpMxC= 6.65D+02 IAcc=3 IRadAn=         5 AccDes= 0.00D+00
 HarFok:  IExCor=  205 AccDes= 0.00D+00 IRadAn=         5 IDoV=-2 UseB2=F ITyADJ=14
 ICtDFT= 12500011 ScaDFX=  1.000000  1.000000  1.000000  1.000000
 Range of M.O.s used for correlation:     3   184
 NBasis=   184 NAE=    10 NBE=    10 NFC=     2 NFV=     0
 NROrb=    182 NOA=     8 NOB=     8 NVA=   174 NVB=   174

 **** Warning!!: The largest alpha MO coefficient is  0.33252460D+02

 Fully direct method using O(ONN) memory.
 JobTyp=1 Pass  1:  I=   3 to  10 NPSUse= 32 ParTrn=T ParDer=T DoDerP=T.
 Spin components of T(2) and E(2):
     alpha-alpha T2 =       0.1514274377D-01 E2=     -0.6359333081D-01
     alpha-beta  T2 =       0.8907331994D-01 E2=     -0.3985074173D+00
     beta-beta   T2 =       0.1514274377D-01 E2=     -0.6359333081D-01
 ANorm=    0.1057997546D+01
 E2 =    -0.5256940789D+00 EUMP2 =    -0.15682202457695D+03
          IDoAtm=111111
          Differentiating once with respect to electric field.
                with respect to dipole field.
          Differentiating once with respect to nuclear coordinates.
 Keep R1 ints in memory in canonical form, NReq=160625679.
          There are     1 degrees of freedom in the 1st order CPHF.  IDoFFX=0 NUNeed=     1.
 LinEq1:  Iter=  0 NonCon=     1 RMS=3.23D-03 Max=3.22D-02 NDo=     1
 AX will form     1 AO Fock derivatives at one time.
 LinEq1:  Iter=  1 NonCon=     1 RMS=7.92D-04 Max=1.22D-02 NDo=     1
 LinEq1:  Iter=  2 NonCon=     1 RMS=2.75D-04 Max=2.70D-03 NDo=     1
 LinEq1:  Iter=  3 NonCon=     1 RMS=4.24D-05 Max=4.38D-04 NDo=     1
 LinEq1:  Iter=  4 NonCon=     1 RMS=1.80D-05 Max=2.09D-04 NDo=     1
 LinEq1:  Iter=  5 NonCon=     1 RMS=2.93D-06 Max=3.01D-05 NDo=     1
 LinEq1:  Iter=  6 NonCon=     1 RMS=5.69D-07 Max=6.60D-06 NDo=     1
 LinEq1:  Iter=  7 NonCon=     1 RMS=1.11D-07 Max=1.59D-06 NDo=     1
 LinEq1:  Iter=  8 NonCon=     1 RMS=1.50D-08 Max=1.84D-07 NDo=     1
 LinEq1:  Iter=  9 NonCon=     1 RMS=3.01D-09 Max=3.96D-08 NDo=     1
 LinEq1:  Iter= 10 NonCon=     1 RMS=5.04D-10 Max=4.66D-09 NDo=     1
 LinEq1:  Iter= 11 NonCon=     0 RMS=6.12D-11 Max=5.35D-10 NDo=     1
 Linear equations converged to 1.000D-10 1.000D-09 after    11 iterations.
 End of Minotr F.D. properties file   721 does not exist.
 End of Minotr F.D. properties file   722 does not exist.
 End of Minotr F.D. properties file   788 does not exist.
 Calling FoFJK, ICntrl=  10002127 FMM=F ISym2X=0 I1Cent= 0 IOpClX= 0 NMat=1 NMatS=1 NMatT=0.
 ***** Axes restored to original set *****
 -------------------------------------------------------------------
 Center     Atomic                   Forces (Hartrees/Bohr)
 Number     Number              X              Y              Z
 -------------------------------------------------------------------
      1        7           0.001472659    0.000007364    0.000000623
      2        1          -0.000556124   -0.000136714   -0.000015842
      3        1          -0.000556191    0.000093082   -0.000097229
      4        1          -0.000545795    0.000041750    0.000119618
      5        9           0.000026776    0.000005525    0.000005750
      6        1           0.000158674   -0.000011008   -0.000012921
 -------------------------------------------------------------------
 Cartesian Forces:  Max     0.001472659 RMS     0.000419302

 GradGradGradGradGradGradGradGradGradGradGradGradGradGradGradGradGradGrad
 Berny optimization.
 Using GEDIIS/GDIIS optimizer.
 FormGI is forming the generalized inverse of G from B-inverse, IUseBI=4.
 Internal  Forces:  Max     0.000582232 RMS     0.000242014
 Search for a local minimum.
 Step number   2 out of a maximum of   27
 All quantities printed in internal units (Hartrees-Bohrs-Radians)
 Mixed Optimization -- En-DIIS/RFO-DIIS
 Update second derivatives using D2CorX and points    1    2
 DE= -1.35D-04 DEPred=-1.29D-04 R= 1.05D+00
 TightC=F SS=  1.41D+00  RLast= 2.63D-02 DXNew= 5.0454D-01 7.9006D-02
 Trust test= 1.05D+00 RLast= 2.63D-02 DXMaxT set to 3.00D-01
 The second derivative matrix:
                          R1        R2        R3        R4        R5
           R1           0.44585
           R2           0.00222   0.44571
           R3           0.00215   0.00209   0.44557
           R4          -0.00365  -0.00366  -0.00366   0.07478
           R5           0.00189   0.00186   0.00181  -0.00216   0.55645
           A1           0.00863   0.00864   0.00863   0.00113   0.00525
           A2           0.01047   0.01048   0.01047   0.00135   0.00638
           A3          -0.00910  -0.00911  -0.00910  -0.00118  -0.00554
           A4           0.01072   0.01074   0.01073   0.00139   0.00653
           A5          -0.00891  -0.00892  -0.00891  -0.00116  -0.00543
           A6          -0.00942  -0.00944  -0.00942  -0.00122  -0.00574
           A7          -0.00031  -0.00032  -0.00031  -0.00003  -0.00019
           A8          -0.00005  -0.00005  -0.00005  -0.00001  -0.00003
           D1           0.00563   0.00564   0.00563   0.00063   0.00344
           D2           0.00072   0.00072   0.00072   0.00008   0.00044
           D3           0.00044   0.00045   0.00044   0.00005   0.00027
           D4          -0.00027  -0.00027  -0.00027  -0.00003  -0.00017
                          A1        A2        A3        A4        A5
           A1           0.15967
           A2          -0.00035   0.15963
           A3           0.00033   0.00035   0.15967
           A4          -0.00038  -0.00039   0.00037   0.15957
           A5           0.00033   0.00034  -0.00032   0.00037   0.15968
           A6           0.00032   0.00033  -0.00031   0.00036  -0.00031
           A7          -0.00002  -0.00003   0.00002  -0.00003   0.00002
           A8           0.00001   0.00001  -0.00001   0.00001  -0.00001
           D1           0.00003   0.00007  -0.00005   0.00006  -0.00004
           D2           0.00001   0.00002  -0.00001   0.00001  -0.00001
           D3           0.00001   0.00001  -0.00001   0.00001  -0.00001
           D4          -0.00000  -0.00001   0.00000  -0.00001   0.00000
                          A6        A7        A8        D1        D2
           A6           0.15970
           A7           0.00002   0.01295
           A8          -0.00001   0.00000   0.01294
           D1          -0.00006  -0.00002   0.00000   0.00783
           D2          -0.00001  -0.00000   0.00000   0.00003   0.00230
           D3          -0.00001  -0.00000   0.00000   0.00002   0.00000
           D4           0.00000   0.00000  -0.00000  -0.00001  -0.00000
                          D3        D4
           D3           0.00230
           D4          -0.00000   0.00230
 ITU=  1  0
 Use linear search instead of GDIIS.
     Eigenvalues ---    0.01294   0.01295   0.04800   0.05255   0.07405
     Eigenvalues ---    0.09135   0.15924   0.16000   0.44355   0.44356
     Eigenvalues ---    0.45397   0.55703
 RFO step:  Lambda=-1.04413438D-05 EMin= 1.29440611D-02
 Quartic linear search produced a step of  0.04558.
 Iteration  1 RMS(Cart)=  0.00254764 RMS(Int)=  0.00000797
 Iteration  2 RMS(Cart)=  0.00000462 RMS(Int)=  0.00000637
 Iteration  3 RMS(Cart)=  0.00000000 RMS(Int)=  0.00000637
 Variable       Old X    -DE/DX   Delta X   Delta X   Delta X     New X
                                 (Linear)    (Quad)   (Total)
    R1        1.91436  -0.00008  -0.00059  -0.00011  -0.00070   1.91366
    R2        1.91437  -0.00008  -0.00059  -0.00012  -0.00071   1.91366
    R3        1.91437  -0.00009  -0.00059  -0.00013  -0.00072   1.91366
    R4        3.18145  -0.00019  -0.00048  -0.00246  -0.00293   3.17851
    R5        1.80762  -0.00003  -0.00029  -0.00001  -0.00030   1.80732
    A1        1.86502   0.00020   0.00009   0.00329   0.00337   1.86838
    A2        1.86515   0.00038   0.00010   0.00339   0.00347   1.86862
    A3        1.95437  -0.00026  -0.00009  -0.00313  -0.00322   1.95116
    A4        1.86513   0.00038   0.00010   0.00340   0.00349   1.86862
    A5        1.95438  -0.00026  -0.00009  -0.00311  -0.00319   1.95119
    A6        1.95392  -0.00036  -0.00009  -0.00303  -0.00312   1.95080
    A7        3.14189  -0.00001   0.00004  -0.00109  -0.00105   3.14084
    A8        3.14209  -0.00000  -0.00001  -0.00019  -0.00020   3.14188
    D1        1.99165   0.00058   0.00019   0.00695   0.00715   1.99881
    D2       -2.09450   0.00010   0.00001   0.00013   0.00014  -2.09436
    D3        2.09435   0.00005   0.00000   0.00005   0.00005   2.09440
    D4       -2.09433  -0.00005  -0.00001  -0.00008  -0.00009  -2.09442
         Item               Value     Threshold  Converged?
 Maximum Force            0.000582     0.000450     NO 
 RMS     Force            0.000242     0.000300     YES
 Maximum Displacement     0.005158     0.001800     NO 
 RMS     Displacement     0.002548     0.001200     NO 
 Predicted change in Energy=-5.540980D-06
 GradGradGradGradGradGradGradGradGradGradGradGradGradGradGradGradGradGrad

                          Input orientation:                          
 ---------------------------------------------------------------------
 Center     Atomic      Atomic             Coordinates (Angstroms)
 Number     Number       Type             X           Y           Z
 ---------------------------------------------------------------------
      1          7           0        1.219784    0.000021    0.000026
      2          1           0        1.595816   -0.924991   -0.168617
      3          1           0        1.595942    0.608650   -0.716608
      4          1           0        1.595158    0.316458    0.885716
      5          9           0       -1.418607    0.000073    0.000034
      6          1           0       -0.462213   -0.000031   -0.000426
 ---------------------------------------------------------------------
                    Distance matrix (angstroms):
                    1          2          3          4          5
     1  N    0.000000
     2  H    1.012664   0.000000
     3  H    1.012664   1.628603   0.000000
     4  H    1.012663   1.628746   1.628748   0.000000
     5  F    2.638391   3.157678   3.157760   3.157104   0.000000
     6  H    1.681997   2.262592   2.262611   2.262341   0.956394
                    6
     6  H    0.000000
 Stoichiometry    FH4N
 Framework group  C1[X(FH4N)]
 Deg. of freedom    12
 Full point group                 C1      NOp   1
 Largest Abelian subgroup         C1      NOp   1
 Largest concise Abelian subgroup C1      NOp   1
                         Standard orientation:                         
 ---------------------------------------------------------------------
 Center     Atomic      Atomic             Coordinates (Angstroms)
 Number     Number       Type             X           Y           Z
 ---------------------------------------------------------------------
      1          7           0       -1.214997    0.000005   -0.000002
      2          1           0       -1.591048    0.466673    0.816267
      3          1           0       -1.591142    0.473437   -0.812322
      4          1           0       -1.590367   -0.940510   -0.003885
      5          9           0        1.423393   -0.000010    0.000003
      6          1           0        0.466999    0.000454   -0.000071
 ---------------------------------------------------------------------
 Rotational constants (GHZ):         189.0385749           7.4873793           7.4873444
 Standard basis: Aug-CC-pVTZ (5D, 7F)
 There are   210 symmetry adapted cartesian basis functions of A   symmetry.
 There are   184 symmetry adapted basis functions of A   symmetry.
   184 basis functions,   252 primitive gaussians,   210 cartesian basis functions
    10 alpha electrons       10 beta electrons
       nuclear repulsion energy        36.9929816057 Hartrees.
 NAtoms=    6 NActive=    6 NUniq=    6 SFac= 1.00D+00 NAtFMM=   60 NAOKFM=F Big=F
 Integral buffers will be    131072 words long.
 Raffenetti 1 integral format.
 Two-electron integral symmetry is turned on.
 One-electron integrals computed using PRISM.
 NBasis=   184 RedAO= T EigKep=  9.33D-05  NBF=   184
 NBsUse=   184 1.00D-06 EigRej= -1.00D+00 NBFU=   184
 Initial guess from the checkpoint file:  "/gscratch/scrubbed/gds001/Gau-186285.chk"
 B after Tr=    -0.000000   -0.000000    0.000000
         Rot=    0.999806   -0.019705    0.000000   -0.000011 Ang=  -2.26 deg.
 Keep R1 ints in memory in canonical form, NReq=160621562.
 Requested convergence on RMS density matrix=1.00D-08 within 128 cycles.
 Requested convergence on MAX density matrix=1.00D-06.
 Requested convergence on             energy=1.00D-06.
 No special actions if energy rises.
 SCF Done:  E(RHF) =  -156.296370188     A.U. after    7 cycles
            NFock=  7  Conv=0.60D-08     -V/T= 2.0011
 ExpMin= 2.53D-02 ExpMax= 1.95D+04 ExpMxC= 6.65D+02 IAcc=3 IRadAn=         5 AccDes= 0.00D+00
 HarFok:  IExCor=  205 AccDes= 0.00D+00 IRadAn=         5 IDoV=-2 UseB2=F ITyADJ=14
 ICtDFT= 12500011 ScaDFX=  1.000000  1.000000  1.000000  1.000000
 Range of M.O.s used for correlation:     3   184
 NBasis=   184 NAE=    10 NBE=    10 NFC=     2 NFV=     0
 NROrb=    182 NOA=     8 NOB=     8 NVA=   174 NVB=   174

 **** Warning!!: The largest alpha MO coefficient is  0.33004909D+02

 Fully direct method using O(ONN) memory.
 JobTyp=1 Pass  1:  I=   3 to  10 NPSUse= 32 ParTrn=T ParDer=T DoDerP=T.
 Spin components of T(2) and E(2):
     alpha-alpha T2 =       0.1513863052D-01 E2=     -0.6359322523D-01
     alpha-beta  T2 =       0.8903603148D-01 E2=     -0.3984762884D+00
     beta-beta   T2 =       0.1513863052D-01 E2=     -0.6359322523D-01
 ANorm=    0.1057976036D+01
 E2 =    -0.5256627388D+00 EUMP2 =    -0.15682203292638D+03
          IDoAtm=111111
          Differentiating once with respect to electric field.
                with respect to dipole field.
          Differentiating once with respect to nuclear coordinates.
 Keep R1 ints in memory in canonical form, NReq=160625434.
          There are     1 degrees of freedom in the 1st order CPHF.  IDoFFX=0 NUNeed=     1.
 LinEq1:  Iter=  0 NonCon=     1 RMS=3.23D-03 Max=3.25D-02 NDo=     1
 AX will form     1 AO Fock derivatives at one time.
 LinEq1:  Iter=  1 NonCon=     1 RMS=7.91D-04 Max=1.22D-02 NDo=     1
 LinEq1:  Iter=  2 NonCon=     1 RMS=2.74D-04 Max=3.36D-03 NDo=     1
 LinEq1:  Iter=  3 NonCon=     1 RMS=4.24D-05 Max=3.46D-04 NDo=     1
 LinEq1:  Iter=  4 NonCon=     1 RMS=1.80D-05 Max=2.08D-04 NDo=     1
 LinEq1:  Iter=  5 NonCon=     1 RMS=2.92D-06 Max=3.00D-05 NDo=     1
 LinEq1:  Iter=  6 NonCon=     1 RMS=5.69D-07 Max=6.58D-06 NDo=     1
 LinEq1:  Iter=  7 NonCon=     1 RMS=1.10D-07 Max=1.59D-06 NDo=     1
 LinEq1:  Iter=  8 NonCon=     1 RMS=1.50D-08 Max=1.85D-07 NDo=     1
 LinEq1:  Iter=  9 NonCon=     1 RMS=3.01D-09 Max=3.94D-08 NDo=     1
 LinEq1:  Iter= 10 NonCon=     1 RMS=5.03D-10 Max=4.64D-09 NDo=     1
 LinEq1:  Iter= 11 NonCon=     0 RMS=6.12D-11 Max=5.34D-10 NDo=     1
 Linear equations converged to 1.000D-10 1.000D-09 after    11 iterations.
 End of Minotr F.D. properties file   721 does not exist.
 End of Minotr F.D. properties file   722 does not exist.
 End of Minotr F.D. properties file   788 does not exist.
 Calling FoFJK, ICntrl=  10002127 FMM=F ISym2X=0 I1Cent= 0 IOpClX= 0 NMat=1 NMatS=1 NMatT=0.
 ***** Axes restored to original set *****
 -------------------------------------------------------------------
 Center     Atomic                   Forces (Hartrees/Bohr)
 Number     Number              X              Y              Z
 -------------------------------------------------------------------
      1        7           0.000716294   -0.000007670   -0.000025733
      2        1          -0.000270998   -0.000176472   -0.000016041
      3        1          -0.000270179    0.000126300   -0.000123940
      4        1          -0.000264007    0.000056972    0.000158975
      5        9          -0.000324841   -0.000001658   -0.000010052
      6        1           0.000413731    0.000002529    0.000016791
 -------------------------------------------------------------------
 Cartesian Forces:  Max     0.000716294 RMS     0.000247010

 GradGradGradGradGradGradGradGradGradGradGradGradGradGradGradGradGradGrad
 Berny optimization.
 Using GEDIIS/GDIIS optimizer.
 FormGI is forming the generalized inverse of G from B-inverse, IUseBI=4.
 Internal  Forces:  Max     0.000328697 RMS     0.000156164
 Search for a local minimum.
 Step number   3 out of a maximum of   27
 All quantities printed in internal units (Hartrees-Bohrs-Radians)
 Mixed Optimization -- En-DIIS/RFO-DIIS
 Swapping is turned off.
 Update second derivatives using D2CorX and points    1    2    3
 DE= -8.35D-06 DEPred=-5.54D-06 R= 1.51D+00
 TightC=F SS=  1.41D+00  RLast= 1.13D-02 DXNew= 5.0454D-01 3.3988D-02
 Trust test= 1.51D+00 RLast= 1.13D-02 DXMaxT set to 3.00D-01
 The second derivative matrix:
                          R1        R2        R3        R4        R5
           R1           0.45483
           R2           0.01130   0.45488
           R3           0.01110   0.01114   0.45449
           R4          -0.00184  -0.00185  -0.00193   0.07356
           R5           0.02061   0.02078   0.02059   0.00457   0.58941
           A1           0.01362   0.01372   0.01385   0.00831   0.00378
           A2           0.01157   0.01164   0.01179   0.00706  -0.00175
           A3          -0.01212  -0.01220  -0.01234  -0.00730  -0.00130
           A4           0.01182   0.01189   0.01204   0.00711  -0.00165
           A5          -0.01191  -0.01200  -0.01213  -0.00724  -0.00121
           A6          -0.01021  -0.01027  -0.01041  -0.00625   0.00189
           A7           0.00097   0.00098   0.00097   0.00037   0.00218
           A8          -0.00004  -0.00004  -0.00004  -0.00003   0.00003
           D1          -0.00583  -0.00595  -0.00587  -0.00368  -0.01629
           D2          -0.00192  -0.00195  -0.00194  -0.00102  -0.00391
           D3          -0.00084  -0.00086  -0.00085  -0.00049  -0.00184
           D4           0.00108   0.00110   0.00109   0.00053   0.00207
                          A1        A2        A3        A4        A5
           A1           0.13817
           A2          -0.02122   0.14074
           A3           0.02027   0.01912   0.14143
           A4          -0.02131  -0.01934   0.01920   0.14057
           A5           0.02015   0.01900  -0.01846   0.01909   0.14165
           A6           0.01898   0.01716  -0.01707   0.01723  -0.01697
           A7           0.00014  -0.00035   0.00008  -0.00035   0.00008
           A8           0.00010   0.00008  -0.00008   0.00008  -0.00008
           D1           0.00169   0.00569  -0.00331   0.00572  -0.00329
           D2           0.00081   0.00168  -0.00114   0.00169  -0.00113
           D3           0.00041   0.00083  -0.00057   0.00084  -0.00056
           D4          -0.00040  -0.00085   0.00057  -0.00085   0.00057
                          A6        A7        A8        D1        D2
           A6           0.14472
           A7           0.00034   0.01311
           A8          -0.00007   0.00000   0.01294
           D1          -0.00531  -0.00145  -0.00004   0.01959
           D2          -0.00155  -0.00032  -0.00001   0.00260   0.00286
           D3          -0.00077  -0.00016  -0.00001   0.00127   0.00027
           D4           0.00078   0.00017   0.00001  -0.00134  -0.00029
                          D3        D4
           D3           0.00243
           D4          -0.00014   0.00245
 ITU=  1  1  0
     Eigenvalues ---    0.01294   0.01302   0.03575   0.05288   0.05452
     Eigenvalues ---    0.07744   0.15636   0.16000   0.44355   0.44356
     Eigenvalues ---    0.46939   0.59988
 En-DIIS/RFO-DIIS/Sim-DIIS IScMMF=       -3 using points:     3    2
 RFO step:  Lambda=-7.61038736D-06.
 DidBck=F Rises=F RFO-DIIS coefs:    2.19213   -1.19213
 Iteration  1 RMS(Cart)=  0.00301376 RMS(Int)=  0.00001826
 Iteration  2 RMS(Cart)=  0.00000670 RMS(Int)=  0.00001700
 Iteration  3 RMS(Cart)=  0.00000000 RMS(Int)=  0.00001700
 Variable       Old X    -DE/DX   Delta X   Delta X   Delta X     New X
                                 (Linear)    (Quad)   (Total)
    R1        1.91366   0.00006  -0.00084   0.00041  -0.00043   1.91323
    R2        1.91366   0.00006  -0.00085   0.00042  -0.00043   1.91323
    R3        1.91366   0.00006  -0.00086   0.00041  -0.00045   1.91321
    R4        3.17851  -0.00009  -0.00350   0.00022  -0.00327   3.17524
    R5        1.80732   0.00032  -0.00036   0.00121   0.00085   1.80817
    A1        1.86838   0.00012   0.00401   0.00036   0.00434   1.87272
    A2        1.86862   0.00020   0.00414   0.00005   0.00417   1.87279
    A3        1.95116  -0.00014  -0.00383  -0.00010  -0.00393   1.94723
    A4        1.86862   0.00020   0.00416   0.00004   0.00417   1.87280
    A5        1.95119  -0.00014  -0.00381  -0.00010  -0.00390   1.94728
    A6        1.95080  -0.00020  -0.00371  -0.00022  -0.00394   1.94686
    A7        3.14084   0.00002  -0.00125   0.00401   0.00276   3.14360
    A8        3.14188  -0.00000  -0.00024  -0.00001  -0.00025   3.14163
    D1        1.99881   0.00033   0.00853   0.00046   0.00903   2.00784
    D2       -2.09436   0.00005   0.00017  -0.00033  -0.00015  -2.09451
    D3        2.09440   0.00002   0.00006  -0.00015  -0.00009   2.09431
    D4       -2.09442  -0.00003  -0.00011   0.00018   0.00007  -2.09436
         Item               Value     Threshold  Converged?
 Maximum Force            0.000329     0.000450     YES
 RMS     Force            0.000156     0.000300     YES
 Maximum Displacement     0.005891     0.001800     NO 
 RMS     Displacement     0.003014     0.001200     NO 
 Predicted change in Energy=-3.807920D-06
 GradGradGradGradGradGradGradGradGradGradGradGradGradGradGradGradGradGrad

                          Input orientation:                          
 ---------------------------------------------------------------------
 Center     Atomic      Atomic             Coordinates (Angstroms)
 Number     Number       Type             X           Y           Z
 ---------------------------------------------------------------------
      1          7           0        1.221168    0.000057    0.000131
      2          1           0        1.593172   -0.926271   -0.168871
      3          1           0        1.593278    0.609484   -0.717618
      4          1           0        1.593296    0.316846    0.886795
      5          9           0       -1.415938   -0.000232   -0.000921
      6          1           0       -0.459095    0.000294    0.000611
 ---------------------------------------------------------------------
                    Distance matrix (angstroms):
                    1          2          3          4          5
     1  N    0.000000
     2  H    1.012439   0.000000
     3  H    1.012438   1.630848   0.000000
     4  H    1.012426   1.630880   1.630883   0.000000
     5  F    2.637107   3.152856   3.152902   3.153422   0.000000
     6  H    1.680264   2.258107   2.258141   2.257839   0.956844
                    6
     6  H    0.000000
 Stoichiometry    FH4N
 Framework group  C1[X(FH4N)]
 Deg. of freedom    12
 Full point group                 C1      NOp   1
 Largest Abelian subgroup         C1      NOp   1
 Largest concise Abelian subgroup C1      NOp   1
                         Standard orientation:                         
 ---------------------------------------------------------------------
 Center     Atomic      Atomic             Coordinates (Angstroms)
 Number     Number       Type             X           Y           Z
 ---------------------------------------------------------------------
      1          7           0       -1.214899    0.000002   -0.000003
      2          1           0       -1.586746    0.441252    0.831899
      3          1           0       -1.586801    0.500101   -0.797887
      4          1           0       -1.587391   -0.940797   -0.033957
      5          9           0        1.422208    0.000068    0.000002
      6          1           0        0.465364   -0.001180   -0.000054
 ---------------------------------------------------------------------
 Rotational constants (GHZ):         188.5355014           7.4983873           7.4983790
 Standard basis: Aug-CC-pVTZ (5D, 7F)
 There are   210 symmetry adapted cartesian basis functions of A   symmetry.
 There are   184 symmetry adapted basis functions of A   symmetry.
   184 basis functions,   252 primitive gaussians,   210 cartesian basis functions
    10 alpha electrons       10 beta electrons
       nuclear repulsion energy        37.0080346813 Hartrees.
 NAtoms=    6 NActive=    6 NUniq=    6 SFac= 1.00D+00 NAtFMM=   60 NAOKFM=F Big=F
 Integral buffers will be    131072 words long.
 Raffenetti 1 integral format.
 Two-electron integral symmetry is turned on.
 One-electron integrals computed using PRISM.
 NBasis=   184 RedAO= T EigKep=  9.34D-05  NBF=   184
 NBsUse=   184 1.00D-06 EigRej= -1.00D+00 NBFU=   184
 Initial guess from the checkpoint file:  "/gscratch/scrubbed/gds001/Gau-186285.chk"
 B after Tr=     0.000000    0.000000   -0.000000
         Rot=    0.999872   -0.015969    0.000000    0.000034 Ang=  -1.83 deg.
 Keep R1 ints in memory in canonical form, NReq=160621562.
 Requested convergence on RMS density matrix=1.00D-08 within 128 cycles.
 Requested convergence on MAX density matrix=1.00D-06.
 Requested convergence on             energy=1.00D-06.
 No special actions if energy rises.
 SCF Done:  E(RHF) =  -156.296365962     A.U. after    7 cycles
            NFock=  7  Conv=0.60D-08     -V/T= 2.0011
 ExpMin= 2.53D-02 ExpMax= 1.95D+04 ExpMxC= 6.65D+02 IAcc=3 IRadAn=         5 AccDes= 0.00D+00
 HarFok:  IExCor=  205 AccDes= 0.00D+00 IRadAn=         5 IDoV=-2 UseB2=F ITyADJ=14
 ICtDFT= 12500011 ScaDFX=  1.000000  1.000000  1.000000  1.000000
 Range of M.O.s used for correlation:     3   184
 NBasis=   184 NAE=    10 NBE=    10 NFC=     2 NFV=     0
 NROrb=    182 NOA=     8 NOB=     8 NVA=   174 NVB=   174

 **** Warning!!: The largest alpha MO coefficient is  0.32694692D+02

 Fully direct method using O(ONN) memory.
 JobTyp=1 Pass  1:  I=   3 to  10 NPSUse= 32 ParTrn=T ParDer=T DoDerP=T.
 Spin components of T(2) and E(2):
     alpha-alpha T2 =       0.1513849172D-01 E2=     -0.6359865149D-01
     alpha-beta  T2 =       0.8902230504D-01 E2=     -0.3984735008D+00
     beta-beta   T2 =       0.1513849172D-01 E2=     -0.6359865149D-01
 ANorm=    0.1057969418D+01
 E2 =    -0.5256708038D+00 EUMP2 =    -0.15682203676586D+03
          IDoAtm=111111
          Differentiating once with respect to electric field.
                with respect to dipole field.
          Differentiating once with respect to nuclear coordinates.
 Keep R1 ints in memory in canonical form, NReq=160625434.
          There are     1 degrees of freedom in the 1st order CPHF.  IDoFFX=0 NUNeed=     1.
 LinEq1:  Iter=  0 NonCon=     1 RMS=3.23D-03 Max=3.28D-02 NDo=     1
 AX will form     1 AO Fock derivatives at one time.
 LinEq1:  Iter=  1 NonCon=     1 RMS=7.91D-04 Max=1.22D-02 NDo=     1
 LinEq1:  Iter=  2 NonCon=     1 RMS=2.74D-04 Max=3.36D-03 NDo=     1
 LinEq1:  Iter=  3 NonCon=     1 RMS=4.25D-05 Max=4.33D-04 NDo=     1
 LinEq1:  Iter=  4 NonCon=     1 RMS=1.80D-05 Max=2.10D-04 NDo=     1
 LinEq1:  Iter=  5 NonCon=     1 RMS=2.92D-06 Max=3.00D-05 NDo=     1
 LinEq1:  Iter=  6 NonCon=     1 RMS=5.69D-07 Max=6.59D-06 NDo=     1
 LinEq1:  Iter=  7 NonCon=     1 RMS=1.11D-07 Max=1.58D-06 NDo=     1
 LinEq1:  Iter=  8 NonCon=     1 RMS=1.51D-08 Max=1.88D-07 NDo=     1
 LinEq1:  Iter=  9 NonCon=     1 RMS=3.01D-09 Max=3.92D-08 NDo=     1
 LinEq1:  Iter= 10 NonCon=     1 RMS=5.03D-10 Max=4.62D-09 NDo=     1
 LinEq1:  Iter= 11 NonCon=     0 RMS=6.13D-11 Max=5.35D-10 NDo=     1
 Linear equations converged to 1.000D-10 1.000D-09 after    11 iterations.
 End of Minotr F.D. properties file   721 does not exist.
 End of Minotr F.D. properties file   722 does not exist.
 End of Minotr F.D. properties file   788 does not exist.
 Calling FoFJK, ICntrl=  10002127 FMM=F ISym2X=0 I1Cent= 0 IOpClX= 0 NMat=1 NMatS=1 NMatT=0.
 ***** Axes restored to original set *****
 -------------------------------------------------------------------
 Center     Atomic                   Forces (Hartrees/Bohr)
 Number     Number              X              Y              Z
 -------------------------------------------------------------------
      1        7          -0.000076723    0.000005234    0.000018409
      2        1           0.000003960   -0.000037731   -0.000002145
      3        1           0.000004001    0.000028497   -0.000025809
      4        1           0.000030414    0.000014520    0.000039586
      5        9          -0.000163578    0.000011648    0.000032511
      6        1           0.000201926   -0.000022167   -0.000062553
 -------------------------------------------------------------------
 Cartesian Forces:  Max     0.000201926 RMS     0.000068727

 GradGradGradGradGradGradGradGradGradGradGradGradGradGradGradGradGradGrad
 Berny optimization.
 Using GEDIIS/GDIIS optimizer.
 FormGI is forming the generalized inverse of G from B-inverse, IUseBI=4.
 Internal  Forces:  Max     0.000163519 RMS     0.000047506
 Search for a local minimum.
 Step number   4 out of a maximum of   27
 All quantities printed in internal units (Hartrees-Bohrs-Radians)
 Mixed Optimization -- En-DIIS/RFO-DIIS
 Swapping is turned off.
 Update second derivatives using D2CorX and points    1    2    3    4
 DE= -3.84D-06 DEPred=-3.81D-06 R= 1.01D+00
 TightC=F SS=  1.41D+00  RLast= 1.42D-02 DXNew= 5.0454D-01 4.2542D-02
 Trust test= 1.01D+00 RLast= 1.42D-02 DXMaxT set to 3.00D-01
 The second derivative matrix:
                          R1        R2        R3        R4        R5
           R1           0.44531
           R2           0.00170   0.44520
           R3           0.00196   0.00192   0.44577
           R4          -0.00364  -0.00365  -0.00360   0.07244
           R5           0.00194   0.00206   0.00223   0.00395   0.56599
           A1           0.00538   0.00547   0.00548   0.00868  -0.00543
           A2           0.00667   0.00671   0.00650   0.00768  -0.00960
           A3          -0.00576  -0.00582  -0.00575  -0.00768   0.00663
           A4           0.00689   0.00693   0.00672   0.00771  -0.00948
           A5          -0.00561  -0.00567  -0.00561  -0.00763   0.00665
           A6          -0.00612  -0.00615  -0.00592  -0.00702   0.00921
           A7          -0.00184  -0.00184  -0.00200  -0.00034   0.00028
           A8          -0.00004  -0.00004  -0.00004  -0.00004   0.00006
           D1           0.00679   0.00665   0.00610  -0.00110  -0.01269
           D2           0.00151   0.00148   0.00141  -0.00026  -0.00258
           D3           0.00083   0.00082   0.00078  -0.00012  -0.00120
           D4          -0.00068  -0.00066  -0.00063   0.00014   0.00138
                          A1        A2        A3        A4        A5
           A1           0.13532
           A2          -0.02337   0.14053
           A3           0.02256   0.02026   0.13983
           A4          -0.02343  -0.01952   0.02032   0.14043
           A5           0.02244   0.02017  -0.02007   0.02023   0.14003
           A6           0.02110   0.01737  -0.01820   0.01741  -0.01812
           A7           0.00079   0.00135  -0.00091   0.00135  -0.00090
           A8           0.00010   0.00008  -0.00009   0.00008  -0.00009
           D1           0.00134   0.00791  -0.00412   0.00797  -0.00403
           D2           0.00055   0.00162  -0.00101   0.00164  -0.00099
           D3           0.00028   0.00080  -0.00050   0.00081  -0.00049
           D4          -0.00027  -0.00082   0.00051  -0.00083   0.00050
                          A6        A7        A8        D1        D2
           A6           0.14449
           A7          -0.00140   0.01377
           A8          -0.00007  -0.00001   0.01294
           D1          -0.00731   0.00136  -0.00004   0.02237
           D2          -0.00143   0.00008  -0.00001   0.00225   0.00265
           D3          -0.00071   0.00004  -0.00000   0.00111   0.00017
           D4           0.00072  -0.00004   0.00000  -0.00114  -0.00018
                          D3        D4
           D3           0.00238
           D4          -0.00009   0.00239
 ITU=  1  1  1  0
     Eigenvalues ---    0.01294   0.01332   0.03453   0.05330   0.05384
     Eigenvalues ---    0.07827   0.15758   0.16000   0.44355   0.44357
     Eigenvalues ---    0.45109   0.56714
 En-DIIS/RFO-DIIS/Sim-DIIS IScMMF=       -3 using points:     4    3    2
 RFO step:  Lambda=-3.93419855D-07.
 DidBck=T Rises=F RFO-DIIS coefs:    0.51779    1.11244   -0.63023
 Iteration  1 RMS(Cart)=  0.00057626 RMS(Int)=  0.00000916
 Iteration  2 RMS(Cart)=  0.00000065 RMS(Int)=  0.00000913
 Variable       Old X    -DE/DX   Delta X   Delta X   Delta X     New X
                                 (Linear)    (Quad)   (Total)
    R1        1.91323   0.00004  -0.00024   0.00031   0.00007   1.91330
    R2        1.91323   0.00004  -0.00024   0.00031   0.00007   1.91330
    R3        1.91321   0.00005  -0.00024   0.00032   0.00009   1.91329
    R4        3.17524  -0.00004  -0.00027  -0.00001  -0.00028   3.17496
    R5        1.80817   0.00016  -0.00060   0.00081   0.00021   1.80839
    A1        1.87272   0.00001   0.00003   0.00012   0.00013   1.87285
    A2        1.87279  -0.00000   0.00018  -0.00008   0.00008   1.87287
    A3        1.94723  -0.00001  -0.00013   0.00000  -0.00013   1.94711
    A4        1.87280  -0.00000   0.00019  -0.00009   0.00008   1.87288
    A5        1.94728  -0.00001  -0.00013  -0.00000  -0.00013   1.94716
    A6        1.94686   0.00002  -0.00007   0.00005  -0.00002   1.94685
    A7        3.14360  -0.00006  -0.00199  -0.00015  -0.00215   3.14145
    A8        3.14163  -0.00000  -0.00000  -0.00000  -0.00001   3.14163
    D1        2.00784   0.00001   0.00015   0.00005   0.00023   2.00807
    D2       -2.09451   0.00000   0.00016  -0.00016   0.00001  -2.09450
    D3        2.09431   0.00000   0.00007  -0.00007   0.00001   2.09432
    D4       -2.09436  -0.00000  -0.00009   0.00009  -0.00000  -2.09436
         Item               Value     Threshold  Converged?
 Maximum Force            0.000164     0.000450     YES
 RMS     Force            0.000048     0.000300     YES
 Maximum Displacement     0.001524     0.001800     YES
 RMS     Displacement     0.000576     0.001200     YES
 Predicted change in Energy=-1.433357D-07
 Optimization completed.
    -- Stationary point found.
                           ----------------------------
                           !   Optimized Parameters   !
                           ! (Angstroms and Degrees)  !
 --------------------------                            --------------------------
 ! Name  Definition              Value          Derivative Info.                !
 --------------------------------------------------------------------------------
 ! R1    R(1,2)                  1.0124         -DE/DX =    0.0                 !
 ! R2    R(1,3)                  1.0124         -DE/DX =    0.0                 !
 ! R3    R(1,4)                  1.0124         -DE/DX =    0.0001              !
 ! R4    R(1,6)                  1.6803         -DE/DX =    0.0                 !
 ! R5    R(5,6)                  0.9568         -DE/DX =    0.0002              !
 ! A1    A(2,1,3)              107.299          -DE/DX =    0.0                 !
 ! A2    A(2,1,4)              107.3029         -DE/DX =    0.0                 !
 ! A3    A(2,1,6)              111.5683         -DE/DX =    0.0                 !
 ! A4    A(3,1,4)              107.3033         -DE/DX =    0.0                 !
 ! A5    A(3,1,6)              111.5712         -DE/DX =    0.0                 !
 ! A6    A(4,1,6)              111.5471         -DE/DX =    0.0                 !
 ! A7    L(1,6,5,4,-1)         180.1151         -DE/DX =   -0.0001              !
 ! A8    L(1,6,5,4,-2)         180.0022         -DE/DX =    0.0                 !
 ! D1    D(2,1,4,3)            115.0408         -DE/DX =    0.0                 !
 ! D2    D(2,1,6,3)           -120.0068         -DE/DX =    0.0                 !
 ! D3    D(2,1,6,4)            119.9954         -DE/DX =    0.0                 !
 ! D4    D(3,1,6,4)           -119.9978         -DE/DX =    0.0                 !
 --------------------------------------------------------------------------------
 GradGradGradGradGradGradGradGradGradGradGradGradGradGradGradGradGradGrad

                          Input orientation:                          
 ---------------------------------------------------------------------
 Center     Atomic      Atomic             Coordinates (Angstroms)
 Number     Number       Type             X           Y           Z
 ---------------------------------------------------------------------
      1          7           0        1.221168    0.000057    0.000131
      2          1           0        1.593172   -0.926271   -0.168871
      3          1           0        1.593278    0.609484   -0.717618
      4          1           0        1.593296    0.316846    0.886795
      5          9           0       -1.415938   -0.000232   -0.000921
      6          1           0       -0.459095    0.000294    0.000611
 ---------------------------------------------------------------------
                    Distance matrix (angstroms):
                    1          2          3          4          5
     1  N    0.000000
     2  H    1.012439   0.000000
     3  H    1.012438   1.630848   0.000000
     4  H    1.012426   1.630880   1.630883   0.000000
     5  F    2.637107   3.152856   3.152902   3.153422   0.000000
     6  H    1.680264   2.258107   2.258141   2.257839   0.956844
                    6
     6  H    0.000000
 Stoichiometry    FH4N
 Framework group  C1[X(FH4N)]
 Deg. of freedom    12
 Full point group                 C1      NOp   1
 Largest Abelian subgroup         C1      NOp   1
 Largest concise Abelian subgroup C1      NOp   1
                         Standard orientation:                         
 ---------------------------------------------------------------------
 Center     Atomic      Atomic             Coordinates (Angstroms)
 Number     Number       Type             X           Y           Z
 ---------------------------------------------------------------------
      1          7           0       -1.214899    0.000002   -0.000003
      2          1           0       -1.586746    0.441252    0.831899
      3          1           0       -1.586801    0.500101   -0.797887
      4          1           0       -1.587391   -0.940797   -0.033957
      5          9           0        1.422208    0.000068    0.000002
      6          1           0        0.465364   -0.001180   -0.000054
 ---------------------------------------------------------------------
 Rotational constants (GHZ):         188.5355014           7.4983873           7.4983790

 **********************************************************************

            Population analysis using the SCF density.

 **********************************************************************

 Orbital symmetries:
       Occupied  (A) (A) (A) (A) (A) (A) (A) (A) (A) (A)
       Virtual   (A) (A) (A) (A) (A) (A) (A) (A) (A) (A) (A) (A)
                 (A) (A) (A) (A) (A) (A) (A) (A) (A) (A) (A) (A)
                 (A) (A) (A) (A) (A) (A) (A) (A) (A) (A) (A) (A)
                 (A) (A) (A) (A) (A) (A) (A) (A) (A) (A) (A) (A)
                 (A) (A) (A) (A) (A) (A) (A) (A) (A) (A) (A) (A)
                 (A) (A) (A) (A) (A) (A) (A) (A) (A) (A) (A) (A)
                 (A) (A) (A) (A) (A) (A) (A) (A) (A) (A) (A) (A)
                 (A) (A) (A) (A) (A) (A) (A) (A) (A) (A) (A) (A)
                 (A) (A) (A) (A) (A) (A) (A) (A) (A) (A) (A) (A)
                 (A) (A) (A) (A) (A) (A) (A) (A) (A) (A) (A) (A)
                 (A) (A) (A) (A) (A) (A) (A) (A) (A) (A) (A) (A)
                 (A) (A) (A) (A) (A) (A) (A) (A) (A) (A) (A) (A)
                 (A) (A) (A) (A) (A) (A) (A) (A) (A) (A) (A) (A)
                 (A) (A) (A) (A) (A) (A) (A) (A) (A) (A) (A) (A)
                 (A) (A) (A) (A) (A) (A)
 The electronic state is 1-A.
 Alpha  occ. eigenvalues --  -26.22381 -15.58815  -1.52529  -1.19251  -0.70968
 Alpha  occ. eigenvalues --   -0.67685  -0.67684  -0.58051  -0.58051  -0.48444
 Alpha virt. eigenvalues --    0.01891   0.04189   0.04190   0.06943   0.12821
 Alpha virt. eigenvalues --    0.13790   0.14915   0.14917   0.19653   0.19656
 Alpha virt. eigenvalues --    0.20746   0.20747   0.23663   0.27312   0.27313
 Alpha virt. eigenvalues --    0.27579   0.33978   0.35010   0.37452   0.37870
 Alpha virt. eigenvalues --    0.37873   0.39028   0.42013   0.42028   0.44188
 Alpha virt. eigenvalues --    0.44192   0.48530   0.54715   0.54717   0.58592
 Alpha virt. eigenvalues --    0.60891   0.60892   0.67750   0.70142   0.70156
 Alpha virt. eigenvalues --    0.70318   0.83600   0.87644   0.89723   0.89730
 Alpha virt. eigenvalues --    0.90251   0.90892   0.90898   0.95802   0.95815
 Alpha virt. eigenvalues --    0.99278   0.99282   0.99321   1.05189   1.06099
 Alpha virt. eigenvalues --    1.06109   1.11024   1.11028   1.16362   1.16369
 Alpha virt. eigenvalues --    1.16748   1.19975   1.25815   1.25820   1.26980
 Alpha virt. eigenvalues --    1.29337   1.29357   1.33119   1.33122   1.39959
 Alpha virt. eigenvalues --    1.41315   1.41321   1.49690   1.57139   1.62062
 Alpha virt. eigenvalues --    1.64086   1.64103   1.72440   1.79763   1.79776
 Alpha virt. eigenvalues --    1.81740   1.81790   1.94262   1.97688   1.97723
 Alpha virt. eigenvalues --    2.06622   2.06624   2.09482   2.26123   2.26177
 Alpha virt. eigenvalues --    2.30354   2.33115   2.40699   2.40712   2.43907
 Alpha virt. eigenvalues --    2.43962   2.45658   2.78385   2.88419   2.88421
 Alpha virt. eigenvalues --    2.98820   2.98874   3.06255   3.14623   3.14635
 Alpha virt. eigenvalues --    3.18142   3.29457   3.29521   3.43877   3.55500
 Alpha virt. eigenvalues --    3.81598   3.81611   3.86127   3.86172   3.98119
 Alpha virt. eigenvalues --    3.98124   4.13239   4.14385   4.14444   4.16850
 Alpha virt. eigenvalues --    4.17393   4.28204   4.28236   4.29541   4.33045
 Alpha virt. eigenvalues --    4.33076   4.44451   4.48475   4.48518   4.52571
 Alpha virt. eigenvalues --    4.52599   4.58456   4.58462   4.60496   4.71461
 Alpha virt. eigenvalues --    4.76810   4.76822   4.93419   4.93879   4.93934
 Alpha virt. eigenvalues --    5.00449   5.00476   5.05957   5.05959   5.10226
 Alpha virt. eigenvalues --    5.16920   5.62954   5.62955   5.68755   5.78378
 Alpha virt. eigenvalues --    5.86701   5.86707   6.09793   6.17469   6.17475
 Alpha virt. eigenvalues --    6.31421   6.31425   6.39756   6.59161   6.88440
 Alpha virt. eigenvalues --    6.96091   6.96102   7.75577   7.75612   7.92547
 Alpha virt. eigenvalues --    8.89371   8.89400   9.06491   9.06506   9.43520
 Alpha virt. eigenvalues --    9.43540   9.45101   9.45104   9.68574   9.72799
 Alpha virt. eigenvalues --    9.72806   9.98443  15.33565  17.86259
          Condensed to atoms (all electrons):
               1          2          3          4          5          6
     1  N    6.038645   0.411331   0.411334   0.411499  -0.057232   0.033359
     2  H    0.411331   0.477220  -0.008901  -0.008963  -0.000650   0.006082
     3  H    0.411334  -0.008901   0.477217  -0.008965  -0.000651   0.006081
     4  H    0.411499  -0.008963  -0.008965   0.477328  -0.000720   0.006031
     5  F   -0.057232  -0.000650  -0.000651  -0.000720   9.328492   0.194187
     6  H    0.033359   0.006082   0.006081   0.006031   0.194187   0.413457
 Mulliken charges:
               1
     1  N   -0.248935
     2  H    0.123883
     3  H    0.123885
     4  H    0.123790
     5  F   -0.463425
     6  H    0.340803
 Sum of Mulliken charges =  -0.00000
 Mulliken charges with hydrogens summed into heavy atoms:
               1
     1  N    0.122622
     5  F   -0.122622
 Electronic spatial extent (au):  <R**2>=            166.5713
 Charge=             -0.0000 electrons
 Dipole moment (field-independent basis, Debye):
    X=             -4.7788    Y=             -0.0013    Z=             -0.0000  Tot=              4.7788
 Quadrupole moment (field-independent basis, Debye-Ang):
   XX=            -13.5436   YY=            -11.6651   ZZ=            -11.6653
   XY=             -0.0010   XZ=             -0.0000   YZ=             -0.0000
 Traceless Quadrupole moment (field-independent basis, Debye-Ang):
   XX=             -1.2523   YY=              0.6262   ZZ=              0.6261
   XY=             -0.0010   XZ=             -0.0000   YZ=             -0.0000
 Octapole moment (field-independent basis, Debye-Ang**2):
  XXX=             -5.5428  YYY=             -1.0549  ZZZ=              0.1150  XYY=             -1.2587
  XXY=             -0.0002  XXZ=             -0.0002  XZZ=             -1.2577  YZZ=              1.0567
  YYZ=             -0.1148  XYZ=              0.0000
 Hexadecapole moment (field-independent basis, Debye-Ang**3):
 XXXX=           -153.6774 YYYY=            -13.1037 ZZZZ=            -13.1027 XXXY=              0.0082
 XXXZ=              0.0009 YYYX=              1.7839 YYYZ=             -0.0001 ZZZX=             -0.1941
 ZZZY=              0.0001 XXYY=            -23.5843 XXZZ=            -23.5877 YYZZ=             -4.3670
 XXYZ=             -0.0000 YYXZ=              0.1940 ZZXY=             -1.7853
 N-N= 3.700803468134D+01 E-N=-4.462490976026D+02  KE= 1.561174859428D+02
 1\1\GINC-N2398\FOpt\RMP2-FC\Aug-CC-pVTZ\F1H4N1\GDS001\20-Dec-2021\0\\#
  MP2/aug-cc-pVTZ opt freq=(vibrot,anharmonic)\\bleh\\0,1\N,1.221168323
 1,0.0000574241,0.0001306562\H,1.5931716282,-0.9262705805,-0.1688714953
 \H,1.5932781923,0.6094837704,-0.7176182426\H,1.5932957402,0.316845518,
 0.8867946835\F,-1.415938453,-0.0002322935,-0.0009206526\H,-0.459095430
 8,0.0002941615,0.0006110507\\Version=ES64L-G16RevA.03\State=1-A\HF=-15
 6.296366\MP2=-156.8220368\RMSD=5.978e-09\RMSF=6.873e-05\Dipole=1.82250
 26,0.0003052,0.0010655\PG=C01 [X(F1H4N1)]\\@


 EDUCATION DOESN'T COST 
           ... IT PAYS!

 -- POSTMARK, UNIV. OF MISSISSIPPI, DEC 78
 Job cpu time:       0 days  0 hours 28 minutes 46.6 seconds.
 Elapsed time:       0 days  0 hours  1 minutes 16.1 seconds.
 File lengths (MBytes):  RWF=     72 Int=      0 D2E=      0 Chk=      8 Scr=      8
 Normal termination of Gaussian 16 at Mon Dec 20 13:23:17 2021.
 Link1:  Proceeding to internal job step number  2.
 ----------------------------------------------------------------------
 #N Geom=AllCheck Guess=TCheck SCRF=Check GenChk RMP2(FC)/Aug-CC-pVTZ F
 req
 ----------------------------------------------------------------------
 1/10=4,29=7,30=1,38=21,40=1,80=1/1,6,3;
 2/12=2,40=1/2;
 3/5=16,6=1,7=10,11=1,14=-4,25=1,30=1,70=2,71=2,116=1,140=1/1,2,3;
 4/5=101,69=2/1;
 5/5=2,38=6,98=1/2;
 8/6=3,8=1,10=1,19=11,30=-1/1;
 9/15=3,16=-3/6;
 11/6=1,8=1,15=11,17=12,24=-1,27=1,28=-2,29=300,32=6,42=3/1,2,10;
 10/6=2,21=1,60=-2/2;
 8/6=4,8=1,10=1,19=11,30=-1/11,4;
 10/5=1,20=4,60=-2/2;
 11/12=2,14=11,16=1,17=2,28=-2,42=3/2,10,12;
 6/7=2,8=2,9=2,10=2,22=-1/1;
 7/10=1,12=2,25=1,44=2,70=1,71=2/1,2,3,16;
 1/38=20,80=1/6(3);
 7/8=1,25=202,44=-1,70=1,71=1,92=10/16,17;
 1/10=4,30=1,38=20,80=1/3;
 99//99;
 3/5=16,6=1,7=10,11=1,14=-2,25=1,30=1,70=5,71=2,116=1,140=1/1,2,3;
 4/5=5,16=3,69=2/1;
 5/5=2,38=5,98=1/2;
 8/6=3,8=1,10=1,19=11,30=-1/1;
 9/15=3,16=-3/6;
 11/6=1,8=1,15=11,17=12,24=-1,27=1,28=-2,29=300,32=6,42=3/1,2,10;
 10/6=2,21=1,60=-2/2;
 8/6=4,8=1,10=1,19=11,30=-1/11,4;
 10/5=1,20=4,60=-2/2;
 11/12=2,14=11,16=1,17=2,28=-2,42=3/2,10,12;
 6/7=2,8=2,9=2,10=2,22=-1/1;
 7/7=1,10=1,12=2,25=1,44=2,70=1,71=1/1,2,3,16;
 1/38=20,80=1/6(-12);
 7/8=1,25=202,44=-1,70=1,71=1,92=10/16,17;
 1/10=4,30=1,38=20,80=1/3;
 99//99;
 Structure from the checkpoint file:  "/gscratch/scrubbed/gds001/Gau-186285.chk"
 ----
 bleh
 ----
 Charge =  0 Multiplicity = 1
 Redundant internal coordinates found in file.  (old form).
 N,0,1.2211683231,0.0000574241,0.0001306562
 H,0,1.5931716282,-0.9262705805,-0.1688714953
 H,0,1.5932781923,0.6094837704,-0.7176182426
 H,0,1.5932957402,0.316845518,0.8867946835
 F,0,-1.415938453,-0.0002322935,-0.0009206526
 H,0,-0.4590954308,0.0002941615,0.0006110507
 Recover connectivity data from disk.
 Numerical evaluation of third derivatives.
 Nuclear step= 0.010000 Angstroms, electric field step= 0.000333 atomic units, NStep=1.

 GradGradGradGradGradGradGradGradGradGradGradGradGradGradGradGradGradGrad
 Berny optimization.
 Initialization pass.
                           ----------------------------
                           !    Initial Parameters    !
                           ! (Angstroms and Degrees)  !
 --------------------------                            --------------------------
 ! Name  Definition              Value          Derivative Info.                !
 --------------------------------------------------------------------------------
 ! R1    R(1,2)                  1.0124         calculate D2E/DX2 analytically  !
 ! R2    R(1,3)                  1.0124         calculate D2E/DX2 analytically  !
 ! R3    R(1,4)                  1.0124         calculate D2E/DX2 analytically  !
[...]
 0.00007136,0.00001210,0.00019783,-0.00005897,-0.00000073,-0.00003006,0
 .00003176,0.00002993,0.00001734,-0.00009137,-0.00002019,0.00019996,0.0
 0019789,0.00049614,-0.00002141,-0.00002052,0.00001511,-0.00005442,0.00
 000778,-0.00001595,-0.00025614,-0.00019420,-0.00049604,-0.01289359,0.0
 0000954,0.00002489,-0.00019366,-0.00007329,-0.00001479,-0.00019347,0.0
 0004747,-0.00005799,-0.00015785,0.00001888,0.00005286,0.00944116,0.000
 01783,0.00158509,-0.00000578,-0.00029106,0.00002210,-0.00000398,0.0001
 9559,0.00001962,0.00000104,0.00010194,0.00001389,0.00000799,0.00006880
 ,-0.00412715,0.00004920,-0.00000578,0.00157099,-0.00004664,0.00000384,
 0.00001610,-0.00022055,-0.00000671,0.00001835,0.00028541,0.00000792,0.
 00003347,0.00018965,0.00000247,-0.00412110,-0.00395698,-0.00001335,-0.
 00003586,-0.00002220,-0.00007218,-0.00001414,-0.00002259,0.00004698,-0
 .00005673,-0.00005003,0.00002834,0.00007913,0.00399743,-0.00009310,-0.
 00025707,0.00005434,-0.00001555,-0.00122201,0.00000966,0.00112196,0.00
 001231,0.00002921,-0.00074515,-0.00002703,-0.00004035,-0.00039315,-0.0
 0003499,0.00000105,-0.00007141,0.00248644,-0.00000175,0.00010330,-0.00
 121471,-0.00004359,0.00000963,-0.00119827,0.00019350,0.00000830,-0.000
 04079,0.00086075,-0.00001952,-0.00000091,-0.00110071,0.00000117,-0.000
 03274,-0.00019462,-0.00000174,0.00248218,0.00028468,0.00000217,-0.0012
 0946,-0.01497814,0.00288161,-0.08573158,0.00806740,0.01810632,-0.04147
 688,0.00123706,-0.00804152,-0.00119382,0.00332171,-0.01844680,0.040465
 68,0.00563880,0.01612322,-0.03883254,-0.00078727,0.00559212,-0.0006395
 3,-0.00064413,-0.00540086,0.00095804,0.00124233,0.00546770,-0.00602344
 ,-0.00111664,0.00029144,0.00045511,0.00331320,0.01377131,0.01844235,-0
 .02127131,0.00006295,0.00105634,-0.00112391,-0.01288324,-0.01754710,-0
 .01229559,-0.02122393,0.02136249,0.00053629,-0.00021094,-0.00057277,0.
 00971747,0.02056171,-0.02030534,0.00482443,0.00122557,0.00343014,-0.00
 014179,0.00036253,-0.00063204,-0.00014129,-0.00068137,-0.00025937,-0.0
 0356843,0.00179005,-0.00005577,0.00477686,0.00025461,-0.00057042,0.001
 53501,-0.00052648,-0.00102884,-0.00087155,-0.00168681,0.00115250,0.005
 00362,0.00477617,0.01160253,-0.00051912,-0.00031135,-0.00021792,-0.000
 24019,0.00097598,0.00023885,-0.00471289,-0.00519534,-0.01152803,0.0057
 5454,0.00030336,0.00084712,0.00105286,0.00003828,0.00021403,0.00105203
 ,0.00010532,0.00019064,0.00017950,-0.00039139,-0.00109584,-1.14394570,
 -0.00006108,0.00235748,-0.00172897,-0.00009736,0.00027001,-0.00020417,
 0.00024623,0.00016303,0.00032149,-0.00008741,0.00064478,-0.00013401,-0
 .00055604,0.34454507,-0.00017153,-0.00172905,-0.00187047,0.00027000,0.
 00045123,0.00030607,0.00014750,-0.00033426,0.00041284,-0.00024546,-0.0
 0013362,0.00031875,-0.00165174,-0.07760069,0.15480888,0.00191980,-0.00
 183671,-0.00512740,-0.00435321,0.00163133,0.00139431,-0.00434963,-0.00
 037498,0.00211056,-0.00115241,0.00056002,0.00156443,1.13590677,0.00055
 567,0.00165124,-1.12797134,0.00006491,0.02452187,-0.00552169,-0.008301
 90,-0.00238909,-0.00039820,0.00740436,-0.00108578,0.00142321,0.0008674
 9,-0.00014225,-0.00011146,0.00050048,-0.34798039,0.07934638,-0.0005353
 3,0.32707564,0.00018338,-0.00552164,0.01102190,0.00155078,-0.00016689,
 0.00016610,-0.00405645,0.00119178,-0.00113608,0.00241963,-0.00011137,-
 0.00041420,0.00149578,0.07934635,-0.15397609,-0.00159313,-0.07473824,0
 .14433836,-0.01499357,-0.00289696,-0.04171899,-0.00808852,-0.01794361,
 -0.08560026,0.00361744,-0.00504073,-0.00118684,-0.00122870,-0.00903512
 ,0.02120338,0.00612294,0.00783472,-0.02068324,-0.00422453,0.00616769,-
 0.00016553,0.00500312,-0.00619904,0.00108458,0.00361582,0.00314983,-0.
 00411770,0.00018720,0.00019832,0.00065096,-0.00122367,0.00431778,0.006
 60383,-0.01167448,0.00025976,-0.00029560,-0.00133975,-0.00289467,-0.00
 587101,-0.00900485,-0.01171841,0.01445813,0.00062881,0.00081947,-0.000
 93167,0.00884642,0.01190101,-0.01375071,0.00008464,0.00320771,0.008978
 47,-0.00079621,0.00047403,-0.00021869,-0.00079726,-0.00050516,0.000130
 94,0.00551751,0.00759913,0.00474117,0.01623864,0.00046281,0.00044212,0
 .00145161,-0.00064763,-0.00070948,-0.00117810,-0.00648211,-0.00450620,
 0.02127398,0.01623785,0.04439339,-0.00045701,0.00022724,-0.00037599,-0
 .00006082,0.00004569,0.00077626,-0.01814959,-0.01551863,-0.04240178,0.
 00576644,-0.00033178,-0.00092604,0.00047500,0.00082293,-0.00006040,0.0
 0047578,-0.00067425,0.00047380,0.00131014,0.00009832,0.00027601,-1.143
 91378,0.00010481,-0.00187248,0.00169839,0.00020781,0.00033746,0.000171
 33,-0.00031633,0.00055897,-0.00020773,0.00005001,0.00014045,0.00007716
 ,-0.00073373,0.15480363,0.00029420,0.00169846,0.00227994,-0.00024558,-
 0.00047796,0.00051547,-0.00005853,0.00044220,0.00029338,0.00014087,0.0
 0007650,0.00032794,-0.00213327,0.07759406,0.34452475,0.00190923,0.0019
 1195,0.00534064,-0.00225473,-0.00029488,-0.00115047,-0.00225788,-0.000
 50347,-0.00107513,-0.00531881,-0.00103051,-0.00288256,1.13588642,0.000
 68742,0.00200231,-1.12796424,-0.00008964,0.01104311,0.00555814,-0.0037
 2437,-0.00100414,-0.00025184,0.00051049,-0.00028671,0.00038376,0.00325
 552,-0.00010806,-0.00106931,0.00081851,-0.15396806,-0.07933325,-0.0007
 7051,0.14432386,-0.00025029,0.00555803,0.02463436,-0.00374250,-0.00049
 265,-0.00012686,-0.00526032,0.00062534,-0.00084540,0.00911799,-0.00107
 002,-0.00271983,0.00236990,-0.07933320,-0.34794149,-0.00223478,0.07471
 250,0.32699922,-0.16588672,-0.00006306,-0.37409116,-0.00016292,-0.0000
 7339,-0.37425889,0.05593898,-0.25169395,-0.04589994,-0.02506554,-0.188
 44995,0.24976445,0.04808664,0.20695145,-0.24219923,-0.03436148,0.04807
 865,-0.00501620,0.03774173,-0.04699652,0.00682085,0.05598842,0.1656193
 8,-0.19502508,-0.01458138,-0.01346140,0.01912747,-0.02511146,0.1240078
 3,0.10026014,-0.13433067,0.02253709,-0.00385728,-0.00622992,-0.1361821
 2,-0.09607535,-0.14602029,-0.13432692,0.14442355,0.00626540,0.00943140
 ,0.00005290,0.16036172,0.13129268,-0.13924148,0.05601824,0.08612892,0.
 24106301,-0.01458755,-0.00584442,-0.02265251,-0.01459110,-0.00983280,-
 0.02122824,-0.02514173,0.06450466,0.01704465,0.08631578,0.02329739,-0.
 00231004,0.00534054,-0.01669514,0.00046609,-0.00693869,-0.07082713,-0.
 01474368,0.18054526,0.08632000,0.22782542,0.00209046,-0.01032578,-0.00
 148982,0.01638063,0.00872323,-0.00426314,-0.19823308,-0.08436728,-0.22
 076002,-0.00203659,0.00000044,-0.00000194,0.00272560,-0.00162247,-0.00
 029715,0.00272596,0.00106603,-0.00125774,0.00272718,0.00055424,0.00155
 186,0.00054013,-0.00000137,-0.00334438,-0.00000251,0.00074750,0.000876
 23,0.00012106,-0.00048698,0.00049612,-0.00034055,-0.00025317,0.0002840
 8,0.00022146,-0.00001435,0.00194050,-0.00000260,-0.00000248,-0.0033503
 6,0.00014395,0.00012312,0.00022820,0.00058496,-0.00034264,0.00060806,-
 0.00070840,0.00022147,0.00082487,-0.00004442,-0.00000052,0.00193936,-0
 .00002233,0.00000829,0.00002688,-0.00443012,0.00242678,0.00044193,-0.0
 0443044,-0.00159604,0.00187915,-0.00442505,-0.00083402,-0.00233512,-0.
 00668225,0.00000837,0.00002650,0.01999017,0.00000189,0.01036632,0.0000
 0415,-0.00183948,-0.00227414,-0.00031381,0.00120626,-0.00128972,0.0008
 8208,0.00062859,-0.00074110,-0.00057163,0.00001611,-0.00025253,0.00000
 105,-0.00001337,-0.00580883,0.00000203,0.00000415,0.01037649,-0.000341
 59,-0.00031887,-0.00059593,-0.00142970,0.00088733,-0.00157988,0.001759
 21,-0.00057183,-0.00213732,0.00004940,0.00000105,-0.00025011,-0.000039
 34,-0.00000184,-0.00581325,-0.13798143,-0.05575227,-0.29165133,-0.1304
 0961,-0.09278176,-0.54860133,0.03063734,-0.09308250,-0.01585153,-0.032
 33786,-0.06344831,0.15907664,0.02093158,0.06559976,-0.15960241,0.00570
 532,-0.03434348,0.01564679,0.00511588,0.00524710,0.01188109,0.03349207
 ,0.06837272,-0.07867660,0.00093156,0.00099859,0.00062561,-0.03513623,0
 .05872438,0.11784029,-0.11384088,0.00077833,0.00123438,-0.00323777,-0.
 05438003,-0.10550764,-0.04097107,-0.05454398,0.07680811,0.00098870,-0.
 00061423,-0.00560689,0.05286778,0.09654543,-0.06072770,0.07242071,0.08
 038517,0.22475484,0.00107967,-0.00356250,-0.01137931,0.00108350,-0.004
 76830,-0.01307017,-0.07339542,0.06064152,0.01433341,0.18507773,0.02702
 690,-0.00058668,0.03257094,-0.01545787,-0.01368981,-0.04160478,-0.0721
 8235,-0.00003793,0.16605963,0.18105604,0.45404778,0.00943938,-0.025410
 45,-0.02199042,0.02513468,0.02040445,-0.01021490,-0.20058426,-0.175548
 83,-0.42057309,-0.00056076,0.00046728,0.00109223,-0.00015892,-0.000364
 48,-0.00024643,-0.00008172,0.00009926,-0.00041011,0.00097317,-0.000005
 76,0.00002223,-0.00242636,0.00004053,0.00004904,-0.00035135,-0.0000055
 4,0.00003742,0.00000954,-0.00007745,-0.00001100,-0.00005989,0.00000700
 ,-0.00018389,0.00035604,0.00003121,-0.00020996,0.00009594,-0.00035148,
 -0.00092409,-0.00011968,0.00004521,-0.00004273,-0.00010239,-0.00009794
 ,0.00004017,0.00004547,0.00035861,0.00069158,0.00006479,-0.00005373,-0
 .00035860,0.00199208,-0.00039039,-0.00090934,-0.00015179,0.00077694,0.
 00017892,-0.00028918,-0.00045365,0.00059488,-0.00216163,-0.00002243,-0
 .00007165,0.00225460,0.00000425,0.00001586,-0.00164411,-0.00020584,0.0
 0035197,0.00096469,-0.00031696,-0.00015937,-0.00024633,0.00054404,0.00
 013377,0.00027746,0.00012098,0.00016491,-0.00085726,-0.00022750,0.0003
 1840,0.00009933,0.00008528,-0.00080967,-0.00048020,0.00096469,0.003022
 75,0.00042725,-0.00019922,0.00011216,0.00015092,0.00022671,-0.00029880
 ,0.00023343,-0.00085368,-0.00196096,-0.00052272,0.00009939,0.00059368,
 0.00019132,-0.00023789,-0.00146882,-0.13794656,0.05566989,-0.54856135,
 0.13028299,0.09277437,-0.29165757,0.06032203,-0.19366122,-0.03644064,-
 0.06149642,-0.13808363,0.38874140,0.08043412,0.16657830,-0.36213841,-0
 .04246017,0.13569864,-0.00496646,0.03723094,-0.10975844,0.02014496,0.0
 5752556,0.12033371,-0.14353310,0.00113000,-0.02074534,0.01934847,-0.05
 875058,0.07391046,0.11484315,-0.16939898,0.02715663,-0.01071707,-0.043
 75438,-0.09841404,-0.09133285,-0.11522209,-0.22869112,0.24895277,0.001
 95466,0.03536179,-0.01881949,0.12707156,0.19546602,-0.23209297,0.01866
 757,0.01772540,0.04984633,0.00098450,-0.00786911,-0.01428097,0.0009754
 6,-0.00265567,-0.01402962,-0.02057437,0.00833124,0.04288128,-0.0031969
 4,0.00014853,-0.01479427,0.01784689,-0.00106381,-0.01230358,-0.0026794
 4,-0.00725762,-0.01590834,0.02699463,0.00083085,0.04727146,-0.00233403
 ,-0.00591913,0.00347820,-0.00241351,0.01705260,0.00231508,-0.02177378,
 -0.01197359,-0.05323854,-0.00056257,-0.00046706,-0.00109474,0.00064917
 ,-0.00016177,0.00014849,0.00057227,0.00024538,0.00000126,-0.00048870,0
 .00018381,0.00047624,-0.00242723,-0.00003801,-0.00092241,0.00034882,-0
 .00005870,0.00057050,0.00015081,0.00012133,0.00011284,-0.00039309,0.00
 001635,0.00000317,-0.00006011,-0.00005137,-0.00035834,-0.00008769,0.00
 034883,0.00004433,0.00011069,0.00011920,-0.00021237,0.00005462,-0.0003
 5885,0.00021029,0.00002029,-0.00006281,-0.00014972,-0.00012723,0.00005
 415,-0.00020857,0.00199398,0.00039930,0.00093915,-0.00158929,0.0002815
 4,0.00001324,-0.00145270,-0.00024275,0.00022422,0.00043552,-0.00034215
 ,-0.00094955,0.00225707,0.00001040,0.00002933,-0.00164461,0.00021005,0
 .00301796,-0.00096139,-0.00016353,-0.00166217,-0.00018353,-0.00023186,
 -0.00060248,0.00093582,0.00004065,0.00012174,0.00006938,0.00025103,0.0
 0059422,-0.00010051,-0.00010634,-0.00146927,0.00049233,-0.00096157,0.0
 0035548,-0.00052162,-0.00023754,0.00037517,-0.00052804,0.00099359,-0.0
 0056570,0.00021775,0.00006588,0.00032352,0.00059598,-0.00010058,0.0003
 1604,-0.00025640,0.00024022,-0.00080451,0.03005442,0.00001823,0.066212
 89,0.00004976,-0.00002763,0.06614331,-0.01703821,-0.01578937,-0.002854
 36,0.01082764,0.00496616,-0.01452668,-0.00325176,-0.00088002,0.0114941
 3,0.00092334,-0.00325171,0.00270139,-0.00017705,0.00266781,-0.00264302
 ,-0.01703946,0.01040582,-0.01221363,0.00215133,-0.00211171,-0.00002265
 ,0.01082918,-0.00325517,-0.00442243,0.00908608,0.00161938,0.00023545,0
 .00026995,0.00056745,0.00320239,0.00386115,0.00908484,-0.00740645,-0.0
 0135565,0.00044594,0.00110860,-0.00069417,-0.00745443,0.00565055,-0.01
 698759,0.00540549,0.01512566,0.00215680,-0.00198484,-0.00071957,0.0021
 5677,0.00107913,-0.00181473,0.01085730,-0.00170087,0.00121820,-0.00582
 350,0.00101603,0.00058251,-0.00046098,0.00037916,0.00119681,0.00010927
 ,0.00031101,-0.00143797,-0.00476283,-0.00582229,-0.01299651,0.00183868
 ,-0.00064100,0.00076769,0.00206609,0.00028903,0.00015314,0.00087248,0.
 00477926,0.01022989,0.03754195,0.00001267,0.00003599,0.00358821,-0.000
 71504,-0.00013114,0.00358883,0.00046950,-0.00055437,0.00358244,0.00024
 404,0.00068358,6.78831665,0.00001540,-0.00109832,-0.00000771,-0.000150
 08,0.00035904,0.00007365,0.00010051,0.00013361,-0.00020700,0.00005162,
 0.00000418,0.00013949,0.00419232,-1.34028119,0.00004625,-0.00000767,-0
 .00111713,-0.00002434,0.00006810,-0.00002914,-0.00011393,-0.00020133,0
 .00019630,0.00014488,0.00013936,0.00034475,0.01222653,0.00000612,-1.34
 026536,-0.01653110,-0.00005283,-0.00014343,-0.00168577,0.00072546,0.00
 012706,-0.00168666,-0.00048030,0.00055777,-0.00176573,-0.00024937,-0.0
 0069800,-6.83661808,-0.00420976,-0.01227939,6.85828732,-0.00004374,-0.
 04738365,0.00002453,0.01418407,0.00185554,0.00070129,-0.00934122,-0.00
 034581,-0.00197863,-0.00486241,-0.00156372,0.00125549,-0.00420349,1.34
 088267,-0.00000458,0.00426679,-1.29344502,-0.00011767,0.00002448,-0.04
 732460,0.00257272,0.00071091,-0.00190553,0.01097829,-0.00198931,0.0002
 9786,-0.01360873,0.00125658,0.00150104,-0.01226060,-0.00000455,1.34087
 057,0.01243599,0.00000189,-1.29343933,-0.16234090,-0.00028672,1.535854
 26,-0.00087481,-0.00058252,1.53410485,0.05389425,0.64791344,0.11820609
 ,-0.08063546,0.60510105,-1.25481663,-0.28041267,-0.62309872,1.25262861
 ,0.11040880,-0.28044003,0.23112279,-0.11368234,0.28346668,-0.24948327,
 0.05373852,-0.42631704,0.50208583,0.01335977,0.01143431,-0.00742028,-0
 .08047942,-0.39814056,-0.38296662,0.78341203,-0.01355128,-0.00202712,0
 .02635242,0.40999134,0.37130348,0.46892567,0.78344508,-0.64043473,0.00
 150398,-0.01492780,0.01191504,-0.48286434,-0.79195714,0.63155018,0.053
 67605,-0.22131244,-0.61942577,0.01335287,0.00806382,0.01096878,0.01335
 250,0.00071393,0.01359818,-0.08040960,-0.20667652,0.10233883,-0.502417
 13,-0.01215043,0.00349637,-0.02950871,0.00547628,0.01336893,0.02379575
 ,0.21283836,-0.11930511,-0.57846905,-0.50242280,-1.12438407,-0.0061871
 1,0.01174437,0.00640046,-0.01248647,-0.01745152,-0.00347307,0.59570898
 ,0.50790432,1.12080498,0.00343025,-0.00000066,-0.00000205,-0.00002208,
 0.00100530,0.00018288,-0.00002211,-0.00066182,0.00077828,-0.00002547,-
 0.00034426,-0.00096361,0.04736916,0.00000319,-0.00054501,-0.00000054,-
 0.00027492,0.00001278,0.00000491,0.00018153,-0.00000781,-0.00001816,0.
 00009404,-0.00001956,0.00001412,0.00002145,-0.00828484,0.00000952,-0.0
 0000053,-0.00054640,-0.00004897,0.00000682,-0.00002384,-0.00021205,-0.
 00001995,-0.00000346,0.00026339,0.00001398,0.00001486,0.00006039,0.000
 00009,-0.00828453,-0.00239816,0.00000344,0.00001071,0.00005065,-0.0025
 0576,-0.00045782,0.00005072,0.00164838,-0.00194176,0.00005365,0.000856
 57,0.00239726,-0.05072973,-0.00002528,-0.00007227,0.05297284,-0.000000
 44,0.00013516,0.00000085,0.00116190,0.00070599,0.00012472,-0.00076641,
 0.00032916,-0.00033775,-0.00039770,0.00012056,0.00021151,-0.00002001,0
 .00884443,-0.00000042,0.00002266,-0.01013529,-0.00000014,0.00000081,0.
 00013759,0.00020837,0.00012259,0.00006882,0.00089733,-0.00033584,0.000
 44602,-0.00111355,0.00021178,0.00063683,-0.00005589,-0.00000042,0.0088
 4336,0.00006389,0.00000108,-0.01013261,-0.17915744,-0.47350937,2.60173
 678,-1.05375102,-0.71823294,0.53311567,0.09754932,1.13612769,0.2277481
 6,-0.09939298,1.12134215,-2.09263399,-0.53036485,-1.12156638,2.0765947
 7,0.22230544,-0.52293716,0.45816261,-0.21880907,0.53268244,-0.44888962
 ,0.08804988,-0.66708612,0.81977376,-0.00268889,0.00153466,-0.00167266,
 -0.09061471,-0.65884036,-0.49603262,1.23676767,-0.00353799,0.00490655,
 -0.00206985,0.66289305,0.48278180,0.80548665,1.22862381,-0.99525564,0.
 00002611,-0.00353740,-0.00418458,-0.80436975,-1.22356428,1.00147677,-0
 .00801057,0.00357052,0.00423078,0.00474395,-0.00002920,-0.00099246,0.0
 0546205,-0.00086323,0.00026297,-0.00202550,0.01124398,-0.01069383,0.01
 145885,-0.01140087,0.00983308,-0.00803504,0.00287238,0.00766484,-0.000
 94428,-0.00270342,-0.00736982,0.02648141,0.01217494,0.00528390,-0.0090
 4522,0.00113810,-0.00546938,-0.01400254,-0.01086014,-0.00295374,-0.003
 56814,-0.00228861,0.00299460,0.00038227,0.00008756,0.00019180,-0.00063
 273,-0.00023188,0.00010514,-0.00050588,0.00024237,-0.00004025,0.000803
 42,0.00000008,-0.00004030,-0.00001355,0.00022252,0.00140777,-0.0003127
 7,-0.00010545,-0.00075981,-0.00032203,0.00001843,-0.00026675,0.0005518
 4,-0.00003317,-0.00033529,0.00004538,-0.00010297,0.00016486,0.00049719
 ,-0.00031238,0.00050710,-0.00007534,-0.00001755,0.00005098,-0.00011478
 ,0.00021804,-0.00042732,-0.00007701,0.00007440,-0.00019314,-0.00023757
 ,-0.00002931,0.00008105,0.00118657,0.00080973,0.00180653,0.00042133,-0
 .00104934,-0.00093640,0.00029755,0.00010616,-0.00136573,-0.00097336,-0
 .00001216,0.00017478,-0.00003351,0.00000063,0.00000751,-0.00089860,-0.
 00045892,-0.00378411,0.00068405,0.00048301,0.00205938,0.00068164,-0.00
 023240,0.00094618,-0.00112970,0.00005850,0.00090103,-0.00020967,0.0000
 0484,-0.00021078,0.00006680,0.00014497,0.00008831,-0.00101967,0.000683
 73,-0.00181363,0.00015536,0.00009928,0.00032999,0.00038597,-0.00049145
 ,0.00134450,0.00014385,-0.00026532,0.00033776,0.00002118,0.00006690,-0
 .00001867,0.00031330,-0.00009313,-0.00017993,-0.17892434,0.47420821,0.
 53161205,1.05480771,0.71929981,2.60316019,0.02093964,0.31275162,0.0366
 1987,-0.02872012,0.29128652,-0.58607887,-0.08691135,-0.30798743,0.5936
 9479,0.03543280,-0.09432817,0.13352663,-0.04203273,0.08436597,-0.15010
 100,0.03011562,-0.28642075,0.30325558,0.00769068,0.00894707,-0.0025873
 0,-0.03717718,-0.27082567,-0.26390345,0.48786225,-0.00726803,-0.001520
 18,0.00881425,0.27789512,0.26939887,0.28944381,0.49599876,-0.33163327,
 0.00331887,-0.00341915,0.00731427,-0.30368409,-0.50046669,0.31744313,0
 .12629767,-0.49964471,-1.39269707,0.00027304,0.00833110,0.00869670,-0.
 00044291,-0.00067537,0.01095757,-0.12590694,-0.49491056,0.31967572,-1.
 11987911,0.00244970,-0.00654727,0.00134449,-0.00034957,-0.00455080,0.0
 0775348,0.49216333,-0.30899263,-1.38022465,-1.12059868,-2.40267831,0.0
 0209904,0.00588407,0.00872917,0.00295566,0.00395997,0.00638482,1.37352
 735,1.11030914,2.38604284,0.00038484,-0.00009040,-0.00020446,0.0004117
 4,-0.00000337,-0.00014685,0.00028542,-0.00008740,-0.00014161,-0.001034
 86,0.00007936,0.00026426,-0.00001235,-0.00021641,0.00050684,0.00031128
 ,0.00001965,-0.00034783,0.00014396,0.00003802,-0.00029596,-0.00006330,
 0.00006164,0.00007384,-0.00035408,0.00008457,0.00008351,-0.00047913,0.
 00031109,0.00140434,0.00006011,-0.00016000,-0.00023426,0.00004872,0.00
 027040,-0.00030197,0.00015718,-0.00038367,-0.00082224,0.00017993,0.000
 02886,0.00016644,0.00118658,-0.00080397,-0.00178164,-0.00059499,-0.000
 57389,0.00063738,-0.00047164,0.00096135,0.00010544,0.00081399,0.000567
 74,0.00137835,-0.00003479,0.00001253,0.00003320,-0.00089918,0.00045791
 ,-0.00181227,-0.00068287,0.00003449,0.00079933,-0.00034051,-0.00010988
 ,0.00087152,0.00019689,-0.00023599,0.00034114,0.00079956,0.00001723,-0
 .00002042,-0.00006667,-0.00016376,-0.00017930,0.00101946,-0.00068280,-
 0.00377955,-0.00006517,0.00024045,0.00076517,0.00001144,-0.00044018,0.
 00079302,-0.00064173,0.00085566,0.00234371,0.00004873,-0.00006673,-0.0
 0021231,-0.00037272,0.00009360,0.00008996\\@


 DIATOMIC MOLECULES ARE PECULIAR BECAUSE THEY ONLY HAVE TWO ENDS,
 AND THESE ENDS ARE VERY CLOSE TOGETHER.
 KLAUS RUEDENBERG, REV.MOD.PHYS. PG 176, 32, (1960)
 Job cpu time:       1 days 12 hours  1 minutes 16.4 seconds.
 Elapsed time:       0 days  1 hours  9 minutes 18.6 seconds.
 File lengths (MBytes):  RWF=   3376 Int=      0 D2E=      0 Chk=     48 Scr=      8
 Normal termination of Gaussian 16 at Mon Dec 20 14:33:02 2021.
