 Entering Gaussian System, Link 0=g16
 Input=hf_ome2_mp2_avtz_opt_anharm.gjf
 Output=hf_ome2_mp2_avtz_opt_anharm.log
 Initial command:
 /sw/contrib/gaussian/g16/A03/g16/l1.exe "/gscratch/scrubbed/gds001/Gau-4042.inp" -scrdir="/gscratch/scrubbed/gds001/"
 Entering Link 1 = /sw/contrib/gaussian/g16/A03/g16/l1.exe PID=      4044.
  
 Copyright (c) 1988,1990,1992,1993,1995,1998,2003,2009,2016,
            Gaussian, Inc.  All Rights Reserved.
  
 This is part of the Gaussian(R) 16 program.  It is based on
 the Gaussian(R) 09 system (copyright 2009, Gaussian, Inc.),
 the Gaussian(R) 03 system (copyright 2003, Gaussian, Inc.),
 the Gaussian(R) 98 system (copyright 1998, Gaussian, Inc.),
 the Gaussian(R) 94 system (copyright 1995, Gaussian, Inc.),
 the Gaussian 92(TM) system (copyright 1992, Gaussian, Inc.),
 the Gaussian 90(TM) system (copyright 1990, Gaussian, Inc.),
 the Gaussian 88(TM) system (copyright 1988, Gaussian, Inc.),
 the Gaussian 86(TM) system (copyright 1986, Carnegie Mellon
 University), and the Gaussian 82(TM) system (copyright 1983,
 Carnegie Mellon University). Gaussian is a federally registered
 trademark of Gaussian, Inc.
  
 This software contains proprietary and confidential information,
 including trade secrets, belonging to Gaussian, Inc.
  
 This software is provided under written license and may be
 used, copied, transmitted, or stored only in accord with that
 written license.
  
 The following legend is applicable only to US Government
 contracts under FAR:
  
                    RESTRICTED RIGHTS LEGEND
  
 Use, reproduction and disclosure by the US Government is
 subject to restrictions as set forth in subparagraphs (a)
 and (c) of the Commercial Computer Software - Restricted
 Rights clause in FAR 52.227-19.
  
 Gaussian, Inc.
 340 Quinnipiac St., Bldg. 40, Wallingford CT 06492
  
  
 ---------------------------------------------------------------
 Warning -- This program may not be used in any manner that
 competes with the business of Gaussian, Inc. or will provide
 assistance to any competitor of Gaussian, Inc.  The licensee
 of this program is prohibited from giving any competitor of
 Gaussian, Inc. access to this program.  By using this program,
 the user acknowledges that Gaussian, Inc. is engaged in the
 business of creating and licensing software in the field of
 computational chemistry and represents and warrants to the
 licensee that it is not a competitor of Gaussian, Inc. and that
 it will not use this program in any manner prohibited above.
 ---------------------------------------------------------------
  

 Cite this work as:
 Gaussian 16, Revision A.03,
 M. J. Frisch, G. W. Trucks, H. B. Schlegel, G. E. Scuseria, 
 M. A. Robb, J. R. Cheeseman, G. Scalmani, V. Barone, 
 G. A. Petersson, H. Nakatsuji, X. Li, M. Caricato, A. V. Marenich, 
 J. Bloino, B. G. Janesko, R. Gomperts, B. Mennucci, H. P. Hratchian, 
 J. V. Ortiz, A. F. Izmaylov, J. L. Sonnenberg, D. Williams-Young, 
 F. Ding, F. Lipparini, F. Egidi, J. Goings, B. Peng, A. Petrone, 
 T. Henderson, D. Ranasinghe, V. G. Zakrzewski, J. Gao, N. Rega, 
 G. Zheng, W. Liang, M. Hada, M. Ehara, K. Toyota, R. Fukuda, 
 J. Hasegawa, M. Ishida, T. Nakajima, Y. Honda, O. Kitao, H. Nakai, 
 T. Vreven, K. Throssell, J. A. Montgomery, Jr., J. E. Peralta, 
 F. Ogliaro, M. J. Bearpark, J. J. Heyd, E. N. Brothers, K. N. Kudin, 
 V. N. Staroverov, T. A. Keith, R. Kobayashi, J. Normand, 
 K. Raghavachari, A. P. Rendell, J. C. Burant, S. S. Iyengar, 
 J. Tomasi, M. Cossi, J. M. Millam, M. Klene, C. Adamo, R. Cammi, 
 J. W. Ochterski, R. L. Martin, K. Morokuma, O. Farkas, 
 J. B. Foresman, and D. J. Fox, Gaussian, Inc., Wallingford CT, 2016.
 
 ******************************************
 Gaussian 16:  ES64L-G16RevA.03 25-Dec-2016
                20-Dec-2021 
 ******************************************
 %nprocshared=28
 Will use up to   28 processors via shared memory.
 %mem=41GB
 ----------------------------------------------
 # MP2/aug-cc-pVTZ opt freq=(vibrot,anharmonic)
 ----------------------------------------------
 1/18=20,19=15,38=1,80=1/1,3;
 2/9=110,12=2,17=6,18=5,40=1/2;
 3/5=16,6=1,7=10,11=9,25=1,30=1,71=1/1,2,3;
 4//1;
 5/5=2,38=5/2;
 8/6=4,10=1/1;
 9/15=2,16=-3/6;
 10/5=1/2;
 6/7=2,8=2,9=2,10=2/1;
 7/12=2/1,2,3,16;
 1/18=20,19=15,80=1/3(2);
 2/9=110/2;
 99//99;
 2/9=110/2;
 3/5=16,6=1,7=10,11=9,25=1,30=1,71=1/1,2,3;
 4/5=5,16=3,69=1/1;
 5/5=2,38=5/2;
 8/6=4,10=1/1;
 9/15=2,16=-3/6;
 10/5=1/2;
 7/12=2/1,2,3,16;
 1/18=20,19=15,80=1/3(-8);
 2/9=110/2;
 6/7=2,8=2,9=2,10=2/1;
 99//99;
 ----
 bleh
 ----
 Symbolic Z-matrix:
 Charge =  0 Multiplicity = 1
 O                     0.35738  -0.00011  -0.43845 
 C                     0.94612  -1.18424   0.12075 
 C                     0.94398   1.18514   0.12067 
 H                    -1.24403  -0.00072  -0.16799 
 F                    -2.16435  -0.00082   0.07814 
 H                     0.43524   2.04045  -0.34095 
 H                     2.02133   1.21987  -0.11226 
 H                     0.80119   1.21114   1.21495 
 H                     0.43861  -2.04049  -0.34045 
 H                     0.80378  -1.2102    1.21509 
 H                     2.02343  -1.21726  -0.11256 
 
 Add virtual bond connecting atoms H4         and O1         Dist= 3.07D+00.

 GradGradGradGradGradGradGradGradGradGradGradGradGradGradGradGradGradGrad
 Berny optimization.
 Initialization pass.
                           ----------------------------
                           !    Initial Parameters    !
                           ! (Angstroms and Degrees)  !
 --------------------------                            --------------------------
 ! Name  Definition              Value          Derivative Info.                !
 --------------------------------------------------------------------------------
 ! R1    R(1,2)                  1.4358         estimate D2E/DX2                !
 ! R2    R(1,3)                  1.4358         estimate D2E/DX2                !
 ! R3    R(1,4)                  1.6241         estimate D2E/DX2                !
 ! R4    R(2,9)                  1.097          estimate D2E/DX2                !
 ! R5    R(2,10)                 1.1039         estimate D2E/DX2                !
 ! R6    R(2,11)                 1.1028         estimate D2E/DX2                !
 ! R7    R(3,6)                  1.097          estimate D2E/DX2                !
 ! R8    R(3,7)                  1.1028         estimate D2E/DX2                !
 ! R9    R(3,8)                  1.1039         estimate D2E/DX2                !
 ! R10   R(4,5)                  0.9527         estimate D2E/DX2                !
 ! A1    A(2,1,3)              111.2001         estimate D2E/DX2                !
 ! A2    A(2,1,4)              109.8251         estimate D2E/DX2                !
 ! A3    A(3,1,4)              109.7738         estimate D2E/DX2                !
 ! A4    A(1,2,9)              106.8757         estimate D2E/DX2                !
 ! A5    A(1,2,10)             110.6486         estimate D2E/DX2                !
 ! A6    A(1,2,11)             110.0518         estimate D2E/DX2                !
 ! A7    A(9,2,10)             109.8025         estimate D2E/DX2                !
 ! A8    A(9,2,11)             109.8538         estimate D2E/DX2                !
 ! A9    A(10,2,11)            109.5725         estimate D2E/DX2                !
 ! A10   A(1,3,6)              106.8753         estimate D2E/DX2                !
 ! A11   A(1,3,7)              110.0519         estimate D2E/DX2                !
 ! A12   A(1,3,8)              110.6479         estimate D2E/DX2                !
 ! A13   A(6,3,7)              109.8536         estimate D2E/DX2                !
 ! A14   A(6,3,8)              109.8033         estimate D2E/DX2                !
 ! A15   A(7,3,8)              109.5728         estimate D2E/DX2                !
 ! A16   L(1,4,5,6,-1)         179.4909         estimate D2E/DX2                !
 ! A17   L(1,4,5,6,-2)         186.9276         estimate D2E/DX2                !
 ! D1    D(3,1,2,9)            179.1148         estimate D2E/DX2                !
 ! D2    D(3,1,2,10)            59.6001         estimate D2E/DX2                !
 ! D3    D(3,1,2,11)           -61.6412         estimate D2E/DX2                !
 ! D4    D(4,1,2,9)             57.4086         estimate D2E/DX2                !
 ! D5    D(4,1,2,10)           -62.1061         estimate D2E/DX2                !
 ! D6    D(4,1,2,11)           176.6526         estimate D2E/DX2                !
 ! D7    D(2,1,3,6)           -179.1407         estimate D2E/DX2                !
 ! D8    D(2,1,3,7)             61.6156         estimate D2E/DX2                !
 ! D9    D(2,1,3,8)            -59.6257         estimate D2E/DX2                !
 ! D10   D(4,1,3,6)            -57.4047         estimate D2E/DX2                !
 ! D11   D(4,1,3,7)           -176.6483         estimate D2E/DX2                !
 ! D12   D(4,1,3,8)             62.1103         estimate D2E/DX2                !
 --------------------------------------------------------------------------------
 Trust Radius=3.00D-01 FncErr=1.00D-07 GrdErr=1.00D-07 EigMax=2.50D+02 EigMin=1.00D-04
 Number of steps in this run=     49 maximum allowed number of steps=    100.
 GradGradGradGradGradGradGradGradGradGradGradGradGradGradGradGradGradGrad

                          Input orientation:                          
 ---------------------------------------------------------------------
 Center     Atomic      Atomic             Coordinates (Angstroms)
 Number     Number       Type             X           Y           Z
 ---------------------------------------------------------------------
      1          8           0        0.357382   -0.000106   -0.438445
      2          6           0        0.946115   -1.184235    0.120751
      3          6           0        0.943976    1.185144    0.120665
      4          1           0       -1.244032   -0.000717   -0.167990
      5          9           0       -2.164351   -0.000822    0.078136
      6          1           0        0.435244    2.040445   -0.340951
      7          1           0        2.021327    1.219869   -0.112258
      8          1           0        0.801190    1.211143    1.214945
      9          1           0        0.438613   -2.040493   -0.340447
     10          1           0        0.803782   -1.210195    1.215091
     11          1           0        2.023434   -1.217255   -0.112561
 ---------------------------------------------------------------------
                    Distance matrix (angstroms):
                    1          2          3          4          5
     1  O    0.000000
     2  C    1.435781   0.000000
     3  C    1.435797   2.369380   0.000000
     4  H    1.624091   2.506158   2.505388   0.000000
     5  F    2.574101   3.328255   3.327164   0.952662   0.000000
     6  H    2.044362   3.297381   1.097013   2.648816   3.331711
     7  H    2.088887   2.643878   1.102789   3.486475   4.364199
     8  H    2.097090   2.637442   1.103863   2.750281   3.399357
     9  H    2.044353   1.097014   3.297385   2.649853   3.333300
    10  H    2.097086   1.103863   2.637247   2.751235   3.400745
    11  H    2.088871   1.102788   2.644077   3.487029   4.365045
                    6          7          8          9         10
     6  H    0.000000
     7  H    1.800362   0.000000
     8  H    1.800686   1.802853   0.000000
     9  H    4.080939   3.631393   3.622685   0.000000
    10  H    3.622671   3.024811   2.421339   1.800678   0.000000
    11  H    3.631407   2.437125   3.025437   1.800364   1.802848
                   11
    11  H    0.000000
 Stoichiometry    C2H7FO
 Framework group  C1[X(C2H7FO)]
 Deg. of freedom    27
 Full point group                 C1      NOp   1
 Largest Abelian subgroup         C1      NOp   1
 Largest concise Abelian subgroup C1      NOp   1
                         Standard orientation:                         
 ---------------------------------------------------------------------
 Center     Atomic      Atomic             Coordinates (Angstroms)
 Number     Number       Type             X           Y           Z
 ---------------------------------------------------------------------
      1          8           0        0.357382   -0.000106   -0.438445
      2          6           0        0.946115   -1.184235    0.120751
      3          6           0        0.943976    1.185144    0.120665
      4          1           0       -1.244032   -0.000717   -0.167990
      5          9           0       -2.164351   -0.000822    0.078136
      6          1           0        0.435244    2.040445   -0.340951
      7          1           0        2.021327    1.219869   -0.112258
      8          1           0        0.801190    1.211143    1.214945
      9          1           0        0.438613   -2.040493   -0.340447
     10          1           0        0.803782   -1.210195    1.215091
     11          1           0        2.023434   -1.217255   -0.112561
 ---------------------------------------------------------------------
 Rotational constants (GHZ):           9.2259320           3.8901919           2.9523306
 Standard basis: Aug-CC-pVTZ (5D, 7F)
 There are   395 symmetry adapted cartesian basis functions of A   symmetry.
 There are   345 symmetry adapted basis functions of A   symmetry.
   345 basis functions,   477 primitive gaussians,   395 cartesian basis functions
    18 alpha electrons       18 beta electrons
       nuclear repulsion energy       133.9965284620 Hartrees.
 NAtoms=   11 NActive=   11 NUniq=   11 SFac= 1.00D+00 NAtFMM=   60 NAOKFM=F Big=F
 Integral buffers will be    131072 words long.
 Raffenetti 1 integral format.
 Two-electron integral symmetry is turned on.
 One-electron integrals computed using PRISM.
 NBasis=   345 RedAO= T EigKep=  2.46D-05  NBF=   345
 NBsUse=   345 1.00D-06 EigRej= -1.00D+00 NBFU=   345
 ExpMin= 2.53D-02 ExpMax= 1.95D+04 ExpMxC= 6.65D+02 IAcc=3 IRadAn=         5 AccDes= 0.00D+00
 Harris functional with IExCor=  205 and IRadAn=       5 diagonalized for initial guess.
 HarFok:  IExCor=  205 AccDes= 0.00D+00 IRadAn=         5 IDoV= 1 UseB2=F ITyADJ=14
 ICtDFT=  3500011 ScaDFX=  1.000000  1.000000  1.000000  1.000000
 FoFCou: FMM=F IPFlag=           0 FMFlag=      100000 FMFlg1=           0
         NFxFlg=           0 DoJE=T BraDBF=F KetDBF=T FulRan=T
         wScrn=  0.000000 ICntrl=       500 IOpCl=  0 I1Cent=   200000004 NGrid=           0
         NMat0=    1 NMatS0=      1 NMatT0=    0 NMatD0=    1 NMtDS0=    0 NMtDT0=    0
 Petite list used in FoFCou.
 Keep R1 ints in memory in canonical form, NReq=1812230497.
 Requested convergence on RMS density matrix=1.00D-08 within 128 cycles.
 Requested convergence on MAX density matrix=1.00D-06.
 Requested convergence on             energy=1.00D-06.
 No special actions if energy rises.
 SCF Done:  E(RHF) =  -254.198307140     A.U. after   11 cycles
            NFock= 11  Conv=0.34D-08     -V/T= 2.0018
 ExpMin= 2.53D-02 ExpMax= 1.95D+04 ExpMxC= 6.65D+02 IAcc=3 IRadAn=         5 AccDes= 0.00D+00
 HarFok:  IExCor=  205 AccDes= 0.00D+00 IRadAn=         5 IDoV=-2 UseB2=F ITyADJ=14
 ICtDFT= 12500011 ScaDFX=  1.000000  1.000000  1.000000  1.000000
 Range of M.O.s used for correlation:     5   345
 NBasis=   345 NAE=    18 NBE=    18 NFC=     4 NFV=     0
 NROrb=    341 NOA=    14 NOB=    14 NVA=   327 NVB=   327

 **** Warning!!: The largest alpha MO coefficient is  0.40591307D+02

 Disk-based method using ON**2 memory for 14 occupieds at a time.
 Estimated scratch disk usage=  1585980770 words.
 Actual    scratch disk usage=  1493181794 words.
 JobTyp=1 Pass  1:  I=   5 to  18 NPSUse= 28 ParTrn=T ParDer=T DoDerP=T.
 (rs|ai) integrals will be sorted in core.
 Spin components of T(2) and E(2):
     alpha-alpha T2 =       0.2724324683D-01 E2=     -0.1057045427D+00
     alpha-beta  T2 =       0.1676963843D+00 E2=     -0.6856945708D+00
     beta-beta   T2 =       0.2724324683D-01 E2=     -0.1057045427D+00
 ANorm=    0.1105523803D+01
 E2 =    -0.8971036561D+00 EUMP2 =    -0.25509541079653D+03
          IDoAtm=11111111111
          Differentiating once with respect to electric field.
                with respect to dipole field.
          Differentiating once with respect to nuclear coordinates.
 Keep R1 ints in memory in canonical form, NReq=1812232568.
          There are     1 degrees of freedom in the 1st order CPHF.  IDoFFX=0 NUNeed=     1.
 LinEq1:  Iter=  0 NonCon=     1 RMS=2.52D-03 Max=2.71D-02 NDo=     1
 AX will form     1 AO Fock derivatives at one time.
 LinEq1:  Iter=  1 NonCon=     1 RMS=5.44D-04 Max=9.35D-03 NDo=     1
 LinEq1:  Iter=  2 NonCon=     1 RMS=1.47D-04 Max=1.41D-03 NDo=     1
 LinEq1:  Iter=  3 NonCon=     1 RMS=5.70D-05 Max=7.46D-04 NDo=     1
 LinEq1:  Iter=  4 NonCon=     1 RMS=1.89D-05 Max=2.58D-04 NDo=     1
 LinEq1:  Iter=  5 NonCon=     1 RMS=4.76D-06 Max=7.48D-05 NDo=     1
 LinEq1:  Iter=  6 NonCon=     1 RMS=1.70D-06 Max=2.83D-05 NDo=     1
 LinEq1:  Iter=  7 NonCon=     1 RMS=4.30D-07 Max=6.37D-06 NDo=     1
 LinEq1:  Iter=  8 NonCon=     1 RMS=9.25D-08 Max=1.61D-06 NDo=     1
 LinEq1:  Iter=  9 NonCon=     1 RMS=1.71D-08 Max=2.07D-07 NDo=     1
 LinEq1:  Iter= 10 NonCon=     1 RMS=3.24D-09 Max=3.96D-08 NDo=     1
 LinEq1:  Iter= 11 NonCon=     1 RMS=4.55D-10 Max=4.43D-09 NDo=     1
 LinEq1:  Iter= 12 NonCon=     1 RMS=1.01D-10 Max=1.86D-09 NDo=     1
 LinEq1:  Iter= 13 NonCon=     0 RMS=1.97D-11 Max=2.56D-10 NDo=     1
 Linear equations converged to 1.000D-10 1.000D-09 after    13 iterations.
 End of Minotr F.D. properties file   721 does not exist.
 End of Minotr F.D. properties file   722 does not exist.
 End of Minotr F.D. properties file   788 does not exist.

 **********************************************************************

            Population analysis using the SCF density.

 **********************************************************************

 Orbital symmetries:
       Occupied  (A) (A) (A) (A) (A) (A) (A) (A) (A) (A) (A) (A)
                 (A) (A) (A) (A) (A) (A)
       Virtual   (A) (A) (A) (A) (A) (A) (A) (A) (A) (A) (A) (A)
                 (A) (A) (A) (A) (A) (A) (A) (A) (A) (A) (A) (A)
                 (A) (A) (A) (A) (A) (A) (A) (A) (A) (A) (A) (A)
                 (A) (A) (A) (A) (A) (A) (A) (A) (A) (A) (A) (A)
                 (A) (A) (A) (A) (A) (A) (A) (A) (A) (A) (A) (A)
                 (A) (A) (A) (A) (A) (A) (A) (A) (A) (A) (A) (A)
                 (A) (A) (A) (A) (A) (A) (A) (A) (A) (A) (A) (A)
                 (A) (A) (A) (A) (A) (A) (A) (A) (A) (A) (A) (A)
                 (A) (A) (A) (A) (A) (A) (A) (A) (A) (A) (A) (A)
                 (A) (A) (A) (A) (A) (A) (A) (A) (A) (A) (A) (A)
                 (A) (A) (A) (A) (A) (A) (A) (A) (A) (A) (A) (A)
                 (A) (A) (A) (A) (A) (A) (A) (A) (A) (A) (A) (A)
                 (A) (A) (A) (A) (A) (A) (A) (A) (A) (A) (A) (A)
                 (A) (A) (A) (A) (A) (A) (A) (A) (A) (A) (A) (A)
                 (A) (A) (A) (A) (A) (A) (A) (A) (A) (A) (A) (A)
                 (A) (A) (A) (A) (A) (A) (A) (A) (A) (A) (A) (A)
                 (A) (A) (A) (A) (A) (A) (A) (A) (A) (A) (A) (A)
                 (A) (A) (A) (A) (A) (A) (A) (A) (A) (A) (A) (A)
                 (A) (A) (A) (A) (A) (A) (A) (A) (A) (A) (A) (A)
                 (A) (A) (A) (A) (A) (A) (A) (A) (A) (A) (A) (A)
                 (A) (A) (A) (A) (A) (A) (A) (A) (A) (A) (A) (A)
                 (A) (A) (A) (A) (A) (A) (A) (A) (A) (A) (A) (A)
                 (A) (A) (A) (A) (A) (A) (A) (A) (A) (A) (A) (A)
                 (A) (A) (A) (A) (A) (A) (A) (A) (A) (A) (A) (A)
                 (A) (A) (A) (A) (A) (A) (A) (A) (A) (A) (A) (A)
                 (A) (A) (A) (A) (A) (A) (A) (A) (A) (A) (A) (A)
                 (A) (A) (A) (A) (A) (A) (A) (A) (A) (A) (A) (A)
                 (A) (A) (A)
 The electronic state is 1-A.
 Alpha  occ. eigenvalues --  -26.23823 -20.59862 -11.29828 -11.29826  -1.53986
 Alpha  occ. eigenvalues --   -1.40139  -0.98939  -0.90317  -0.73701  -0.67920
 Alpha  occ. eigenvalues --   -0.66094  -0.65969  -0.59459  -0.59393  -0.57433
 Alpha  occ. eigenvalues --   -0.54985  -0.51774  -0.46463
 Alpha virt. eigenvalues --    0.02463   0.03692   0.04194   0.04662   0.06031
 Alpha virt. eigenvalues --    0.06133   0.07891   0.09092   0.11809   0.12047
 Alpha virt. eigenvalues --    0.13080   0.13543   0.13722   0.15185   0.16203
 Alpha virt. eigenvalues --    0.16540   0.19111   0.19645   0.22019   0.22054
 Alpha virt. eigenvalues --    0.22737   0.22995   0.24773   0.26617   0.27551
 Alpha virt. eigenvalues --    0.28853   0.30381   0.30482   0.31745   0.32178
 Alpha virt. eigenvalues --    0.33782   0.33938   0.34490   0.35555   0.35763
 Alpha virt. eigenvalues --    0.36119   0.36552   0.37296   0.39072   0.40593
 Alpha virt. eigenvalues --    0.41057   0.41212   0.41741   0.44093   0.44617
 Alpha virt. eigenvalues --    0.44827   0.45209   0.45950   0.46609   0.47636
 Alpha virt. eigenvalues --    0.48577   0.49321   0.50631   0.50761   0.51793
 Alpha virt. eigenvalues --    0.52607   0.55094   0.55302   0.56157   0.57173
 Alpha virt. eigenvalues --    0.58896   0.64391   0.65950   0.66735   0.67276
 Alpha virt. eigenvalues --    0.68650   0.75366   0.76196   0.78931   0.78981
 Alpha virt. eigenvalues --    0.79508   0.79633   0.81775   0.82824   0.83965
 Alpha virt. eigenvalues --    0.84463   0.85336   0.87374   0.88395   0.89906
 Alpha virt. eigenvalues --    0.90879   0.91010   0.92402   0.93728   0.94859
 Alpha virt. eigenvalues --    0.95900   0.95990   0.96207   0.98725   0.99614
 Alpha virt. eigenvalues --    1.01030   1.03330   1.04411   1.06636   1.07621
 Alpha virt. eigenvalues --    1.07869   1.08311   1.11492   1.11838   1.12057
 Alpha virt. eigenvalues --    1.13416   1.15141   1.16927   1.18553   1.18634
 Alpha virt. eigenvalues --    1.19958   1.20688   1.21072   1.21598   1.22235
 Alpha virt. eigenvalues --    1.24585   1.26348   1.28471   1.30243   1.30531
 Alpha virt. eigenvalues --    1.33796   1.34360   1.35255   1.36383   1.39946
 Alpha virt. eigenvalues --    1.42129   1.43265   1.44603   1.45641   1.48617
 Alpha virt. eigenvalues --    1.51021   1.53172   1.53492   1.55476   1.58123
 Alpha virt. eigenvalues --    1.59044   1.59584   1.61445   1.63106   1.63409
 Alpha virt. eigenvalues --    1.63856   1.64676   1.65790   1.67488   1.69565
 Alpha virt. eigenvalues --    1.70518   1.73719   1.74324   1.75936   1.77290
 Alpha virt. eigenvalues --    1.80177   1.80566   1.81805   1.85558   1.87387
 Alpha virt. eigenvalues --    1.87963   1.92408   1.93063   1.96269   1.99208
 Alpha virt. eigenvalues --    2.01960   2.03669   2.03857   2.07322   2.12410
 Alpha virt. eigenvalues --    2.13538   2.14788   2.16100   2.17912   2.18503
 Alpha virt. eigenvalues --    2.23258   2.23793   2.28263   2.30958   2.35920
 Alpha virt. eigenvalues --    2.37418   2.39541   2.48032   2.59427   2.64777
 Alpha virt. eigenvalues --    2.66740   2.69276   2.76333   2.77740   2.80190
 Alpha virt. eigenvalues --    2.89444   2.90153   2.93734   2.93854   2.98701
 Alpha virt. eigenvalues --    2.99350   3.02112   3.02964   3.05243   3.07015
 Alpha virt. eigenvalues --    3.16376   3.18283   3.18710   3.22424   3.23089
 Alpha virt. eigenvalues --    3.25392   3.32123   3.36103   3.37787   3.41599
 Alpha virt. eigenvalues --    3.44660   3.50528   3.53255   3.55963   3.58211
 Alpha virt. eigenvalues --    3.61023   3.61309   3.66290   3.67690   3.69430
 Alpha virt. eigenvalues --    3.71271   3.74292   3.75141   3.76626   3.77985
 Alpha virt. eigenvalues --    3.79707   3.87325   3.88091   3.90379   3.94473
 Alpha virt. eigenvalues --    3.96017   3.96256   3.97618   4.00925   4.03535
 Alpha virt. eigenvalues --    4.06756   4.10080   4.11280   4.12436   4.13651
 Alpha virt. eigenvalues --    4.16439   4.16785   4.19243   4.21288   4.23218
 Alpha virt. eigenvalues --    4.26674   4.27446   4.32897   4.33152   4.33546
 Alpha virt. eigenvalues --    4.39318   4.45014   4.46392   4.52065   4.52196
 Alpha virt. eigenvalues --    4.54722   4.57234   4.57451   4.64013   4.66004
 Alpha virt. eigenvalues --    4.67872   4.71400   4.71659   4.76727   4.76853
 Alpha virt. eigenvalues --    4.78251   4.83594   4.86208   4.98370   5.00576
 Alpha virt. eigenvalues --    5.00969   5.02545   5.04383   5.07652   5.12823
 Alpha virt. eigenvalues --    5.14156   5.15231   5.18738   5.22848   5.24251
 Alpha virt. eigenvalues --    5.32285   5.32702   5.33413   5.43978   5.52310
 Alpha virt. eigenvalues --    5.54298   5.57855   5.63459   5.65454   5.66227
 Alpha virt. eigenvalues --    5.68732   5.70973   5.74464   5.90871   5.98313
 Alpha virt. eigenvalues --    6.01634   6.02155   6.03363   6.06999   6.13406
 Alpha virt. eigenvalues --    6.14035   6.26704   6.31774   6.58558   6.64347
 Alpha virt. eigenvalues --    6.66042   6.68603   6.77087   7.09466   7.20268
 Alpha virt. eigenvalues --    7.24820   7.25711   7.39131   7.41935   7.65815
 Alpha virt. eigenvalues --    7.66145   7.86525   7.87352   8.06490   8.33314
 Alpha virt. eigenvalues --    8.35692   8.88927   8.89106   9.10471   9.12106
 Alpha virt. eigenvalues --    9.44392   9.45724   9.49916   9.54238   9.72033
 Alpha virt. eigenvalues --    9.76264   9.77343   9.99994  15.17521  16.17017
 Alpha virt. eigenvalues --   17.88341  17.89984
          Condensed to atoms (all electrons):
               1          2          3          4          5          6
     1  O    8.247275   0.098065   0.098040  -0.026299  -0.082805   0.025828
     2  C    0.098065   5.562129   0.005430  -0.006656   0.007406  -0.004777
     3  C    0.098040   0.005430   5.562134  -0.006646   0.007389   0.348527
     4  H   -0.026299  -0.006656  -0.006646   0.495879   0.165927   0.003165
     5  F   -0.082805   0.007406   0.007389   0.165927   9.380006   0.003796
     6  H    0.025828  -0.004777   0.348527   0.003165   0.003796   0.239725
     7  H   -0.012714   0.002552   0.388126   0.001129   0.001102   0.013458
     8  H    0.014125   0.001339   0.367974   0.000366  -0.000873   0.014437
     9  H    0.025881   0.348573  -0.004785   0.003160   0.003772  -0.002172
    10  H    0.014071   0.368023   0.001357   0.000384  -0.000891  -0.000087
    11  H   -0.012712   0.388087   0.002541   0.001125   0.001100   0.000760
               7          8          9         10         11
     1  O   -0.012714   0.014125   0.025881   0.014071  -0.012712
     2  C    0.002552   0.001339   0.348573   0.368023   0.388087
     3  C    0.388126   0.367974  -0.004785   0.001357   0.002541
     4  H    0.001129   0.000366   0.003160   0.000384   0.001125
     5  F    0.001102  -0.000873   0.003772  -0.000891   0.001100
     6  H    0.013458   0.014437  -0.002172  -0.000087   0.000760
     7  H    0.268416   0.001479   0.000759  -0.003843   0.005445
     8  H    0.001479   0.266497  -0.000084   0.006798  -0.003853
     9  H    0.000759  -0.000084   0.239739   0.014445   0.013444
    10  H   -0.003843   0.006798   0.014445   0.266468   0.001473
    11  H    0.005445  -0.003853   0.013444   0.001473   0.268418
 Mulliken charges:
               1
     1  O   -0.388753
     2  C   -0.770171
     3  C   -0.770088
     4  H    0.368467
     5  F   -0.485929
     6  H    0.357342
     7  H    0.334091
     8  H    0.331795
     9  H    0.357270
    10  H    0.331802
    11  H    0.334173
 Sum of Mulliken charges =  -0.00000
 Mulliken charges with hydrogens summed into heavy atoms:
               1
     1  O   -0.388753
     2  C    0.253075
     3  C    0.253140
     5  F   -0.117462
 Electronic spatial extent (au):  <R**2>=            420.9534
 Charge=             -0.0000 electrons
 Dipole moment (field-independent basis, Debye):
    X=              4.1914    Y=              0.0018    Z=              0.6023  Tot=              4.2344
 Quadrupole moment (field-independent basis, Debye-Ang):
   XX=            -31.4731   YY=            -21.8665   ZZ=            -25.9453
   XY=             -0.0046   XZ=              1.0007   YZ=             -0.0000
 Traceless Quadrupole moment (field-independent basis, Debye-Ang):
   XX=             -5.0448   YY=              4.5618   ZZ=              0.4830
   XY=             -0.0046   XZ=              1.0007   YZ=             -0.0000
 Octapole moment (field-independent basis, Debye-Ang**2):
  XXX=              9.1144  YYY=             -0.0049  ZZZ=              0.8689  XYY=             -2.2502
  XXY=              0.0033  XXZ=             -2.1100  XZZ=             -4.4994  YZZ=             -0.0014
  YYZ=             -1.5942  XYZ=             -0.0003
 Hexadecapole moment (field-independent basis, Debye-Ang**3):
 XXXX=           -309.2242 YYYY=           -160.4366 ZZZZ=            -43.6664 XXXY=             -0.0025
 XXXZ=             -3.0616 YYYX=              0.0040 YYYZ=              0.0012 ZZZX=             -0.4294
 ZZZY=             -0.0003 XXYY=            -73.9618 XXZZ=            -55.3470 YYZZ=            -34.9201
 XXYZ=             -0.0018 YYXZ=              0.0796 ZZXY=              0.0012
 N-N= 1.339965284620D+02 E-N=-8.695308445217D+02  KE= 2.537393491134D+02
 Calling FoFJK, ICntrl=  10002127 FMM=F ISym2X=0 I1Cent= 0 IOpClX= 0 NMat=1 NMatS=1 NMatT=0.
 ***** Axes restored to original set *****
 -------------------------------------------------------------------
 Center     Atomic                   Forces (Hartrees/Bohr)
 Number     Number              X              Y              Z
 -------------------------------------------------------------------
      1        8           0.005317710    0.000014640    0.006272330
      2        6           0.000015141   -0.000123051   -0.000383850
      3        6           0.000024384    0.000118957   -0.000387922
      4        1          -0.002647547   -0.000006903    0.000839849
      5        9           0.003136400    0.000001165   -0.000994455
      6        1           0.003511153   -0.005991155    0.003264376
      7        1          -0.007281764   -0.000463016    0.001528322
      8        1           0.000852732   -0.000397481   -0.007465355
      9        1           0.003504144    0.005997953    0.003260143
     10        1           0.000848763    0.000396836   -0.007464918
     11        1          -0.007281117    0.000452055    0.001531481
 -------------------------------------------------------------------
 Cartesian Forces:  Max     0.007465355 RMS     0.003603906

 GradGradGradGradGradGradGradGradGradGradGradGradGradGradGradGradGradGrad
 Berny optimization.
 FormGI is forming the generalized inverse of G from B-inverse, IUseBI=4.
 Internal  Forces:  Max     0.007932954 RMS     0.003512846
 Search for a local minimum.
 Step number   1 out of a maximum of   49
 All quantities printed in internal units (Hartrees-Bohrs-Radians)
 Mixed Optimization -- RFO/linear search
 Second derivative matrix not updated -- first step.
 ITU=  0
     Eigenvalues ---    0.01218   0.01218   0.01390   0.01390   0.03211
     Eigenvalues ---    0.07640   0.07640   0.08026   0.08026   0.08644
     Eigenvalues ---    0.11015   0.16000   0.16000   0.16000   0.16000
     Eigenvalues ---    0.16000   0.16000   0.23373   0.33259   0.33259
     Eigenvalues ---    0.33376   0.33376   0.34015   0.34015   0.40167
     Eigenvalues ---    0.40170   0.57082
 RFO step:  Lambda=-1.36446505D-03 EMin= 1.21824987D-02
 Linear search not attempted -- first point.
 Iteration  1 RMS(Cart)=  0.01537116 RMS(Int)=  0.00003089
 Iteration  2 RMS(Cart)=  0.00005591 RMS(Int)=  0.00000152
 Iteration  3 RMS(Cart)=  0.00000000 RMS(Int)=  0.00000152
 Variable       Old X    -DE/DX   Delta X   Delta X   Delta X     New X
                                 (Linear)    (Quad)   (Total)
    R1        2.71323  -0.00793   0.00000  -0.01968  -0.01968   2.69356
    R2        2.71326  -0.00793   0.00000  -0.01968  -0.01968   2.69358
    R3        3.06909  -0.00050   0.00000  -0.00575  -0.00575   3.06334
    R4        2.07306  -0.00767   0.00000  -0.02247  -0.02247   2.05059
    R5        2.08600  -0.00752   0.00000  -0.02252  -0.02252   2.06348
    R6        2.08397  -0.00745   0.00000  -0.02223  -0.02223   2.06173
    R7        2.07305  -0.00768   0.00000  -0.02248  -0.02248   2.05058
    R8        2.08397  -0.00745   0.00000  -0.02223  -0.02223   2.06174
    R9        2.08600  -0.00752   0.00000  -0.02252  -0.02252   2.06348
   R10        1.80027  -0.00329   0.00000  -0.00574  -0.00574   1.79453
    A1        1.94081  -0.00118   0.00000  -0.00464  -0.00464   1.93617
    A2        1.91681   0.00041   0.00000   0.00268   0.00269   1.91950
    A3        1.91592   0.00044   0.00000   0.00288   0.00289   1.91880
    A4        1.86533   0.00011   0.00000   0.00099   0.00099   1.86633
    A5        1.93118  -0.00036   0.00000  -0.00246  -0.00246   1.92872
    A6        1.92077  -0.00027   0.00000  -0.00169  -0.00169   1.91907
    A7        1.91641   0.00012   0.00000   0.00077   0.00077   1.91719
    A8        1.91731   0.00017   0.00000   0.00158   0.00158   1.91889
    A9        1.91240   0.00022   0.00000   0.00082   0.00082   1.91322
   A10        1.86533   0.00011   0.00000   0.00099   0.00099   1.86632
   A11        1.92077  -0.00027   0.00000  -0.00169  -0.00169   1.91908
   A12        1.93117  -0.00035   0.00000  -0.00245  -0.00246   1.92871
   A13        1.91731   0.00017   0.00000   0.00158   0.00158   1.91888
   A14        1.91643   0.00012   0.00000   0.00078   0.00078   1.91721
   A15        1.91241   0.00022   0.00000   0.00082   0.00082   1.91323
   A16        3.13271   0.00003   0.00000   0.00220   0.00220   3.13491
   A17        3.26250  -0.00021   0.00000  -0.01368  -0.01368   3.24883
    D1        3.12614  -0.00001   0.00000   0.00113   0.00113   3.12727
    D2        1.04022  -0.00002   0.00000   0.00098   0.00098   1.04120
    D3       -1.07584   0.00011   0.00000   0.00268   0.00268  -1.07317
    D4        1.00197  -0.00006   0.00000  -0.00125  -0.00125   1.00072
    D5       -1.08396  -0.00006   0.00000  -0.00140  -0.00140  -1.08535
    D6        3.08317   0.00007   0.00000   0.00030   0.00030   3.08347
    D7       -3.12660   0.00002   0.00000  -0.00106  -0.00106  -3.12765
    D8        1.07540  -0.00011   0.00000  -0.00260  -0.00259   1.07280
    D9       -1.04066   0.00003   0.00000  -0.00090  -0.00090  -1.04157
   D10       -1.00190   0.00005   0.00000   0.00121   0.00121  -1.00070
   D11       -3.08310  -0.00007   0.00000  -0.00033  -0.00033  -3.08343
   D12        1.08403   0.00006   0.00000   0.00136   0.00136   1.08539
         Item               Value     Threshold  Converged?
 Maximum Force            0.007933     0.000450     NO 
 RMS     Force            0.003513     0.000300     NO 
 Maximum Displacement     0.033316     0.001800     NO 
 RMS     Displacement     0.015353     0.001200     NO 
 Predicted change in Energy=-6.850515D-04
 GradGradGradGradGradGradGradGradGradGradGradGradGradGradGradGradGradGrad

                          Input orientation:                          
 ---------------------------------------------------------------------
 Center     Atomic      Atomic             Coordinates (Angstroms)
 Number     Number       Type             X           Y           Z
 ---------------------------------------------------------------------
      1          8           0        0.357466    0.000046   -0.433752
      2          6           0        0.945631   -1.173691    0.121299
      3          6           0        0.943793    1.174761    0.121206
      4          1           0       -1.240919   -0.000554   -0.163626
      5          9           0       -2.160954   -0.001674    0.071572
      6          1           0        0.441930    2.023099   -0.332597
      7          1           0        2.009308    1.204638   -0.111427
      8          1           0        0.804134    1.197118    1.203953
      9          1           0        0.444835   -2.022863   -0.332139
     10          1           0        0.806338   -1.196001    1.204096
     11          1           0        2.011116   -1.202101   -0.111648
 ---------------------------------------------------------------------
                    Distance matrix (angstroms):
                    1          2          3          4          5
     1  O    0.000000
     2  C    1.425370   0.000000
     3  C    1.425382   2.348452   0.000000
     4  H    1.621051   2.497686   2.497091   0.000000
     5  F    2.568617   3.320687   3.320530   0.949622   0.000000
     6  H    2.027341   3.267905   1.085119   2.637368   3.322358
     7  H    2.069666   2.615726   1.091023   3.466871   4.345085
     8  H    2.077155   2.610153   1.091946   2.736227   3.392807
     9  H    2.027343   1.085124   3.267916   2.638162   3.322397
    10  H    2.077152   1.091948   2.609991   2.736973   3.393206
    11  H    2.069654   1.091023   2.615888   3.467298   4.345200
                    6          7          8          9         10
     6  H    0.000000
     7  H    1.781984   0.000000
     8  H    1.781691   1.784019   0.000000
     9  H    4.045963   3.593474   3.585659   0.000000
    10  H    3.585641   2.990118   2.393120   1.781685   0.000000
    11  H    3.593477   2.406740   2.990629   1.781994   1.784015
                   11
    11  H    0.000000
 Stoichiometry    C2H7FO
 Framework group  C1[X(C2H7FO)]
 Deg. of freedom    27
 Full point group                 C1      NOp   1
 Largest Abelian subgroup         C1      NOp   1
 Largest concise Abelian subgroup C1      NOp   1
                         Standard orientation:                         
 ---------------------------------------------------------------------
 Center     Atomic      Atomic             Coordinates (Angstroms)
 Number     Number       Type             X           Y           Z
 ---------------------------------------------------------------------
      1          8           0        0.355770   -0.000026   -0.434193
      2          6           0        0.944491   -1.174157    0.119435
      3          6           0        0.944142    1.174296    0.119431
      4          1           0       -1.241978    0.000376   -0.160318
      5          9           0       -2.161458   -0.000170    0.077037
      6          1           0        0.441753    2.022969   -0.333163
      7          1           0        2.009126    1.203507   -0.115699
      8          1           0        0.807037    1.196701    1.202504
      9          1           0        0.442095   -2.022994   -0.332857
     10          1           0        0.807725   -1.196419    1.202555
     11          1           0        2.009409   -1.203233   -0.116012
 ---------------------------------------------------------------------
 Rotational constants (GHZ):           9.4008688           3.9057195           2.9741112
 Standard basis: Aug-CC-pVTZ (5D, 7F)
 There are   395 symmetry adapted cartesian basis functions of A   symmetry.
 There are   345 symmetry adapted basis functions of A   symmetry.
   345 basis functions,   477 primitive gaussians,   395 cartesian basis functions
    18 alpha electrons       18 beta electrons
       nuclear repulsion energy       134.8571497520 Hartrees.
 NAtoms=   11 NActive=   11 NUniq=   11 SFac= 1.00D+00 NAtFMM=   60 NAOKFM=F Big=F
 Integral buffers will be    131072 words long.
 Raffenetti 1 integral format.
 Two-electron integral symmetry is turned on.
 One-electron integrals computed using PRISM.
 NBasis=   345 RedAO= T EigKep=  2.25D-05  NBF=   345
 NBsUse=   345 1.00D-06 EigRej= -1.00D+00 NBFU=   345
 Initial guess from the checkpoint file:  "/gscratch/scrubbed/gds001/Gau-4044.chk"
 B after Tr=    -0.000000   -0.000000   -0.000000
         Rot=    1.000000   -0.000031   -0.000253    0.000243 Ang=  -0.04 deg.
 ExpMin= 2.53D-02 ExpMax= 1.95D+04 ExpMxC= 6.65D+02 IAcc=3 IRadAn=         5 AccDes= 0.00D+00
 Harris functional with IExCor=  205 and IRadAn=       5 diagonalized for initial guess.
 HarFok:  IExCor=  205 AccDes= 0.00D+00 IRadAn=         5 IDoV= 1 UseB2=F ITyADJ=14
 ICtDFT=  3500011 ScaDFX=  1.000000  1.000000  1.000000  1.000000
 FoFCou: FMM=F IPFlag=           0 FMFlag=      100000 FMFlg1=           0
         NFxFlg=           0 DoJE=T BraDBF=F KetDBF=T FulRan=T
         wScrn=  0.000000 ICntrl=       500 IOpCl=  0 I1Cent=   200000004 NGrid=           0
         NMat0=    1 NMatS0=      1 NMatT0=    0 NMatD0=    1 NMtDS0=    0 NMtDT0=    0
 Petite list used in FoFCou.
 Keep R1 ints in memory in canonical form, NReq=1812230497.
 Requested convergence on RMS density matrix=1.00D-08 within 128 cycles.
 Requested convergence on MAX density matrix=1.00D-06.
 Requested convergence on             energy=1.00D-06.
 No special actions if energy rises.
 SCF Done:  E(RHF) =  -254.200342404     A.U. after    9 cycles
            NFock=  9  Conv=0.26D-08     -V/T= 2.0012
 ExpMin= 2.53D-02 ExpMax= 1.95D+04 ExpMxC= 6.65D+02 IAcc=3 IRadAn=         5 AccDes= 0.00D+00
 HarFok:  IExCor=  205 AccDes= 0.00D+00 IRadAn=         5 IDoV=-2 UseB2=F ITyADJ=14
 ICtDFT= 12500011 ScaDFX=  1.000000  1.000000  1.000000  1.000000
 Range of M.O.s used for correlation:     5   345
 NBasis=   345 NAE=    18 NBE=    18 NFC=     4 NFV=     0
 NROrb=    341 NOA=    14 NOB=    14 NVA=   327 NVB=   327

 **** Warning!!: The largest alpha MO coefficient is  0.40293306D+02

 Disk-based method using ON**2 memory for 14 occupieds at a time.
 Estimated scratch disk usage=  1586045060 words.
 Actual    scratch disk usage=  1493246084 words.
 JobTyp=1 Pass  1:  I=   5 to  18 NPSUse= 28 ParTrn=T ParDer=T DoDerP=T.
 (rs|ai) integrals will be sorted in core.
 Spin components of T(2) and E(2):
     alpha-alpha T2 =       0.2703615952D-01 E2=     -0.1056421093D+00
     alpha-beta  T2 =       0.1659334083D+00 E2=     -0.6844596184D+00
     beta-beta   T2 =       0.2703615952D-01 E2=     -0.1056421093D+00
 ANorm=    0.1104538694D+01
 E2 =    -0.8957438370D+00 EUMP2 =    -0.25509608624086D+03
          IDoAtm=11111111111
          Differentiating once with respect to electric field.
                with respect to dipole field.
          Differentiating once with respect to nuclear coordinates.
 Keep R1 ints in memory in canonical form, NReq=1812232568.
          There are     1 degrees of freedom in the 1st order CPHF.  IDoFFX=0 NUNeed=     1.
 LinEq1:  Iter=  0 NonCon=     1 RMS=2.49D-03 Max=2.74D-02 NDo=     1
 AX will form     1 AO Fock derivatives at one time.
 LinEq1:  Iter=  1 NonCon=     1 RMS=5.28D-04 Max=8.65D-03 NDo=     1
 LinEq1:  Iter=  2 NonCon=     1 RMS=1.42D-04 Max=1.38D-03 NDo=     1
 LinEq1:  Iter=  3 NonCon=     1 RMS=5.43D-05 Max=6.96D-04 NDo=     1
 LinEq1:  Iter=  4 NonCon=     1 RMS=1.80D-05 Max=2.44D-04 NDo=     1
 LinEq1:  Iter=  5 NonCon=     1 RMS=4.43D-06 Max=6.96D-05 NDo=     1
 LinEq1:  Iter=  6 NonCon=     1 RMS=1.58D-06 Max=2.57D-05 NDo=     1
 LinEq1:  Iter=  7 NonCon=     1 RMS=4.09D-07 Max=5.88D-06 NDo=     1
 LinEq1:  Iter=  8 NonCon=     1 RMS=8.78D-08 Max=1.47D-06 NDo=     1
 LinEq1:  Iter=  9 NonCon=     1 RMS=1.61D-08 Max=1.98D-07 NDo=     1
 LinEq1:  Iter= 10 NonCon=     1 RMS=3.05D-09 Max=3.76D-08 NDo=     1
 LinEq1:  Iter= 11 NonCon=     1 RMS=4.29D-10 Max=4.39D-09 NDo=     1
 LinEq1:  Iter= 12 NonCon=     1 RMS=9.45D-11 Max=1.65D-09 NDo=     1
 LinEq1:  Iter= 13 NonCon=     0 RMS=1.79D-11 Max=2.29D-10 NDo=     1
 Linear equations converged to 1.000D-10 1.000D-09 after    13 iterations.
 End of Minotr F.D. properties file   721 does not exist.
 End of Minotr F.D. properties file   722 does not exist.
 End of Minotr F.D. properties file   788 does not exist.
 Calling FoFJK, ICntrl=  10002127 FMM=F ISym2X=0 I1Cent= 0 IOpClX= 0 NMat=1 NMatS=1 NMatT=0.
 ***** Axes restored to original set *****
 -------------------------------------------------------------------
 Center     Atomic                   Forces (Hartrees/Bohr)
 Number     Number              X              Y              Z
 -------------------------------------------------------------------
      1        8           0.000692227    0.000020488    0.001624681
      2        6          -0.000887205    0.000953023   -0.001167531
      3        6          -0.000872489   -0.000963726   -0.001173019
      4        1          -0.000248121   -0.000032520   -0.000230935
      5        9           0.000307181    0.000014770   -0.000041207
      6        1           0.000139814    0.000528336    0.000133678
      7        1           0.000260809    0.000267391    0.000083165
      8        1           0.000102721    0.000267853    0.000277869
      9        1           0.000142211   -0.000523366    0.000134214
     10        1           0.000101801   -0.000267621    0.000276852
     11        1           0.000261051   -0.000264629    0.000082234
 -------------------------------------------------------------------
 Cartesian Forces:  Max     0.001624681 RMS     0.000569267

 GradGradGradGradGradGradGradGradGradGradGradGradGradGradGradGradGradGrad
 Berny optimization.
 Using GEDIIS/GDIIS optimizer.
 FormGI is forming the generalized inverse of G from B-inverse, IUseBI=4.
 Internal  Forces:  Max     0.001146437 RMS     0.000332629
 Search for a local minimum.
 Step number   2 out of a maximum of   49
 All quantities printed in internal units (Hartrees-Bohrs-Radians)
 Mixed Optimization -- En-DIIS/RFO-DIIS
 Update second derivatives using D2CorX and points    1    2
 DE= -6.75D-04 DEPred=-6.85D-04 R= 9.86D-01
 TightC=F SS=  1.41D+00  RLast= 6.43D-02 DXNew= 5.0454D-01 1.9290D-01
 Trust test= 9.86D-01 RLast= 6.43D-02 DXMaxT set to 3.00D-01
 ITU=  1  0
 Use linear search instead of GDIIS.
     Eigenvalues ---    0.01218   0.01218   0.01390   0.01392   0.03201
     Eigenvalues ---    0.07659   0.07663   0.08027   0.08027   0.08637
     Eigenvalues ---    0.10992   0.15929   0.16000   0.16000   0.16000
     Eigenvalues ---    0.16000   0.16048   0.23387   0.33259   0.33314
     Eigenvalues ---    0.33376   0.33695   0.34015   0.35440   0.39360
     Eigenvalues ---    0.40169   0.56945
 RFO step:  Lambda=-2.74982652D-05 EMin= 1.21825394D-02
 Quartic linear search produced a step of -0.01985.
 Iteration  1 RMS(Cart)=  0.00424851 RMS(Int)=  0.00001394
 Iteration  2 RMS(Cart)=  0.00001431 RMS(Int)=  0.00000837
 Iteration  3 RMS(Cart)=  0.00000000 RMS(Int)=  0.00000837
 Variable       Old X    -DE/DX   Delta X   Delta X   Delta X     New X
                                 (Linear)    (Quad)   (Total)
    R1        2.69356  -0.00034   0.00039  -0.00162  -0.00123   2.69233
    R2        2.69358  -0.00033   0.00039  -0.00161  -0.00122   2.69236
    R3        3.06334  -0.00010   0.00011  -0.00143  -0.00131   3.06203
    R4        2.05059   0.00029   0.00045  -0.00008   0.00036   2.05095
    R5        2.06348   0.00027   0.00045  -0.00013   0.00032   2.06380
    R6        2.06173   0.00024   0.00044  -0.00019   0.00025   2.06199
    R7        2.05058   0.00029   0.00045  -0.00007   0.00038   2.05095
    R8        2.06174   0.00024   0.00044  -0.00019   0.00025   2.06199
    R9        2.06348   0.00027   0.00045  -0.00013   0.00032   2.06380
   R10        1.79453  -0.00031   0.00011  -0.00076  -0.00065   1.79388
    A1        1.93617   0.00115   0.00009   0.00604   0.00611   1.94228
    A2        1.91950  -0.00023  -0.00005   0.00261   0.00253   1.92203
    A3        1.91880  -0.00021  -0.00006   0.00280   0.00272   1.92152
    A4        1.86633   0.00059  -0.00002   0.00380   0.00378   1.87010
    A5        1.92872   0.00026   0.00005   0.00145   0.00150   1.93022
    A6        1.91907   0.00026   0.00003   0.00143   0.00146   1.92054
    A7        1.91719  -0.00039  -0.00002  -0.00225  -0.00226   1.91492
    A8        1.91889  -0.00039  -0.00003  -0.00221  -0.00225   1.91664
    A9        1.91322  -0.00031  -0.00002  -0.00212  -0.00214   1.91108
   A10        1.86632   0.00060  -0.00002   0.00381   0.00379   1.87010
   A11        1.91908   0.00026   0.00003   0.00145   0.00148   1.92056
   A12        1.92871   0.00026   0.00005   0.00145   0.00150   1.93021
   A13        1.91888  -0.00039  -0.00003  -0.00222  -0.00226   1.91663
   A14        1.91721  -0.00039  -0.00002  -0.00225  -0.00227   1.91493
   A15        1.91323  -0.00032  -0.00002  -0.00213  -0.00215   1.91108
   A16        3.13491  -0.00003  -0.00004  -0.00225  -0.00229   3.13262
   A17        3.24883   0.00005   0.00027   0.00254   0.00282   3.25164
    D1        3.12727   0.00017  -0.00002   0.00471   0.00469   3.13196
    D2        1.04120   0.00014  -0.00002   0.00432   0.00430   1.04550
    D3       -1.07317   0.00020  -0.00005   0.00508   0.00504  -1.06813
    D4        1.00072  -0.00017   0.00002  -0.00461  -0.00459   0.99613
    D5       -1.08535  -0.00020   0.00003  -0.00501  -0.00498  -1.09034
    D6        3.08347  -0.00014  -0.00001  -0.00424  -0.00425   3.07922
    D7       -3.12765  -0.00017   0.00002  -0.00458  -0.00456  -3.13222
    D8        1.07280  -0.00019   0.00005  -0.00496  -0.00491   1.06789
    D9       -1.04157  -0.00014   0.00002  -0.00419  -0.00417  -1.04574
   D10       -1.00070   0.00016  -0.00002   0.00463   0.00461  -0.99609
   D11       -3.08343   0.00014   0.00001   0.00425   0.00426  -3.07917
   D12        1.08539   0.00019  -0.00003   0.00502   0.00500   1.09039
         Item               Value     Threshold  Converged?
 Maximum Force            0.001146     0.000450     NO 
 RMS     Force            0.000333     0.000300     NO 
 Maximum Displacement     0.014304     0.001800     NO 
 RMS     Displacement     0.004243     0.001200     NO 
 Predicted change in Energy=-1.408200D-05
 GradGradGradGradGradGradGradGradGradGradGradGradGradGradGradGradGradGrad

                          Input orientation:                          
 ---------------------------------------------------------------------
 Center     Atomic      Atomic             Coordinates (Angstroms)
 Number     Number       Type             X           Y           Z
 ---------------------------------------------------------------------
      1          8           0        0.356895   -0.000135   -0.428244
      2          6           0        0.945137   -1.175713    0.121132
      3          6           0        0.942969    1.176595    0.121024
      4          1           0       -1.241821   -0.001133   -0.164317
      5          9           0       -2.161845   -0.000328    0.069537
      6          1           0        0.442271    2.025545   -0.333400
      7          1           0        2.008500    1.207413   -0.112040
      8          1           0        0.805814    1.204416    1.204135
      9          1           0        0.445835   -2.025628   -0.333016
     10          1           0        0.808255   -1.203570    1.204277
     11          1           0        2.010672   -1.204685   -0.112152
 ---------------------------------------------------------------------
                    Distance matrix (angstroms):
                    1          2          3          4          5
     1  O    0.000000
     2  C    1.424720   0.000000
     3  C    1.424735   2.352309   0.000000
     4  H    1.620356   2.498781   2.498353   0.000000
     5  F    2.567458   3.322278   3.320793   0.949280   0.000000
     6  H    2.029695   3.272235   1.085318   2.640488   3.323844
     7  H    2.070255   2.619999   1.091158   3.468126   4.345502
     8  H    2.077771   2.618648   1.092115   2.742046   3.397899
     9  H    2.029680   1.085315   3.272235   2.641064   3.326242
    10  H    2.077766   1.092115   2.618544   2.742575   3.399548
    11  H    2.070225   1.091157   2.620087   3.468424   4.346652
                    6          7          8          9         10
     6  H    0.000000
     7  H    1.780846   0.000000
     8  H    1.780570   1.782913   0.000000
     9  H    4.051174   3.597680   3.595219   0.000000
    10  H    3.595217   2.997686   2.407988   1.780561   0.000000
    11  H    3.597668   2.412099   2.998010   1.780854   1.782917
                   11
    11  H    0.000000
 Stoichiometry    C2H7FO
 Framework group  C1[X(C2H7FO)]
 Deg. of freedom    27
 Full point group                 C1      NOp   1
 Largest Abelian subgroup         C1      NOp   1
 Largest concise Abelian subgroup C1      NOp   1
                         Standard orientation:                         
 ---------------------------------------------------------------------
 Center     Atomic      Atomic             Coordinates (Angstroms)
 Number     Number       Type             X           Y           Z
 ---------------------------------------------------------------------
      1          8           0        0.355304   -0.000141   -0.429585
      2          6           0        0.945668   -1.175550    0.117874
      3          6           0        0.942847    1.176757    0.117748
      4          1           0       -1.242539   -0.001580   -0.160423
      5          9           0       -2.161793   -0.001027    0.076442
      6          1           0        0.440428    2.025563   -0.335043
      7          1           0        2.007600    1.207868   -0.118804
      8          1           0        0.809232    1.204552    1.201302
      9          1           0        0.445116   -2.025609   -0.334627
     10          1           0        0.812341   -1.203433    1.201462
     11          1           0        2.010440   -1.204230   -0.118898
 ---------------------------------------------------------------------
 Rotational constants (GHZ):           9.3828158           3.9071080           2.9704658
 Standard basis: Aug-CC-pVTZ (5D, 7F)
 There are   395 symmetry adapted cartesian basis functions of A   symmetry.
 There are   345 symmetry adapted basis functions of A   symmetry.
   345 basis functions,   477 primitive gaussians,   395 cartesian basis functions
    18 alpha electrons       18 beta electrons
       nuclear repulsion energy       134.8276544964 Hartrees.
 NAtoms=   11 NActive=   11 NUniq=   11 SFac= 1.00D+00 NAtFMM=   60 NAOKFM=F Big=F
 Integral buffers will be    131072 words long.
 Raffenetti 1 integral format.
 Two-electron integral symmetry is turned on.
 One-electron integrals computed using PRISM.
 NBasis=   345 RedAO= T EigKep=  2.27D-05  NBF=   345
 NBsUse=   345 1.00D-06 EigRej= -1.00D+00 NBFU=   345
 Initial guess from the checkpoint file:  "/gscratch/scrubbed/gds001/Gau-4044.chk"
 B after Tr=     0.000000    0.000000   -0.000000
         Rot=    1.000000    0.000042   -0.000130   -0.000337 Ang=   0.04 deg.
 Keep R1 ints in memory in canonical form, NReq=1812230497.
 Requested convergence on RMS density matrix=1.00D-08 within 128 cycles.
 Requested convergence on MAX density matrix=1.00D-06.
 Requested convergence on             energy=1.00D-06.
 No special actions if energy rises.
 SCF Done:  E(RHF) =  -254.200511955     A.U. after    8 cycles
            NFock=  8  Conv=0.58D-08     -V/T= 2.0012
 ExpMin= 2.53D-02 ExpMax= 1.95D+04 ExpMxC= 6.65D+02 IAcc=3 IRadAn=         5 AccDes= 0.00D+00
 HarFok:  IExCor=  205 AccDes= 0.00D+00 IRadAn=         5 IDoV=-2 UseB2=F ITyADJ=14
 ICtDFT= 12500011 ScaDFX=  1.000000  1.000000  1.000000  1.000000
 Range of M.O.s used for correlation:     5   345
 NBasis=   345 NAE=    18 NBE=    18 NFC=     4 NFV=     0
 NROrb=    341 NOA=    14 NOB=    14 NVA=   327 NVB=   327

 **** Warning!!: The largest alpha MO coefficient is  0.39574440D+02

 Disk-based method using ON**2 memory for 14 occupieds at a time.
 Estimated scratch disk usage=  1586045060 words.
 Actual    scratch disk usage=  1493246084 words.
 JobTyp=1 Pass  1:  I=   5 to  18 NPSUse= 28 ParTrn=T ParDer=T DoDerP=T.
 (rs|ai) integrals will be sorted in core.
 Spin components of T(2) and E(2):
     alpha-alpha T2 =       0.2702294115D-01 E2=     -0.1056183097D+00
     alpha-beta  T2 =       0.1658768352D+00 E2=     -0.6843543436D+00
     beta-beta   T2 =       0.2702294115D-01 E2=     -0.1056183097D+00
 ANorm=    0.1104501117D+01
 E2 =    -0.8955909631D+00 EUMP2 =    -0.25509610291807D+03
          IDoAtm=11111111111
          Differentiating once with respect to electric field.
                with respect to dipole field.
          Differentiating once with respect to nuclear coordinates.
 Keep R1 ints in memory in canonical form, NReq=1812232568.
          There are     1 degrees of freedom in the 1st order CPHF.  IDoFFX=0 NUNeed=     1.
 LinEq1:  Iter=  0 NonCon=     1 RMS=2.49D-03 Max=2.74D-02 NDo=     1
 AX will form     1 AO Fock derivatives at one time.
 LinEq1:  Iter=  1 NonCon=     1 RMS=5.27D-04 Max=8.60D-03 NDo=     1
 LinEq1:  Iter=  2 NonCon=     1 RMS=1.42D-04 Max=1.38D-03 NDo=     1
 LinEq1:  Iter=  3 NonCon=     1 RMS=5.40D-05 Max=6.91D-04 NDo=     1
 LinEq1:  Iter=  4 NonCon=     1 RMS=1.79D-05 Max=2.43D-04 NDo=     1
 LinEq1:  Iter=  5 NonCon=     1 RMS=4.38D-06 Max=6.91D-05 NDo=     1
 LinEq1:  Iter=  6 NonCon=     1 RMS=1.57D-06 Max=2.54D-05 NDo=     1
 LinEq1:  Iter=  7 NonCon=     1 RMS=4.07D-07 Max=5.88D-06 NDo=     1
 LinEq1:  Iter=  8 NonCon=     1 RMS=8.77D-08 Max=1.47D-06 NDo=     1
 LinEq1:  Iter=  9 NonCon=     1 RMS=1.61D-08 Max=1.97D-07 NDo=     1
 LinEq1:  Iter= 10 NonCon=     1 RMS=3.03D-09 Max=3.74D-08 NDo=     1
 LinEq1:  Iter= 11 NonCon=     1 RMS=4.25D-10 Max=4.37D-09 NDo=     1
 LinEq1:  Iter= 12 NonCon=     1 RMS=9.34D-11 Max=1.63D-09 NDo=     1
 LinEq1:  Iter= 13 NonCon=     0 RMS=1.78D-11 Max=2.25D-10 NDo=     1
 Linear equations converged to 1.000D-10 1.000D-09 after    13 iterations.
 End of Minotr F.D. properties file   721 does not exist.
 End of Minotr F.D. properties file   722 does not exist.
 End of Minotr F.D. properties file   788 does not exist.
 Calling FoFJK, ICntrl=  10002127 FMM=F ISym2X=0 I1Cent= 0 IOpClX= 0 NMat=1 NMatS=1 NMatT=0.
 ***** Axes restored to original set *****
 -------------------------------------------------------------------
 Center     Atomic                   Forces (Hartrees/Bohr)
 Number     Number              X              Y              Z
 -------------------------------------------------------------------
      1        8           0.000071593   -0.000006993    0.000730165
      2        6          -0.000149746    0.000808591   -0.000373759
      3        6          -0.000152713   -0.000805276   -0.000375031
      4        1           0.000041026    0.000030776   -0.000188990
      5        9          -0.000052129   -0.000017239   -0.000016738
      6        1          -0.000116365    0.000073192   -0.000084656
      7        1           0.000219132    0.000065133   -0.000034302
      8        1           0.000015588    0.000057154    0.000230430
      9        1          -0.000113546   -0.000077908   -0.000088058
     10        1           0.000017387   -0.000057044    0.000232241
     11        1           0.000219773   -0.000070386   -0.000031304
 -------------------------------------------------------------------
 Cartesian Forces:  Max     0.000808591 RMS     0.000274297

 GradGradGradGradGradGradGradGradGradGradGradGradGradGradGradGradGradGrad
 Berny optimization.
 Using GEDIIS/GDIIS optimizer.
 FormGI is forming the generalized inverse of G from B-inverse, IUseBI=4.
 Internal  Forces:  Max     0.000619320 RMS     0.000180451
 Search for a local minimum.
 Step number   3 out of a maximum of   49
 All quantities printed in internal units (Hartrees-Bohrs-Radians)
 Mixed Optimization -- En-DIIS/RFO-DIIS
 Swapping is turned off.
 Update second derivatives using D2CorX and points    1    2    3
 DE= -1.67D-05 DEPred=-1.41D-05 R= 1.18D+00
 TightC=F SS=  1.41D+00  RLast= 1.98D-02 DXNew= 5.0454D-01 5.9527D-02
 Trust test= 1.18D+00 RLast= 1.98D-02 DXMaxT set to 3.00D-01
 ITU=  1  1  0
     Eigenvalues ---    0.01213   0.01218   0.01390   0.01412   0.02097
     Eigenvalues ---    0.07646   0.07717   0.07997   0.07997   0.08623
     Eigenvalues ---    0.11074   0.15022   0.16000   0.16000   0.16000
     Eigenvalues ---    0.16000   0.17226   0.26270   0.33259   0.33311
     Eigenvalues ---    0.33376   0.33813   0.34015   0.34736   0.40168
     Eigenvalues ---    0.41645   0.57447
 En-DIIS/RFO-DIIS/Sim-DIIS IScMMF=       -3 using points:     3    2
 RFO step:  Lambda=-1.05155509D-05.
 DidBck=F Rises=F RFO-DIIS coefs:    1.79916   -0.79916
 Iteration  1 RMS(Cart)=  0.00405784 RMS(Int)=  0.00001679
 Iteration  2 RMS(Cart)=  0.00001613 RMS(Int)=  0.00001246
 Iteration  3 RMS(Cart)=  0.00000000 RMS(Int)=  0.00001246
 Variable       Old X    -DE/DX   Delta X   Delta X   Delta X     New X
                                 (Linear)    (Quad)   (Total)
    R1        2.69233  -0.00061  -0.00098  -0.00151  -0.00250   2.68984
    R2        2.69236  -0.00062  -0.00098  -0.00155  -0.00253   2.68983
    R3        3.06203  -0.00002  -0.00105   0.00023  -0.00082   3.06121
    R4        2.05095   0.00015   0.00029   0.00015   0.00043   2.05138
    R5        2.06380   0.00023   0.00025   0.00047   0.00073   2.06453
    R6        2.06199   0.00022   0.00020   0.00048   0.00068   2.06267
    R7        2.05095   0.00015   0.00030   0.00012   0.00042   2.05138
    R8        2.06199   0.00022   0.00020   0.00048   0.00068   2.06267
    R9        2.06380   0.00023   0.00026   0.00047   0.00072   2.06452
   R10        1.79388   0.00005  -0.00052   0.00034  -0.00017   1.79371
    A1        1.94228  -0.00022   0.00488  -0.00302   0.00183   1.94411
    A2        1.92203   0.00016   0.00202   0.00225   0.00422   1.92625
    A3        1.92152   0.00015   0.00217   0.00210   0.00423   1.92575
    A4        1.87010  -0.00013   0.00302  -0.00293   0.00009   1.87020
    A5        1.93022   0.00010   0.00120   0.00017   0.00136   1.93158
    A6        1.92054   0.00010   0.00117   0.00012   0.00129   1.92183
    A7        1.91492  -0.00000  -0.00181   0.00093  -0.00089   1.91404
    A8        1.91664  -0.00000  -0.00180   0.00088  -0.00092   1.91572
    A9        1.91108  -0.00006  -0.00171   0.00078  -0.00093   1.91015
   A10        1.87010  -0.00013   0.00303  -0.00295   0.00008   1.87018
   A11        1.92056   0.00009   0.00119   0.00005   0.00123   1.92179
   A12        1.93021   0.00011   0.00120   0.00017   0.00136   1.93157
   A13        1.91663   0.00000  -0.00180   0.00093  -0.00087   1.91575
   A14        1.91493  -0.00000  -0.00182   0.00092  -0.00090   1.91403
   A15        1.91108  -0.00006  -0.00172   0.00082  -0.00090   1.91017
   A16        3.13262   0.00004  -0.00183   0.00442   0.00259   3.13521
   A17        3.25164  -0.00004   0.00225  -0.00482  -0.00257   3.24907
    D1        3.13196   0.00007   0.00375  -0.00038   0.00338   3.13534
    D2        1.04550   0.00009   0.00344   0.00018   0.00362   1.04912
    D3       -1.06813   0.00004   0.00402  -0.00099   0.00304  -1.06509
    D4        0.99613  -0.00009  -0.00367  -0.00256  -0.00623   0.98990
    D5       -1.09034  -0.00007  -0.00398  -0.00200  -0.00599  -1.09633
    D6        3.07922  -0.00012  -0.00340  -0.00316  -0.00657   3.07265
    D7       -3.13222  -0.00007  -0.00365   0.00040  -0.00325  -3.13547
    D8        1.06789  -0.00004  -0.00393   0.00100  -0.00294   1.06495
    D9       -1.04574  -0.00009  -0.00334  -0.00017  -0.00352  -1.04926
   D10       -0.99609   0.00009   0.00368   0.00267   0.00635  -0.98973
   D11       -3.07917   0.00012   0.00340   0.00326   0.00667  -3.07250
   D12        1.09039   0.00007   0.00399   0.00209   0.00609   1.09648
         Item               Value     Threshold  Converged?
 Maximum Force            0.000619     0.000450     NO 
 RMS     Force            0.000180     0.000300     YES
 Maximum Displacement     0.012191     0.001800     NO 
 RMS     Displacement     0.004053     0.001200     NO 
 Predicted change in Energy=-5.270694D-06
 GradGradGradGradGradGradGradGradGradGradGradGradGradGradGradGradGradGrad

                          Input orientation:                          
 ---------------------------------------------------------------------
 Center     Atomic      Atomic             Coordinates (Angstroms)
 Number     Number       Type             X           Y           Z
 ---------------------------------------------------------------------
      1          8           0        0.355215    0.000079   -0.422620
      2          6           0        0.945223   -1.175242    0.121971
      3          6           0        0.943450    1.176345    0.121844
      4          1           0       -1.244093   -0.000650   -0.165004
      5          9           0       -2.165468   -0.001706    0.063086
      6          1           0        0.441812    2.025001   -0.332625
      7          1           0        2.008617    1.207241   -0.114543
      8          1           0        0.810392    1.207851    1.205751
      9          1           0        0.444782   -2.024711   -0.332307
     10          1           0        0.812342   -1.206772    1.205901
     11          1           0        2.010409   -1.204656   -0.114517
 ---------------------------------------------------------------------
                    Distance matrix (angstroms):
                    1          2          3          4          5
     1  O    0.000000
     2  C    1.423400   0.000000
     3  C    1.423399   2.351588   0.000000
     4  H    1.619924   2.501025   2.500589   0.000000
     5  F    2.567053   3.325215   3.325152   0.949188   0.000000
     6  H    2.028770   3.271335   1.085542   2.640764   3.325964
     7  H    2.070239   2.619727   1.091519   3.470111   4.349264
     8  H    2.077857   2.621429   1.092498   2.749609   3.409465
     9  H    2.028781   1.085545   3.271343   2.641423   3.326003
    10  H    2.077868   1.092501   2.621377   2.750097   3.409628
    11  H    2.070261   1.091519   2.619816   3.470442   4.349320
                    6          7          8          9         10
     6  H    0.000000
     7  H    1.780778   0.000000
     8  H    1.780502   1.782953   0.000000
     9  H    4.049713   3.597014   3.598437   0.000000
    10  H    3.598432   3.000351   2.414623   1.780508   0.000000
    11  H    3.597048   2.411898   3.000556   1.780761   1.782940
                   11
    11  H    0.000000
 Stoichiometry    C2H7FO
 Framework group  C1[X(C2H7FO)]
 Deg. of freedom    27
 Full point group                 C1      NOp   1
 Largest Abelian subgroup         C1      NOp   1
 Largest concise Abelian subgroup C1      NOp   1
                         Standard orientation:                         
 ---------------------------------------------------------------------
 Center     Atomic      Atomic             Coordinates (Angstroms)
 Number     Number       Type             X           Y           Z
 ---------------------------------------------------------------------
      1          8           0        0.353572   -0.000008   -0.424787
      2          6           0        0.945991   -1.175761    0.116239
      3          6           0        0.945826    1.175826    0.116242
      4          1           0       -1.244183    0.000342   -0.157702
      5          9           0       -2.164191   -0.000097    0.075842
      6          1           0        0.442084    2.024849   -0.335205
      7          1           0        2.009594    1.206006   -0.126450
      8          1           0        0.819212    1.207363    1.200919
      9          1           0        0.442287   -2.024864   -0.335109
     10          1           0        0.819512   -1.207260    1.200936
     11          1           0        2.009737   -1.205891   -0.126556
 ---------------------------------------------------------------------
 Rotational constants (GHZ):           9.3975755           3.9007658           2.9656966
 Standard basis: Aug-CC-pVTZ (5D, 7F)
 There are   395 symmetry adapted cartesian basis functions of A   symmetry.
 There are   345 symmetry adapted basis functions of A   symmetry.
   345 basis functions,   477 primitive gaussians,   395 cartesian basis functions
    18 alpha electrons       18 beta electrons
       nuclear repulsion energy       134.8268303164 Hartrees.
 NAtoms=   11 NActive=   11 NUniq=   11 SFac= 1.00D+00 NAtFMM=   60 NAOKFM=F Big=F
 Integral buffers will be    131072 words long.
 Raffenetti 1 integral format.
 Two-electron integral symmetry is turned on.
 One-electron integrals computed using PRISM.
 NBasis=   345 RedAO= T EigKep=  2.28D-05  NBF=   345
 NBsUse=   345 1.00D-06 EigRej= -1.00D+00 NBFU=   345
 Initial guess from the checkpoint file:  "/gscratch/scrubbed/gds001/Gau-4044.chk"
 B after Tr=     0.000000   -0.000000    0.000000
         Rot=    1.000000   -0.000049   -0.000396    0.000360 Ang=  -0.06 deg.
 Keep R1 ints in memory in canonical form, NReq=1812230497.
 Requested convergence on RMS density matrix=1.00D-08 within 128 cycles.
 Requested convergence on MAX density matrix=1.00D-06.
 Requested convergence on             energy=1.00D-06.
 No special actions if energy rises.
 SCF Done:  E(RHF) =  -254.200616874     A.U. after    8 cycles
            NFock=  8  Conv=0.61D-08     -V/T= 2.0012
 ExpMin= 2.53D-02 ExpMax= 1.95D+04 ExpMxC= 6.65D+02 IAcc=3 IRadAn=         5 AccDes= 0.00D+00
 HarFok:  IExCor=  205 AccDes= 0.00D+00 IRadAn=         5 IDoV=-2 UseB2=F ITyADJ=14
 ICtDFT= 12500011 ScaDFX=  1.000000  1.000000  1.000000  1.000000
 Range of M.O.s used for correlation:     5   345
 NBasis=   345 NAE=    18 NBE=    18 NFC=     4 NFV=     0
 NROrb=    341 NOA=    14 NOB=    14 NVA=   327 NVB=   327

 **** Warning!!: The largest alpha MO coefficient is  0.38228692D+02

 Disk-based method using ON**2 memory for 14 occupieds at a time.
 Estimated scratch disk usage=  1586045060 words.
 Actual    scratch disk usage=  1493246084 words.
 JobTyp=1 Pass  1:  I=   5 to  18 NPSUse= 28 ParTrn=T ParDer=T DoDerP=T.
 (rs|ai) integrals will be sorted in core.
 Spin components of T(2) and E(2):
     alpha-alpha T2 =       0.2701110667D-01 E2=     -0.1056076922D+00
     alpha-beta  T2 =       0.1658193690D+00 E2=     -0.6842779977D+00
     beta-beta   T2 =       0.2701110667D-01 E2=     -0.1056076922D+00
 ANorm=    0.1104464387D+01
 E2 =    -0.8954933820D+00 EUMP2 =    -0.25509611025647D+03
          IDoAtm=11111111111
          Differentiating once with respect to electric field.
                with respect to dipole field.
          Differentiating once with respect to nuclear coordinates.
 Keep R1 ints in memory in canonical form, NReq=1812232568.
          There are     1 degrees of freedom in the 1st order CPHF.  IDoFFX=0 NUNeed=     1.
 LinEq1:  Iter=  0 NonCon=     1 RMS=2.49D-03 Max=2.74D-02 NDo=     1
 AX will form     1 AO Fock derivatives at one time.
 LinEq1:  Iter=  1 NonCon=     1 RMS=5.26D-04 Max=8.52D-03 NDo=     1
 LinEq1:  Iter=  2 NonCon=     1 RMS=1.42D-04 Max=1.38D-03 NDo=     1
 LinEq1:  Iter=  3 NonCon=     1 RMS=5.36D-05 Max=6.86D-04 NDo=     1
 LinEq1:  Iter=  4 NonCon=     1 RMS=1.78D-05 Max=2.41D-04 NDo=     1
 LinEq1:  Iter=  5 NonCon=     1 RMS=4.34D-06 Max=6.85D-05 NDo=     1
 LinEq1:  Iter=  6 NonCon=     1 RMS=1.55D-06 Max=2.51D-05 NDo=     1
 LinEq1:  Iter=  7 NonCon=     1 RMS=4.05D-07 Max=5.84D-06 NDo=     1
 LinEq1:  Iter=  8 NonCon=     1 RMS=8.74D-08 Max=1.45D-06 NDo=     1
 LinEq1:  Iter=  9 NonCon=     1 RMS=1.60D-08 Max=1.97D-07 NDo=     1
 LinEq1:  Iter= 10 NonCon=     1 RMS=3.01D-09 Max=3.72D-08 NDo=     1
 LinEq1:  Iter= 11 NonCon=     1 RMS=4.21D-10 Max=4.36D-09 NDo=     1
 LinEq1:  Iter= 12 NonCon=     1 RMS=9.25D-11 Max=1.61D-09 NDo=     1
 LinEq1:  Iter= 13 NonCon=     0 RMS=1.76D-11 Max=2.23D-10 NDo=     1
 Linear equations converged to 1.000D-10 1.000D-09 after    13 iterations.
 End of Minotr F.D. properties file   721 does not exist.
 End of Minotr F.D. properties file   722 does not exist.
 End of Minotr F.D. properties file   788 does not exist.
 Calling FoFJK, ICntrl=  10002127 FMM=F ISym2X=0 I1Cent= 0 IOpClX= 0 NMat=1 NMatS=1 NMatT=0.
 ***** Axes restored to original set *****
 -------------------------------------------------------------------
 Center     Atomic                   Forces (Hartrees/Bohr)
 Number     Number              X              Y              Z
 -------------------------------------------------------------------
      1        8          -0.000270301    0.000008539    0.000206807
      2        6           0.000189156   -0.000022089    0.000030882
      3        6           0.000200040    0.000016163    0.000027867
      4        1           0.000040556   -0.000025643   -0.000175881
      5        9          -0.000098675    0.000011562   -0.000006271
      6        1          -0.000064010   -0.000018539   -0.000030322
      7        1           0.000024054   -0.000034748   -0.000041863
      8        1           0.000011916   -0.000062652    0.000032256
      9        1          -0.000066119    0.000022448   -0.000028614
     10        1           0.000009174    0.000063376    0.000029666
     11        1           0.000024210    0.000041583   -0.000044526
 -------------------------------------------------------------------
 Cartesian Forces:  Max     0.000270301 RMS     0.000089833

 GradGradGradGradGradGradGradGradGradGradGradGradGradGradGradGradGradGrad
 Berny optimization.
 Using GEDIIS/GDIIS optimizer.
 FormGI is forming the generalized inverse of G from B-inverse, IUseBI=4.
 Internal  Forces:  Max     0.000367147 RMS     0.000088807
 Search for a local minimum.
 Step number   4 out of a maximum of   49
 All quantities printed in internal units (Hartrees-Bohrs-Radians)
 Mixed Optimization -- En-DIIS/RFO-DIIS
 Swapping is turned off.
 Update second derivatives using D2CorX and points    1    2    3    4
 DE= -7.34D-06 DEPred=-5.27D-06 R= 1.39D+00
 TightC=F SS=  1.41D+00  RLast= 1.96D-02 DXNew= 5.0454D-01 5.8860D-02
 Trust test= 1.39D+00 RLast= 1.96D-02 DXMaxT set to 3.00D-01
 ITU=  1  1  1  0
     Eigenvalues ---    0.00763   0.01218   0.01355   0.01419   0.01583
     Eigenvalues ---    0.07632   0.07781   0.07991   0.07991   0.08671
     Eigenvalues ---    0.11128   0.15997   0.16000   0.16000   0.16000
     Eigenvalues ---    0.16673   0.17371   0.32745   0.33259   0.33333
     Eigenvalues ---    0.33376   0.33798   0.34015   0.35984   0.40161
     Eigenvalues ---    0.41741   0.57698
 En-DIIS/RFO-DIIS/Sim-DIIS IScMMF=       -3 using points:     4    3    2
 RFO step:  Lambda=-7.78151169D-06.
 DidBck=F Rises=F RFO-DIIS coefs:    1.86858   -0.48147   -0.38711
 Iteration  1 RMS(Cart)=  0.00525955 RMS(Int)=  0.00002642
 Iteration  2 RMS(Cart)=  0.00002167 RMS(Int)=  0.00002137
 Iteration  3 RMS(Cart)=  0.00000000 RMS(Int)=  0.00002137
 Variable       Old X    -DE/DX   Delta X   Delta X   Delta X     New X
                                 (Linear)    (Quad)   (Total)
    R1        2.68984  -0.00003  -0.00264   0.00091  -0.00174   2.68810
    R2        2.68983  -0.00002  -0.00267   0.00095  -0.00172   2.68811
    R3        3.06121   0.00003  -0.00122   0.00081  -0.00041   3.06080
    R4        2.05138   0.00002   0.00052  -0.00026   0.00025   2.05164
    R5        2.06453   0.00003   0.00075  -0.00036   0.00040   2.06492
    R6        2.06267   0.00003   0.00069  -0.00031   0.00038   2.06305
    R7        2.05138   0.00003   0.00051  -0.00025   0.00026   2.05164
    R8        2.06267   0.00003   0.00069  -0.00032   0.00038   2.06305
    R9        2.06452   0.00003   0.00075  -0.00035   0.00040   2.06492
   R10        1.79371   0.00009  -0.00040   0.00030  -0.00011   1.79360
    A1        1.94411  -0.00037   0.00396  -0.00254   0.00136   1.94547
    A2        1.92625   0.00018   0.00465   0.00054   0.00511   1.93136
    A3        1.92575   0.00019   0.00472   0.00069   0.00534   1.93109
    A4        1.87020  -0.00007   0.00154  -0.00099   0.00055   1.87074
    A5        1.93158  -0.00005   0.00177  -0.00105   0.00071   1.93230
    A6        1.92183  -0.00006   0.00168  -0.00111   0.00057   1.92240
    A7        1.91404   0.00007  -0.00165   0.00113  -0.00052   1.91352
    A8        1.91572   0.00007  -0.00167   0.00111  -0.00056   1.91516
    A9        1.91015   0.00005  -0.00164   0.00090  -0.00074   1.90941
   A10        1.87018  -0.00007   0.00154  -0.00097   0.00056   1.87074
   A11        1.92179  -0.00005   0.00165  -0.00103   0.00061   1.92240
   A12        1.93157  -0.00005   0.00176  -0.00104   0.00072   1.93230
   A13        1.91575   0.00006  -0.00163   0.00104  -0.00059   1.91516
   A14        1.91403   0.00007  -0.00166   0.00114  -0.00053   1.91351
   A15        1.91017   0.00004  -0.00161   0.00086  -0.00076   1.90941
   A16        3.13521  -0.00001   0.00136  -0.00177  -0.00041   3.13480
   A17        3.24907  -0.00004  -0.00114  -0.00283  -0.00397   3.24510
    D1        3.13534   0.00004   0.00475  -0.00194   0.00282   3.13817
    D2        1.04912   0.00003   0.00481  -0.00211   0.00271   1.05183
    D3       -1.06509   0.00004   0.00459  -0.00181   0.00279  -1.06229
    D4        0.98990  -0.00008  -0.00719  -0.00145  -0.00865   0.98125
    D5       -1.09633  -0.00009  -0.00713  -0.00161  -0.00876  -1.10509
    D6        3.07265  -0.00008  -0.00735  -0.00132  -0.00868   3.06397
    D7       -3.13547  -0.00003  -0.00459   0.00192  -0.00269  -3.13816
    D8        1.06495  -0.00003  -0.00445   0.00182  -0.00265   1.06230
    D9       -1.04926  -0.00002  -0.00467   0.00211  -0.00257  -1.05183
   D10       -0.98973   0.00008   0.00730   0.00133   0.00865  -0.98109
   D11       -3.07250   0.00007   0.00744   0.00123   0.00869  -3.06382
   D12        1.09648   0.00009   0.00722   0.00153   0.00876   1.10524
         Item               Value     Threshold  Converged?
 Maximum Force            0.000367     0.000450     YES
 RMS     Force            0.000089     0.000300     YES
 Maximum Displacement     0.016842     0.001800     NO 
 RMS     Displacement     0.005254     0.001200     NO 
 Predicted change in Energy=-3.594730D-06
 GradGradGradGradGradGradGradGradGradGradGradGradGradGradGradGradGradGrad

                          Input orientation:                          
 ---------------------------------------------------------------------
 Center     Atomic      Atomic             Coordinates (Angstroms)
 Number     Number       Type             X           Y           Z
 ---------------------------------------------------------------------
      1          8           0        0.352895    0.000033   -0.416371
      2          6           0        0.945760   -1.175053    0.123201
      3          6           0        0.943929    1.176114    0.123057
      4          1           0       -1.247437   -0.000951   -0.166591
      5          9           0       -2.170538   -0.001282    0.054173
      6          1           0        0.440827    2.024785   -0.330094
      7          1           0        2.008210    1.206705   -0.118226
      8          1           0        0.816536    1.210046    1.207785
      9          1           0        0.443990   -2.024565   -0.329851
     10          1           0        0.818422   -1.209049    1.207933
     11          1           0        2.010088   -1.204006   -0.118080
 ---------------------------------------------------------------------
                    Distance matrix (angstroms):
                    1          2          3          4          5
     1  O    0.000000
     2  C    1.422481   0.000000
     3  C    1.422488   2.351168   0.000000
     4  H    1.619708   2.504518   2.504290   0.000000
     5  F    2.566929   3.330738   3.330303   0.949132   0.000000
     6  H    2.028496   3.270993   1.085680   2.642077   3.327437
     7  H    2.070028   2.619133   1.091717   3.472753   4.353262
     8  H    2.077734   2.623303   1.092710   2.759604   3.423558
     9  H    2.028492   1.085679   3.270996   2.642460   3.328198
    10  H    2.077729   1.092710   2.623301   2.759818   3.423996
    11  H    2.070018   1.091718   2.619124   3.472919   4.353602
                    6          7          8          9         10
     6  H    0.000000
     7  H    1.780683   0.000000
     8  H    1.780458   1.782808   0.000000
     9  H    4.049351   3.596203   3.600809   0.000000
    10  H    3.600803   3.001693   2.419096   1.780463   0.000000
    11  H    3.596195   2.410712   3.001688   1.780682   1.782807
                   11
    11  H    0.000000
 Stoichiometry    C2H7FO
[...]
 474,0.00107243,-0.00177407,0.00098931,-0.68924350,0.76734459,0.0005835
 3,0.01300969,-0.00111476,0.00193480,-0.00096156,-0.00059315,0.28432408
 ,-0.55558160,0.03777633,-0.00017029,0.00005067,0.00089442,0.00013323,0
 .00078097,0.00021136,0.00013531,-0.00087829,0.00020251,0.00176597,-0.0
 0001926,0.00035319,0.00000093,-0.00011780,-0.00030993,-0.00013387,0.00
 011171,-0.00034845,0.00013864,-0.00001192,-0.00124392,0.00014843,-0.00
 000764,0.00052609,0.00003564,0.00005232,0.00003413,0.00004673,-0.00002
 659,0.00003322,-0.00056174,0.00000528,-0.00048010,0.00033182,-0.000033
 39,-0.00036320,-0.00002788,-0.00028062,-0.00015646,-0.00002635,0.00033
 259,-0.00014933,-0.00072364,0.00001789,0.00018913,0.00005506,0.0000025
 9,0.00005182,0.00000255,0.00006866,-0.00001810,0.00008316,-0.00006583,
 -0.00000690,-0.00008316,0.00002624,0.00004339,-0.00001145,-0.00001382,
 0.00036847,-0.00004708,0.00000291,-0.00010270,0.00000721,-0.00003061,-
 0.00005466,0.00000680,0.00002273,-0.00005619,0.00013157,-0.00000330,-0
 .00013059,-0.00002663,0.00000747,0.00024939,0.00217698,-0.01069319,0.0
 0147226,-0.00060016,-0.00064357,-0.00078542,-0.11197915,0.69637604,-0.
 34547858,-0.00015322,0.00013821,-0.00006119,-0.00007429,-0.00013797,0.
 00002278,0.11040973,0.00002083,-0.00023451,-0.00009069,0.00012314,0.00
 162868,0.00012601,0.69252436,-0.81967882,0.55332767,0.00013825,0.00073
 573,-0.00004406,-0.00005329,-0.00026699,0.00001883,-0.68302573,0.81113
 890,0.00159034,-0.00892019,0.00134611,-0.00078699,-0.00057232,-0.00034
 633,-0.34533727,0.55626414,0.04363215,-0.00001506,-0.00014290,-0.00009
 449,0.00000578,0.00008139,0.00010398,0.34009963,-0.54558464,-0.0422076
 9,0.00177878,0.00018012,0.00068524,-0.00009171,-0.00026927,0.00018708,
 -0.10977047,-0.00910143,0.04346309,-0.00025254,-0.00002801,0.00007847,
 0.00016159,0.00003520,-0.00003881,-0.00111745,-0.00752503,0.00500704,0
 .10798602,-0.00013550,-0.00065053,0.00009613,0.00017987,0.00020654,-0.
 00027003,-0.01866932,0.02351828,0.00533129,0.00023688,0.00007743,0.000
 02626,-0.00011304,-0.00000029,-0.00001708,-0.00000319,0.00333682,-0.00
 167861,0.01790994,-0.02867025,-0.00019289,-0.00038689,0.00067247,-0.00
 024754,0.00000881,0.00039028,0.04736713,0.00282798,0.00686446,-0.00032
 356,-0.00002234,0.00002805,0.00016737,-0.00002971,-0.00001403,0.000405
 23,-0.00089625,0.00023102,-0.04833272,-0.00209738,-0.00923056,0.000875
 24,-0.00013214,0.00015742,0.00038215,-0.00008484,-0.00039036,0.0124882
 5,0.00061043,0.01599864,-0.00018813,0.00008013,0.00005340,0.00011416,-
 0.00006552,-0.00002056,0.00168437,-0.00261486,-0.00039721,0.00163655,0
 .00052022,0.00113253,-0.01684067,-0.00003647,-0.00058893,-0.00002043,-
 0.00021343,0.00027357,0.00017744,0.00128656,0.01563492,-0.01521160,0.0
 0009876,-0.00002537,-0.00003252,-0.00003675,0.00003650,0.00001042,-0.0
 0174645,0.00367577,0.00075608,-0.00115409,0.00233498,0.00074283,0.0018
 3782,-0.02108517,0.00081068,0.00026692,0.00127949,0.00017531,-0.000219
 18,-0.00013594,0.01215670,-0.00489244,-0.08646485,-0.00011476,0.000023
 24,0.00007571,0.00008771,-0.00001094,-0.00004053,0.00452056,-0.0072516
 4,-0.00244118,-0.00083061,-0.00131949,0.00117660,-0.01652394,0.0134796
 1,0.08679466,0.00196916,0.00980429,0.00131504,-0.10022512,-0.63385297,
 -0.31421913,-0.00052578,0.00055467,-0.00069538,-0.00014306,-0.00012225
 ,-0.00005760,-0.00006416,0.00012299,0.00002095,-0.00017613,0.00020618,
 -0.00012949,-0.00007633,0.00010731,0.00005873,-0.00009567,-0.00008147,
 -0.00011460,0.09882582,0.00004817,-0.00026471,0.00014014,-0.63037516,-
 0.74875890,-0.50486109,-0.00007804,0.00153878,-0.00008899,-0.00012323,
 0.00067028,0.00003992,0.00004165,-0.00024263,-0.00001886,-0.00023819,0
 .00015511,-0.00021185,-0.00012421,-0.00021102,-0.00004310,-0.00006966,
 -0.00023863,-0.00014827,0.62167880,0.74093189,0.00141336,0.00817858,0.
 00123196,-0.31408979,-0.50750375,0.03982563,-0.00070283,0.00049455,-0.
 00030238,-0.00001629,0.00013353,-0.00008715,0.00000825,-0.00007517,0.0
 0009430,-0.00012876,0.00018661,-0.00010606,-0.00010397,-0.00012752,-0.
 00009306,0.00007794,0.00012076,-0.00003150,0.30933532,0.49775560,-0.03
 851349,0.00079615,0.00013699,0.00015719,0.01136486,-0.00057037,0.01458
 635,0.00035691,0.00005328,-0.00037319,-0.00016632,-0.00007566,0.000048
 99,0.00010129,0.00006196,-0.00001838,-0.00009672,0.00007469,0.00007680
 ,-0.00000164,-0.00000261,-0.00001194,-0.00005366,0.00008360,-0.0000727
 3,0.00154139,0.00238051,-0.00036478,-0.01532717,0.00002395,-0.00054779
 ,0.00001060,-0.00117350,0.01421036,0.01386589,0.00019316,0.00027636,-0
 .00011508,-0.00009681,-0.00002359,0.00002993,0.00003645,0.00003335,-0.
 00001003,0.00008892,-0.00026194,-0.00013246,0.00003772,0.00002552,-0.0
 0002397,-0.00008194,-0.00004452,0.00005552,0.00159103,0.00335893,-0.00
 069966,-0.00167043,-0.01915523,0.00075164,-0.00021332,0.00120806,0.011
 07293,0.00443162,-0.07873272,0.00017392,0.00018463,-0.00013627,-0.0001
 0943,-0.00002006,0.00006780,0.00008282,0.00000954,-0.00003630,-0.00012
 146,0.00016288,-0.00002458,-0.00009043,-0.00002520,0.00000246,-0.00007
 534,-0.00004424,-0.00021380,0.00412128,0.00661820,-0.00222831,-0.01505
 502,-0.01230591,0.07902725,0.00167490,-0.00012319,0.00062003,-0.100142
 46,0.00811104,0.03960249,-0.00008654,0.00022963,0.00018975,-0.00023735
 ,0.00002696,0.00007971,0.00015247,-0.00003450,-0.00003786,-0.00007402,
 0.00013134,-0.00011351,-0.00025261,-0.00003051,-0.00002235,-0.00000258
 ,-0.00003808,-0.00009431,-0.00102997,0.00685960,0.00457145,0.00148491,
 0.00105128,-0.00075084,0.09851311,0.00012077,-0.00061696,-0.00009175,0
 .01686305,0.02146940,-0.00480224,-0.00012532,0.00020764,0.00023463,-0.
 00022150,0.00007124,-0.00003143,0.00010235,0.00000140,0.00001752,-0.00
 011497,-0.00022896,0.00014139,0.00003899,0.00003265,-0.00008001,0.0000
 0033,0.00002685,0.00001671,-0.00000851,0.00306088,0.00153652,-0.000471
 96,0.00212854,0.00120184,-0.01618337,-0.02615263,-0.00017334,0.0003627
 9,0.00061378,0.04318403,-0.00253093,0.00628001,-0.00023134,-0.00002804
 ,0.00036133,-0.00029905,0.00002088,0.00002732,0.00015458,0.00002632,-0
 .00001266,0.00005492,0.00004531,-0.00009283,-0.00002427,0.00008164,-0.
 00002764,-0.00001259,0.00002166,0.00000126,0.00036492,0.00081817,0.000
 21017,0.00102670,-0.00067470,0.00106634,-0.04404457,0.00185690,-0.0084
 2712,-0.00657955,0.00048157,-0.02336001,-0.00481198,0.00034695,-0.0043
 8241,-0.00131200,-0.01433037,-0.00011543,0.20840764,0.00062662,0.01303
 240,0.00074731,0.68719468,0.76905704,0.00029620,-0.01235513,-0.0011699
 6,0.28390041,0.55450142,0.04058681,-0.00092852,0.01305287,-0.00012567,
 0.00112695,-0.00075483,0.00249836,0.19149854,-0.00107727,0.01214534,-0
 .00106524,0.00075935,-0.00146291,0.00071960,-0.62692058,0.69877142,0.0
 0021947,0.01127058,-0.00077172,0.00250714,-0.00071267,0.00017717,0.259
 49705,-0.50490115,0.03692608,-0.00027024,-0.00007159,0.00079678,-0.000
 09381,0.00055456,0.00008870,-0.00008360,-0.00045145,0.00010237,0.00218
 035,0.00000025,0.00029120,0.00000345,-0.00008993,-0.00033042,-0.000123
 60,0.00010075,-0.00029594,0.00011292,0.00000324,-0.00127234,0.00004779
 ,0.00002185,0.00054950,0.00009324,-0.00001161,0.00001413,0.00008456,0.
 00000114,0.00001477,-0.00044846,-0.00000936,-0.00051640,0.00035200,0.0
 0003411,-0.00032334,0.00009857,-0.00015053,-0.00011216,0.00009421,0.00
 010530,-0.00011591,-0.00082655,0.00000498,0.00013787,0.00009262,-0.000
 00696,0.00007625,-0.00000179,0.00006412,-0.00002102,0.00007702,-0.0000
 6989,-0.00001871,-0.00007058,0.00001466,0.00014921,-0.00000515,-0.0000
 2147,0.00024925,-0.00004984,-0.00001078,-0.00012431,-0.00002145,-0.000
 00592,-0.00003363,-0.00002021,0.00001104,-0.00003093,0.00014776,0.0000
 0297,-0.00004627,-0.00000686,0.00000516,0.00014847,0.00173493,-0.00936
 131,0.00138669,-0.00165380,-0.00075407,-0.00126796,-0.10211199,0.63374
 354,-0.31447917,-0.00001872,0.00012232,-0.00006403,-0.00013827,-0.0001
 2721,0.00002649,0.10065442,0.00005132,0.00013598,-0.00005005,-0.000026
 20,0.00086727,0.00006658,0.62996192,-0.74659869,0.50325905,0.00009508,
 0.00062853,-0.00003318,-0.00003115,-0.00022324,0.00001150,-0.62148883,
 0.73889055,0.00145055,-0.00780088,0.00098445,-0.00125983,-0.00067830,-
 0.00110343,-0.31439373,0.50617871,0.03960590,0.00005561,-0.00010113,-0
 .00010464,-0.00002396,0.00005641,0.00009812,0.30944800,-0.49636858,-0.
 03833506,0.00165876,0.00023727,0.00058382,-0.00018785,-0.00023011,0.00
 011337,-0.09970747,-0.00796558,0.03934556,-0.00025363,-0.00000940,0.00
 005893,0.00014941,0.00001777,-0.00002815,-0.00100952,-0.00685824,0.004
 55634,0.09796252,0.00028210,-0.00063678,0.00012252,-0.00003178,0.00020
 355,-0.00023254,-0.01653374,0.02132249,0.00459951,0.00016168,0.0000878
 8,0.00002622,-0.00006492,-0.00001847,-0.00001730,-0.00020000,0.0031198
 7,-0.00143554,0.01586286,-0.02599744,-0.00014738,-0.00021231,0.0005820
 8,-0.00010391,-0.00015826,0.00027379,0.04267645,0.00233836,0.00619107,
 -0.00025744,-0.00000183,0.00002293,0.00015035,-0.00003540,-0.00001910,
 0.00045683,-0.00079628,0.00022228,-0.04377335,-0.00174887,-0.00834815,
 0.00077834,0.00005677,0.00020953,0.00028495,-0.00023081,-0.00027522,0.
 01173497,0.00044254,0.01446728,-0.00016298,0.00005502,0.00004818,0.000
 08321,-0.00005200,-0.00002371,0.00153593,-0.00236401,-0.00024561,0.001
 50638,0.00049663,0.00107138,-0.01573272,0.00012120,-0.00058076,0.00029
 646,-0.00018721,0.00026154,0.00001839,0.00100138,0.01471988,-0.0136414
 5,0.00006677,-0.00001822,-0.00002471,-0.00002808,0.00003158,0.00000230
 ,-0.00153405,0.00340871,0.00046042,-0.00103908,0.00211864,0.00070866,0
 .00172534,-0.01965456,0.00074792,0.00028930,0.00125350,0.00005928,-0.0
 0018206,-0.00024792,0.01119874,-0.00442810,-0.08101461,-0.00012555,0.0
 0000666,0.00007465,0.00007622,0.00000038,-0.00003837,0.00410868,-0.006
 59633,-0.00222241,-0.00074333,-0.00118979,0.00107047,-0.01519227,0.012
 12477,0.08119128,0.00194125,0.01024856,0.00154623,-0.11011191,-0.69437
 776,-0.34428876,-0.00173631,0.00084172,-0.00135793,-0.00002897,-0.0001
 3567,-0.00007121,-0.00014909,0.00014129,0.00003024,0.00092087,0.000546
 39,0.00037650,0.00006156,-0.00000586,0.00000555,0.00002488,-0.00011235
 ,-0.00001238,0.10852689,-0.00011047,0.00017249,-0.00000266,-0.69021478
 ,-0.82116188,-0.55269189,-0.00001927,0.00094792,-0.00010490,-0.0001144
 0,0.00069151,0.00003658,0.00004145,-0.00024583,-0.00001383,-0.00051634
 ,0.00023885,-0.00038209,-0.00008633,-0.00024652,-0.00001067,-0.0000382
 8,-0.00025610,-0.00009670,0.68097641,0.81269857,0.00160736,0.00854232,
 0.00112064,-0.34419057,-0.55590117,0.04341879,-0.00135077,0.00075086,-
 0.00114731,0.00005509,0.00011188,-0.00011596,-0.00002267,-0.00006200,0
 .00010792,0.00037676,0.00040745,0.00076837,-0.00001644,-0.00011620,0.0
 0002336,0.00004139,0.00004347,0.00006709,0.33878318,0.54516804,-0.0420
 4512,0.00085982,-0.00005884,0.00020226,0.01287872,-0.00048640,0.015870
 87,0.00030969,0.00026032,-0.00029584,-0.00017763,-0.00006218,0.0000503
 0,0.00008938,0.00005897,-0.00002534,0.00002744,0.00003392,0.00004349,0
 .00001525,0.00001384,0.00000995,-0.00006882,0.00007793,-0.00011079,0.0
 0167559,0.00258415,-0.00026735,-0.01725125,-0.00011375,-0.00060894,-0.
 00027353,-0.00111211,0.01613556,0.01501744,0.00020910,0.00026108,-0.00
 008477,-0.00007358,-0.00002331,0.00002725,0.00003182,0.00003699,-0.000
 00209,0.00010037,-0.00023749,-0.00003186,0.00009771,0.00003514,-0.0000
 1925,-0.00007930,-0.00006573,0.00000052,0.00168271,0.00374166,-0.00053
 879,-0.00188327,-0.02160423,0.00081228,-0.00032994,0.00132141,0.012288
 76,0.00491023,-0.08871916,0.00005418,0.00021635,-0.00024967,-0.0001318
 8,-0.00000538,0.00007983,0.00007759,-0.00000124,-0.00004170,-0.0000022
 3,0.00009083,0.00006154,-0.00000744,-0.00007161,0.00001140,-0.00011100
 ,-0.00000979,-0.00014661,0.00448614,0.00722384,-0.00244270,-0.01664898
 ,-0.01333108,0.08895569,0.00176509,-0.00028907,0.00065114,-0.10943748,
 0.00860867,0.04317626,-0.00019636,0.00026209,0.00010996,-0.00026425,0.
 00001060,0.00006281,0.00015457,-0.00001928,-0.00002892,0.00005869,0.00
 007975,-0.00000737,-0.00019541,0.00001925,-0.00008835,0.00001579,-0.00
 009185,-0.00000652,-0.00112479,0.00749806,0.00498390,0.00164184,0.0011
 4020,-0.00081737,0.10758239,-0.00025469,-0.00066719,-0.00012344,0.0179
 7406,0.02341888,-0.00499737,-0.00002762,0.00020815,0.00027332,-0.00018
 498,0.00009191,-0.00002905,0.00007847,-0.00001601,0.00001696,0.0000155
 0,-0.00023043,0.00010281,-0.00002689,0.00001160,-0.00006412,-0.0000118
 8,0.00003508,0.00007147,0.00019467,0.00341930,0.00159426,-0.00053842,0
 .00232924,0.00130786,-0.01721833,-0.02860039,-0.00017239,0.00023802,0.
 00063688,0.04684248,-0.00250899,0.00680322,-0.00011907,0.00017834,0.00
 029926,-0.00028300,0.00000341,0.00002743,0.00016290,0.00003718,-0.0000
 2020,0.00000995,0.00000907,0.00002492,-0.00008915,0.00006355,-0.000030
 16,0.00001003,0.00002153,0.00001283,0.00050243,0.00087425,0.00024493,0
 .00117139,-0.00076380,0.00116999,-0.04803559,0.00184736,-0.00916897,0.
 00976045,-0.00008295,0.06314951,-0.01530314,0.00001459,0.02415043,-0.0
 1173896,-0.01136045,0.00646116,0.01661956,0.00135609,-0.00901025,0.005
 83777,-0.00797508,0.01441963,0.00178837,0.01068676,0.00355285,-0.00169
 854,-0.00871099,0.00521679,-0.01176210,0.01134670,0.00646618,0.0051626
 4,-0.00385590,0.00042660,0.01658997,-0.00134309,-0.00897012,-0.0058441
 1,0.00387703,0.00139239,-0.00043715,0.00794874,0.01436866,0.00182002,-
 0.01069476,0.00357035,0.00042331,0.00045185,0.00117745,-0.00168792,0.0
 0868163,0.00523226,-0.01035345,0.00010333,0.00543712,-0.00058519,0.006
 23625,-0.00176168,-0.00051300,-0.00624656,-0.00178410,6.98908148,0.000
 07046,-0.05295734,-0.00000991,0.01204423,0.00090864,-0.00369874,-0.012
 02703,0.00088530,0.00369903,0.00470037,-1.39560715,0.01283697,0.000003
 85,-0.03084311,-0.00605232,0.00038762,-0.00197589,-0.00604732,-0.00038
 308,-0.00198537,-1.40009502,-0.00079345,-1.18004208,0.02726492,0.00001
 347,-0.00603073,0.00042744,0.00292399,-0.00078368,0.00043237,-0.002912
 52,-0.00077644,-6.98445312,-0.00480744,1.40170031,6.95435298,0.0000121
 4,0.00177248,0.00000381,0.00169555,-0.00083736,0.00016716,-0.00168888,
 -0.00084547,-0.00016866,-0.00480338,1.44852739,0.00078706,0.00478374,-
 1.44868306,-0.00024210,-0.00000236,0.00203341,-0.00106095,0.00055392,-
 0.00038160,-0.00105427,-0.00055513,-0.00038113,1.39879600,0.00079474,1
 .21320443,-1.39788363,-0.00079056,-1.21395683,-0.00054297,-0.00172864,
 -0.00016755,-0.00085643,0.00050216,-0.00019852,-0.00050537,0.00214334,
 -0.00049105,0.00197422,-0.00008249,-0.00050030,-0.00077465,0.00049387,
 0.00047322,-0.00027315,0.00094335,-0.00014576,-0.00004851,-0.00030215,
 0.00029123,0.00031615,-0.00095669,-0.00351762,-0.00030970,0.00058740,0
 .00039507,0.00007491,0.00068431,0.00030564,0.00012604,-0.00093462,0.00
 187576,0.00060862,-0.00080358,-0.00033217,-0.00039291,0.00036370,-0.00
 020506,-0.00056809,0.00115241,-0.00097305,0.00019956,-0.00030658,0.000
 43822,-0.00038179,0.00002042,-0.00024682,0.00042774,0.00004004,0.00074
 966,0.00031245,0.00620142,0.00162409,-0.00074860,-0.00079291,0.0006855
 5,-0.00673537,-0.00329275,0.00046618,0.00070092,-0.00090352,-0.0000860
 0,0.00145871,-0.00005301,0.00000298,0.00062651,-0.00011381,-0.00000650
 ,0.00380144,-0.00141534,0.00378219,0.00114549,0.00136365,-0.00154307,0
 .00045303,0.00112487,-0.00100829,-0.00194912,0.00083949,-0.00145804,-0
 .00031095,0.00122761,-0.00023324,-0.00000749,-0.00030133,0.00036907,-0
 .00034247,-0.00190530,0.00066349,-0.00155342,0.00193344,-0.00176857,0.
 00020727,-0.00037958,0.00004829,0.00308228,-0.00081105,-0.00105687,-0.
 00018273,-0.00141823,-0.00004220,0.00081309,0.00013054,0.00010573,0.00
 032946,-0.00008620,0.00022712,-0.00194848,0.00089170,0.00143915,-0.001
 36204,-0.00060475,0.00002601,-0.00022370,-0.00000907,0.00014242,-0.000
 83666,-0.00046584,0.00140216,0.00073288,-0.00003330,-0.00058287,0.0003
 0465,0.00030359,0.00024358,0.00022519,0.00004230,0.00015949,0.00045190
 ,0.00018666,-0.00038629,0.00056890,-0.00006371,-0.00063235,-0.00042049
 ,-0.00014457,0.00012172,0.00040219,-0.00097729,-0.00117275,0.00145655,
 0.00048821,0.00018945,-0.00005172,0.00062220,-0.00003773,-0.00010506,-
 0.00024423,0.00022819,-0.00005300,-0.00004485,-0.00005961,-0.00030718,
 0.00046386,0.00175482,0.00048751,0.00242223,0.00086842,0.00025774,-0.0
 0032506,-0.00027220,-0.00068431,-0.00214398,-0.00515352,-0.00030511,0.
 00027708,0.00042481,0.00145302,-0.00011507,-0.00011821,0.00015364,-0.0
 0006277,0.00035690,-0.00029608,0.00002016,0.00075725,-0.00080114,-0.00
 048385,0.00310636,-0.00053872,0.00172695,-0.00016411,-0.00047682,-0.00
 212973,-0.00047426,-0.00085873,-0.00050423,-0.00019836,0.00197904,0.00
 009139,-0.00050335,-0.00077521,-0.00049698,0.00047615,0.00006392,0.000
 06681,0.00005172,-0.00001357,-0.00020160,-0.00006326,0.00007599,-0.000
 01915,-0.00001783,-0.00030901,-0.00094141,-0.00014422,0.00004173,0.000
 96756,-0.00354929,0.00031999,0.00030317,0.00028784,-0.00031546,-0.0005
 8202,0.00039160,-0.00007376,-0.00069027,0.00030422,-0.00012656,-0.0000
 6791,0.00015074,-0.00004602,0.00004366,0.00007937,0.00003202,-0.000026
 74,-0.00002997,0.00006609,0.00092034,0.00190710,0.00060963,0.00080133,
 -0.00032496,-0.00054899,-0.00114215,-0.00095265,-0.00039357,-0.0003663
 7,-0.00020603,0.00019406,0.00030768,0.00043823,-0.00037797,-0.00002040
 ,-0.00024728,0.00005234,0.00004660,0.00005701,-0.00001990,-0.00000165,
 -0.00003336,-0.00007847,0.00002557,-0.00003924,0.00040837,-0.00004036,
 0.00072743,-0.00136232,0.00060091,0.00002184,-0.00083001,0.00046814,0.
 00141011,-0.00022308,0.00000906,0.00014272,0.00073423,0.00003431,-0.00
 058552,0.00030518,-0.00030229,0.00024516,0.00007633,0.00002613,-0.0000
 7805,0.00001727,-0.00012158,-0.00002267,0.00004553,-0.00002154,-0.0001
 0196,0.00022736,-0.00004368,0.00016307,0.00055903,0.00005802,-0.000622
 03,0.00042552,0.00098358,-0.00117443,-0.00145306,0.00014340,0.00011873
 ,-0.00040281,-0.00048713,0.00018479,0.00005096,-0.00062198,-0.00003806
 ,0.00010530,0.00001787,-0.00003119,-0.00002570,0.00006169,0.00004163,0
 .00009893,0.00002300,-0.00040225,0.00036383,0.00024308,0.00022864,0.00
 004502,-0.00046645,0.00175236,0.00049579,-0.00242363,0.00086728,-0.000
 68427,0.00214230,-0.00514979,0.00025374,0.00032849,-0.00027236,-0.0003
 0872,-0.00027305,0.00042285,0.00145433,0.00011571,-0.00011759,-0.00001
 626,-0.00006531,-0.00003864,-0.00014453,0.00001720,0.00005555,-0.00010
 289,-0.00036478,0.00001355,0.00015305,0.00005835,0.00035451,-0.0008042
 4,0.00048289,0.00310777,0.00032263,-0.00621602,0.00162916,-0.00675007,
 0.00327595,0.00046361,-0.00075059,0.00078673,0.00068356,0.00070195,0.0
 0091302,-0.00008461,0.00145681,0.00005566,0.00000387,-0.00001367,-0.00
 004313,-0.00001990,0.00012843,-0.00079699,-0.00027527,0.00001735,-0.00
 005889,-0.00014543,0.00062593,0.00011749,-0.00000860,0.00045050,0.0000
 4491,-0.00029597,0.00381066,0.00140642,0.00377790,-0.00114592,-0.00114
 967,-0.00101932,0.00195456,-0.00136084,-0.00153859,-0.00044853,-0.0008
 3597,-0.00145967,0.00030856,-0.00122313,-0.00023481,0.00000716,0.00020
 189,0.00007873,0.00000069,0.00079929,-0.00063342,-0.00008438,0.0001202
 4,0.00004051,-0.00001862,0.00030318,0.00037391,0.00034495,-0.00018294,
 -0.00005810,-0.00001819,0.00192144,0.00067291,-0.00154829,-0.00193795,
 -0.00177386,0.00308840,0.00082059,-0.00105855,0.00020673,0.00037817,0.
 00004830,-0.00018940,0.00142146,-0.00003990,0.00081351,-0.00013000,0.0
 0010588,-0.00006267,-0.00003126,-0.00003323,-0.00027723,0.00008413,0.0
 0026785,-0.00002210,-0.00009807,0.00005597,0.00033192,0.00008392,0.000
 22636,-0.00039040,0.00030919,0.00075710,-0.00195045,-0.00090025,0.0014
 4415\\@


 WE THE UNWILLING
 LED BY THE UNQUALIFIED
 HAVE BEEN DOING THE UNBELIEVABLE SO LONG WITH SO LITTLE
 THAT WE NOW ATTEMPT THE IMPOSSIBLE WITH NOTHING.

                                    -- ANONYMOUS
 Job cpu time:      46 days  6 hours 39 minutes 48.1 seconds.
 Elapsed time:       1 days 16 hours 15 minutes  2.7 seconds.
 File lengths (MBytes):  RWF=  32684 Int=      0 D2E=      0 Chk=     64 Scr=      8
 Normal termination of Gaussian 16 at Wed Dec 22 06:18:41 2021.
