 Entering Gaussian System, Link 0=g16
 Input=hf_ome2_mp2_avdz_opt_freq_anharm.gjf
 Output=hf_ome2_mp2_avdz_opt_freq_anharm.log
 Initial command:
 /sw/contrib/chem-src/g16/c01/g16/l1.exe "/scr/Gau-84396.inp" -scrdir="/scr/"
 Entering Link 1 = /sw/contrib/chem-src/g16/c01/g16/l1.exe PID=     84397.
  
 Copyright (c) 1988-2019, Gaussian, Inc.  All Rights Reserved.
  
 This is part of the Gaussian(R) 16 program.  It is based on
 the Gaussian(R) 09 system (copyright 2009, Gaussian, Inc.),
 the Gaussian(R) 03 system (copyright 2003, Gaussian, Inc.),
 the Gaussian(R) 98 system (copyright 1998, Gaussian, Inc.),
 the Gaussian(R) 94 system (copyright 1995, Gaussian, Inc.),
 the Gaussian 92(TM) system (copyright 1992, Gaussian, Inc.),
 the Gaussian 90(TM) system (copyright 1990, Gaussian, Inc.),
 the Gaussian 88(TM) system (copyright 1988, Gaussian, Inc.),
 the Gaussian 86(TM) system (copyright 1986, Carnegie Mellon
 University), and the Gaussian 82(TM) system (copyright 1983,
 Carnegie Mellon University). Gaussian is a federally registered
 trademark of Gaussian, Inc.
  
 This software contains proprietary and confidential information,
 including trade secrets, belonging to Gaussian, Inc.
  
 This software is provided under written license and may be
 used, copied, transmitted, or stored only in accord with that
 written license.
  
 The following legend is applicable only to US Government
 contracts under FAR:
  
                    RESTRICTED RIGHTS LEGEND
  
 Use, reproduction and disclosure by the US Government is
 subject to restrictions as set forth in subparagraphs (a)
 and (c) of the Commercial Computer Software - Restricted
 Rights clause in FAR 52.227-19.
  
 Gaussian, Inc.
 340 Quinnipiac St., Bldg. 40, Wallingford CT 06492
  
  
 ---------------------------------------------------------------
 Warning -- This program may not be used in any manner that
 competes with the business of Gaussian, Inc. or will provide
 assistance to any competitor of Gaussian, Inc.  The licensee
 of this program is prohibited from giving any competitor of
 Gaussian, Inc. access to this program.  By using this program,
 the user acknowledges that Gaussian, Inc. is engaged in the
 business of creating and licensing software in the field of
 computational chemistry and represents and warrants to the
 licensee that it is not a competitor of Gaussian, Inc. and that
 it will not use this program in any manner prohibited above.
 ---------------------------------------------------------------
  

 Cite this work as:
 Gaussian 16, Revision C.01,
 M. J. Frisch, G. W. Trucks, H. B. Schlegel, G. E. Scuseria, 
 M. A. Robb, J. R. Cheeseman, G. Scalmani, V. Barone, 
 G. A. Petersson, H. Nakatsuji, X. Li, M. Caricato, A. V. Marenich, 
 J. Bloino, B. G. Janesko, R. Gomperts, B. Mennucci, H. P. Hratchian, 
 J. V. Ortiz, A. F. Izmaylov, J. L. Sonnenberg, D. Williams-Young, 
 F. Ding, F. Lipparini, F. Egidi, J. Goings, B. Peng, A. Petrone, 
 T. Henderson, D. Ranasinghe, V. G. Zakrzewski, J. Gao, N. Rega, 
 G. Zheng, W. Liang, M. Hada, M. Ehara, K. Toyota, R. Fukuda, 
 J. Hasegawa, M. Ishida, T. Nakajima, Y. Honda, O. Kitao, H. Nakai, 
 T. Vreven, K. Throssell, J. A. Montgomery, Jr., J. E. Peralta, 
 F. Ogliaro, M. J. Bearpark, J. J. Heyd, E. N. Brothers, K. N. Kudin, 
 V. N. Staroverov, T. A. Keith, R. Kobayashi, J. Normand, 
 K. Raghavachari, A. P. Rendell, J. C. Burant, S. S. Iyengar, 
 J. Tomasi, M. Cossi, J. M. Millam, M. Klene, C. Adamo, R. Cammi, 
 J. W. Ochterski, R. L. Martin, K. Morokuma, O. Farkas, 
 J. B. Foresman, and D. J. Fox, Gaussian, Inc., Wallingford CT, 2019.
 
 ******************************************
 Gaussian 16:  EM64L-G16RevC.01  3-Jul-2019
                18-Mar-2025 
 ******************************************
 %nprocshared=40
 Will use up to   40 processors via shared memory.
 %mem=50gb
 ----------------------------------------------
 # MP2/aug-cc-pVDZ opt freq=(vibrot,anharmonic)
 ----------------------------------------------
 1/18=20,19=15,38=1,80=1/1,3;
 2/9=110,12=2,17=6,18=5,40=1/2;
 3/5=16,7=10,11=9,25=1,30=1,71=1/1,2,3;
 4//1;
 5/5=2,38=5/2;
 8/6=4,10=1/1;
 9/15=2,16=-3/6;
 10/5=1/2;
 6/7=2,8=2,9=2,10=2/1;
 7/12=2/1,2,3,16;
 1/18=20,19=15,80=1/3(2);
 2/9=110/2;
 99//99;
 2/9=110/2;
 3/5=16,7=10,11=9,25=1,30=1,71=1/1,2,3;
 4/5=5,16=3,69=1/1;
 5/5=2,38=5/2;
 8/6=4,10=1/1;
 9/15=2,16=-3/6;
 10/5=1/2;
 7/12=2/1,2,3,16;
 1/18=20,19=15,80=1/3(-8);
 2/9=110/2;
 6/7=2,8=2,9=2,10=2/1;
 99/9=10/99;
 ----
 blah
 ----
 Symbolic Z-matrix:
 Charge =  0 Multiplicity = 1
 O                     0.33197   0.00005  -0.38217 
 C                     0.96915  -1.1759    0.10287 
 C                     0.96992   1.17558   0.10289 
 H                    -1.26948  -0.00006  -0.12957 
 F                    -2.19679   0.00032   0.07063 
 H                     0.42285   2.02438  -0.29556 
 H                     2.00546   1.20941  -0.24085 
 H                     0.94839   1.20335   1.19484 
 H                     0.42161  -2.02432  -0.29576 
 H                     0.94743  -1.20376   1.19481 
 H                     2.00471  -1.2103   -0.24073 
 
 Add virtual bond connecting atoms H4         and O1         Dist= 3.06D+00.

 GradGradGradGradGradGradGradGradGradGradGradGradGradGradGradGradGradGrad
 Berny optimization.
 Initialization pass.
                           ----------------------------
                           !    Initial Parameters    !
                           ! (Angstroms and Degrees)  !
 --------------------------                            --------------------------
 ! Name  Definition              Value          Derivative Info.                !
 --------------------------------------------------------------------------------
 ! R1    R(1,2)                  1.4227         estimate D2E/DX2                !
 ! R2    R(1,3)                  1.4227         estimate D2E/DX2                !
 ! R3    R(1,4)                  1.6213         estimate D2E/DX2                !
 ! R4    R(2,9)                  1.0856         estimate D2E/DX2                !
 ! R5    R(2,10)                 1.0925         estimate D2E/DX2                !
 ! R6    R(2,11)                 1.0916         estimate D2E/DX2                !
 ! R7    R(3,6)                  1.0856         estimate D2E/DX2                !
 ! R8    R(3,7)                  1.0916         estimate D2E/DX2                !
 ! R9    R(3,8)                  1.0925         estimate D2E/DX2                !
 ! R10   R(4,5)                  0.9487         estimate D2E/DX2                !
 ! A1    A(2,1,3)              111.4622         estimate D2E/DX2                !
 ! A2    A(2,1,4)              112.9052         estimate D2E/DX2                !
 ! A3    A(3,1,4)              112.9459         estimate D2E/DX2                !
 ! A4    A(1,2,9)              107.1519         estimate D2E/DX2                !
 ! A5    A(1,2,10)             110.6661         estimate D2E/DX2                !
 ! A6    A(1,2,11)             110.0958         estimate D2E/DX2                !
 ! A7    A(9,2,10)             109.6972         estimate D2E/DX2                !
 ! A8    A(9,2,11)             109.7708         estimate D2E/DX2                !
 ! A9    A(10,2,11)            109.43           estimate D2E/DX2                !
 ! A10   A(1,3,6)              107.1525         estimate D2E/DX2                !
 ! A11   A(1,3,7)              110.0971         estimate D2E/DX2                !
 ! A12   A(1,3,8)              110.6669         estimate D2E/DX2                !
 ! A13   A(6,3,7)              109.7694         estimate D2E/DX2                !
 ! A14   A(6,3,8)              109.6968         estimate D2E/DX2                !
 ! A15   A(7,3,8)              109.4289         estimate D2E/DX2                !
 ! A16   L(1,4,5,9,-1)         179.7937         estimate D2E/DX2                !
 ! A17   L(1,4,5,9,-2)         175.8174         estimate D2E/DX2                !
 ! D1    D(3,1,2,9)            179.2204         estimate D2E/DX2                !
 ! D2    D(3,1,2,10)            59.6556         estimate D2E/DX2                !
 ! D3    D(3,1,2,11)           -61.4476         estimate D2E/DX2                !
 ! D4    D(4,1,2,9)             50.8398         estimate D2E/DX2                !
 ! D5    D(4,1,2,10)           -68.725          estimate D2E/DX2                !
 ! D6    D(4,1,2,11)           170.1718         estimate D2E/DX2                !
 ! D7    D(2,1,3,6)           -179.2105         estimate D2E/DX2                !
 ! D8    D(2,1,3,7)             61.4581         estimate D2E/DX2                !
 ! D9    D(2,1,3,8)            -59.6452         estimate D2E/DX2                !
 ! D10   D(4,1,3,6)            -50.8516         estimate D2E/DX2                !
 ! D11   D(4,1,3,7)           -170.183          estimate D2E/DX2                !
 ! D12   D(4,1,3,8)             68.7137         estimate D2E/DX2                !
 --------------------------------------------------------------------------------
 Trust Radius=3.00D-01 FncErr=1.00D-07 GrdErr=1.00D-07 EigMax=2.50D+02 EigMin=1.00D-04
 Number of steps in this run=     49 maximum allowed number of steps=    100.
 GradGradGradGradGradGradGradGradGradGradGradGradGradGradGradGradGradGrad

                          Input orientation:                          
 ---------------------------------------------------------------------
 Center     Atomic      Atomic             Coordinates (Angstroms)
 Number     Number       Type             X           Y           Z
 ---------------------------------------------------------------------
      1          8           0        0.331972    0.000054   -0.382174
      2          6           0        0.969145   -1.175904    0.102869
      3          6           0        0.969922    1.175578    0.102893
      4          1           0       -1.269478   -0.000061   -0.129568
      5          9           0       -2.196793    0.000315    0.070626
      6          1           0        0.422848    2.024375   -0.295564
      7          1           0        2.005457    1.209412   -0.240850
      8          1           0        0.948390    1.203350    1.194843
      9          1           0        0.421610   -2.024322   -0.295756
     10          1           0        0.947425   -1.203762    1.194812
     11          1           0        2.004708   -1.210301   -0.240733
 ---------------------------------------------------------------------
                    Distance matrix (angstroms):
                    1          2          3          4          5
     1  O    0.000000
     2  C    1.422720   0.000000
     3  C    1.422718   2.351482   0.000000
     4  H    1.621250   2.539304   2.539897   0.000000
     5  F    2.568984   3.377528   3.377924   0.948678   0.000000
     6  H    2.028210   3.270929   1.085594   2.643835   3.330681
     7  H    2.069558   2.623322   1.091621   3.492908   4.383815
     8  H    2.077228   2.617955   1.092515   2.849772   3.550117
     9  H    2.028201   1.085592   3.270921   2.642921   3.330079
    10  H    2.077219   1.092514   2.618024   2.849129   3.549606
    11  H    2.069544   1.091621   2.623219   3.492468   4.383508
                    6          7          8          9         10
     6  H    0.000000
     7  H    1.780957   0.000000
     8  H    1.780896   1.782875   0.000000
     9  H    4.048697   3.601197   3.594057   0.000000
    10  H    3.594060   3.000661   2.407112   1.780897   0.000000
    11  H    3.601169   2.419713   3.000400   1.780971   1.782885
                   11
    11  H    0.000000
 Stoichiometry    C2H7FO
 Framework group  C1[X(C2H7FO)]
 Deg. of freedom    27
 Full point group                 C1      NOp   1
 Largest Abelian subgroup         C1      NOp   1
 Largest concise Abelian subgroup C1      NOp   1
                         Standard orientation:                         
 ---------------------------------------------------------------------
 Center     Atomic      Atomic             Coordinates (Angstroms)
 Number     Number       Type             X           Y           Z
 ---------------------------------------------------------------------
      1          8           0       -0.331972   -0.000054   -0.382174
      2          6           0       -0.969145    1.175904    0.102869
      3          6           0       -0.969922   -1.175578    0.102893
      4          1           0        1.269478    0.000061   -0.129568
      5          9           0        2.196793   -0.000315    0.070626
      6          1           0       -0.422848   -2.024375   -0.295564
      7          1           0       -2.005457   -1.209412   -0.240850
      8          1           0       -0.948390   -1.203350    1.194843
      9          1           0       -0.421610    2.024322   -0.295756
     10          1           0       -0.947425    1.203762    1.194812
     11          1           0       -2.004708    1.210301   -0.240733
 ---------------------------------------------------------------------
 Rotational constants (GHZ):           9.5098189           3.8033550           2.8986717
 Standard basis: Aug-CC-pVDZ (5D, 7F)
 There are   163 symmetry adapted cartesian basis functions of A   symmetry.
 There are   155 symmetry adapted basis functions of A   symmetry.
   155 basis functions,   249 primitive gaussians,   163 cartesian basis functions
    18 alpha electrons       18 beta electrons
       nuclear repulsion energy       134.3832908532 Hartrees.
 NAtoms=   11 NActive=   11 NUniq=   11 SFac= 1.00D+00 NAtFMM=   60 NAOKFM=F Big=F
 Integral buffers will be    131072 words long.
 Raffenetti 1 integral format.
 Two-electron integral symmetry is turned on.
 One-electron integrals computed using PRISM.
 NBasis=   155 RedAO= T EigKep=  2.53D-04  NBF=   155
 NBsUse=   155 1.00D-06 EigRej= -1.00D+00 NBFU=   155
 ExpMin= 2.97D-02 ExpMax= 1.47D+04 ExpMxC= 5.03D+02 IAcc=3 IRadAn=         5 AccDes= 0.00D+00
 Harris functional with IExCor=  205 and IRadAn=       5 diagonalized for initial guess.
 HarFok:  IExCor=  205 AccDes= 0.00D+00 IRadAn=         5 IDoV= 1 UseB2=F ITyADJ=14
 ICtDFT=  3500011 ScaDFX=  1.000000  1.000000  1.000000  1.000000
 FoFCou: FMM=F IPFlag=           0 FMFlag=      100000 FMFlg1=           0
         NFxFlg=           0 DoJE=T BraDBF=F KetDBF=T FulRan=T
         wScrn=  0.000000 ICntrl=       500 IOpCl=  0 I1Cent=   200000004 NGrid=           0
         NMat0=    1 NMatS0=      1 NMatT0=    0 NMatD0=    1 NMtDS0=    0 NMtDT0=    0
 Petite list used in FoFCou.
 Keep R1 ints in memory in canonical form, NReq=81820013.
 Requested convergence on RMS density matrix=1.00D-08 within 128 cycles.
 Requested convergence on MAX density matrix=1.00D-06.
 Requested convergence on             energy=1.00D-06.
 No special actions if energy rises.
 SCF Done:  E(RHF) =  -254.131891371     A.U. after   11 cycles
            NFock= 11  Conv=0.89D-08     -V/T= 2.0012
 ExpMin= 2.97D-02 ExpMax= 1.47D+04 ExpMxC= 5.03D+02 IAcc=3 IRadAn=         5 AccDes= 0.00D+00
 HarFok:  IExCor=  205 AccDes= 0.00D+00 IRadAn=         5 IDoV=-2 UseB2=F ITyADJ=14
 ICtDFT= 12500011 ScaDFX=  1.000000  1.000000  1.000000  1.000000
 Range of M.O.s used for correlation:     5   155
 NBasis=   155 NAE=    18 NBE=    18 NFC=     4 NFV=     0
 NROrb=    151 NOA=    14 NOB=    14 NVA=   137 NVB=   137

 **** Warning!!: The largest alpha MO coefficient is  0.16805464D+02

 Fully direct method using O(ONN) memory.
 JobTyp=1 Pass  1:  I=   5 to  18 NPSUse= 40 ParTrn=T ParDer=T DoDerP=T.
 Spin components of T(2) and E(2):
     alpha-alpha T2 =       0.2544354676D-01 E2=     -0.9017087406D-01
     alpha-beta  T2 =       0.1528678147D+00 E2=     -0.5522312584D+00
     beta-beta   T2 =       0.2544354676D-01 E2=     -0.9017087406D-01
 ANorm=    0.1097157650D+01
 E2 =    -0.7325730065D+00 EUMP2 =    -0.25486446437706D+03
          IDoAtm=11111111111
          Differentiating once with respect to electric field.
                with respect to dipole field.
          Differentiating once with respect to nuclear coordinates.
 Keep R1 ints in memory in canonical form, NReq=81826702.
          There are     1 degrees of freedom in the 1st order CPHF.  IDoFFX=0 NUNeed=     1.
 LinEq1:  Iter=  0 NonCon=     1 RMS=4.06D-03 Max=3.94D-02 NDo=     1
 AX will form     1 AO Fock derivatives at one time.
 LinEq1:  Iter=  1 NonCon=     1 RMS=1.01D-03 Max=9.16D-03 NDo=     1
 LinEq1:  Iter=  2 NonCon=     1 RMS=2.40D-04 Max=2.08D-03 NDo=     1
 LinEq1:  Iter=  3 NonCon=     1 RMS=6.03D-05 Max=4.67D-04 NDo=     1
 LinEq1:  Iter=  4 NonCon=     1 RMS=2.38D-05 Max=2.11D-04 NDo=     1
 LinEq1:  Iter=  5 NonCon=     1 RMS=7.29D-06 Max=7.94D-05 NDo=     1
 LinEq1:  Iter=  6 NonCon=     1 RMS=1.96D-06 Max=2.16D-05 NDo=     1
 LinEq1:  Iter=  7 NonCon=     1 RMS=3.90D-07 Max=3.70D-06 NDo=     1
 LinEq1:  Iter=  8 NonCon=     1 RMS=8.26D-08 Max=9.18D-07 NDo=     1
 LinEq1:  Iter=  9 NonCon=     1 RMS=1.44D-08 Max=1.57D-07 NDo=     1
 LinEq1:  Iter= 10 NonCon=     1 RMS=2.74D-09 Max=2.27D-08 NDo=     1
 LinEq1:  Iter= 11 NonCon=     1 RMS=3.49D-10 Max=3.18D-09 NDo=     1
 LinEq1:  Iter= 12 NonCon=     0 RMS=7.60D-11 Max=8.42D-10 NDo=     1
 Linear equations converged to 1.000D-10 1.000D-09 after    12 iterations.
 End of Minotr F.D. properties file   721 does not exist.
 End of Minotr F.D. properties file   722 does not exist.
 End of Minotr F.D. properties file   788 does not exist.

 **********************************************************************

            Population analysis using the SCF Density.

 **********************************************************************

 Orbital symmetries:
       Occupied  (A) (A) (A) (A) (A) (A) (A) (A) (A) (A) (A) (A)
                 (A) (A) (A) (A) (A) (A)
       Virtual   (A) (A) (A) (A) (A) (A) (A) (A) (A) (A) (A) (A)
                 (A) (A) (A) (A) (A) (A) (A) (A) (A) (A) (A) (A)
                 (A) (A) (A) (A) (A) (A) (A) (A) (A) (A) (A) (A)
                 (A) (A) (A) (A) (A) (A) (A) (A) (A) (A) (A) (A)
                 (A) (A) (A) (A) (A) (A) (A) (A) (A) (A) (A) (A)
                 (A) (A) (A) (A) (A) (A) (A) (A) (A) (A) (A) (A)
                 (A) (A) (A) (A) (A) (A) (A) (A) (A) (A) (A) (A)
                 (A) (A) (A) (A) (A) (A) (A) (A) (A) (A) (A) (A)
                 (A) (A) (A) (A) (A) (A) (A) (A) (A) (A) (A) (A)
                 (A) (A) (A) (A) (A) (A) (A) (A) (A) (A) (A) (A)
                 (A) (A) (A) (A) (A) (A) (A) (A) (A) (A) (A) (A)
                 (A) (A) (A) (A) (A)
 The electronic state is 1-A.
 Alpha  occ. eigenvalues --  -26.24933 -20.60603 -11.30101 -11.30098  -1.54480
 Alpha  occ. eigenvalues --   -1.41238  -0.99764  -0.90754  -0.73979  -0.68565
 Alpha  occ. eigenvalues --   -0.66728  -0.66461  -0.59416  -0.59369  -0.57683
 Alpha  occ. eigenvalues --   -0.55279  -0.51886  -0.46275
 Alpha virt. eigenvalues --    0.03022   0.04433   0.05051   0.05780   0.07219
 Alpha virt. eigenvalues --    0.07408   0.09056   0.11037   0.13988   0.14543
 Alpha virt. eigenvalues --    0.15560   0.16334   0.16774   0.17977   0.19466
 Alpha virt. eigenvalues --    0.20786   0.24452   0.25778   0.27176   0.28971
 Alpha virt. eigenvalues --    0.29148   0.29529   0.31380   0.33889   0.34153
 Alpha virt. eigenvalues --    0.34520   0.37548   0.38166   0.39248   0.41695
 Alpha virt. eigenvalues --    0.42708   0.42984   0.44462   0.44968   0.46871
 Alpha virt. eigenvalues --    0.47124   0.49398   0.49535   0.52479   0.54057
 Alpha virt. eigenvalues --    0.54732   0.57048   0.59727   0.59763   0.60754
 Alpha virt. eigenvalues --    0.61063   0.61465   0.62620   0.62964   0.63141
 Alpha virt. eigenvalues --    0.65733   0.66180   0.69278   0.69917   0.70342
 Alpha virt. eigenvalues --    0.72812   0.76334   0.76548   0.78413   0.81249
 Alpha virt. eigenvalues --    0.84915   0.89621   0.93485   1.00942   1.04131
 Alpha virt. eigenvalues --    1.06037   1.06637   1.07766   1.13965   1.14371
 Alpha virt. eigenvalues --    1.22680   1.23511   1.29300   1.33211   1.35195
 Alpha virt. eigenvalues --    1.41497   1.42050   1.43170   1.50860   1.51519
 Alpha virt. eigenvalues --    1.52961   1.55334   1.59614   1.62022   1.65904
 Alpha virt. eigenvalues --    1.72657   1.76036   1.77363   1.78171   1.81320
 Alpha virt. eigenvalues --    1.83608   1.89191   1.91329   1.92116   1.94407
 Alpha virt. eigenvalues --    1.95602   1.98798   2.07120   2.10898   2.14440
 Alpha virt. eigenvalues --    2.17743   2.18758   2.19842   2.20763   2.22929
 Alpha virt. eigenvalues --    2.25374   2.32356   2.34083   2.40593   2.45159
 Alpha virt. eigenvalues --    2.46089   2.51304   2.59569   2.64419   2.69209
 Alpha virt. eigenvalues --    2.71696   2.72689   2.77257   2.81820   2.89475
 Alpha virt. eigenvalues --    2.90388   3.04603   3.04939   3.09803   3.27002
 Alpha virt. eigenvalues --    3.33071   3.70427   3.85552   3.91607   3.97185
 Alpha virt. eigenvalues --    4.05542   4.15993   4.92115   4.92250   5.05747
 Alpha virt. eigenvalues --    5.07165   5.41928
          Condensed to atoms (all electrons):
               1          2          3          4          5          6
     1  O    9.236847   0.072735   0.072753  -0.017873  -0.038586  -0.102409
     2  C    0.072735   3.938814  -0.024295   0.002332   0.005528  -0.016751
     3  C    0.072753  -0.024295   3.938763   0.002335   0.005513   0.482287
     4  H   -0.017873   0.002332   0.002335   0.311188   0.159972  -0.000504
     5  F   -0.038586   0.005528   0.005513   0.159972   9.282842   0.003094
     6  H   -0.102409  -0.016751   0.482287  -0.000504   0.003094   1.233336
     7  H   -0.074881   0.005622   0.379649   0.002770  -0.002471  -0.209725
     8  H    0.038732   0.012982   0.325809  -0.003617  -0.000464  -0.170393
     9  H   -0.102412   0.482284  -0.016759  -0.000489   0.003105  -0.007517
    10  H    0.038856   0.325784   0.012980  -0.003645  -0.000463   0.006857
    11  H   -0.074945   0.379680   0.005632   0.002777  -0.002471   0.006205
               7          8          9         10         11
     1  O   -0.074881   0.038732  -0.102412   0.038856  -0.074945
     2  C    0.005622   0.012982   0.482284   0.325784   0.379680
     3  C    0.379649   0.325809  -0.016759   0.012980   0.005632
     4  H    0.002770  -0.003617  -0.000489  -0.003645   0.002777
     5  F   -0.002471  -0.000464   0.003105  -0.000463  -0.002471
     6  H   -0.209725  -0.170393  -0.007517   0.006857   0.006205
     7  H    1.110612  -0.102145   0.006197  -0.017073   0.010289
     8  H   -0.102145   0.932825   0.006863  -0.001396  -0.017067
     9  H    0.006197   0.006863   1.233393  -0.170369  -0.209789
    10  H   -0.017073  -0.001396  -0.170369   0.932797  -0.102185
    11  H    0.010289  -0.017067  -0.209789  -0.102185   1.110728
 Mulliken charges:
               1
     1  O   -1.048816
     2  C    0.815284
     3  C    0.815334
     4  H    0.544755
     5  F   -0.415598
     6  H   -0.224481
     7  H   -0.108844
     8  H   -0.022128
     9  H   -0.224508
    10  H   -0.022143
    11  H   -0.108855
 Sum of Mulliken charges =  -0.00000
 Mulliken charges with hydrogens summed into heavy atoms:
               1
     1  O   -1.048816
     2  C    0.459778
     3  C    0.459881
     5  F    0.129157
 Electronic spatial extent (au):  <R**2>=            425.2063
 Charge=             -0.0000 electrons
 Dipole moment (field-independent basis, Debye):
    X=             -4.3107    Y=              0.0012    Z=              0.5304  Tot=              4.3432
 Quadrupole moment (field-independent basis, Debye-Ang):
   XX=            -31.6755   YY=            -21.9375   ZZ=            -25.9144
   XY=              0.0025   XZ=             -0.8175   YZ=             -0.0002
 Traceless Quadrupole moment (field-independent basis, Debye-Ang):
   XX=             -5.1663   YY=              4.5716   ZZ=              0.5947
   XY=              0.0025   XZ=             -0.8175   YZ=             -0.0002
 Octapole moment (field-independent basis, Debye-Ang**2):
  XXX=             -9.4702  YYY=             -0.0023  ZZZ=              0.9814  XYY=              2.3489
  XXY=              0.0014  XXZ=             -2.1614  XZZ=              4.1015  YZZ=             -0.0004
  YYZ=             -1.3658  XYZ=             -0.0000
 Hexadecapole moment (field-independent basis, Debye-Ang**3):
 XXXX=           -322.5227 YYYY=           -158.2175 ZZZZ=            -41.5428 XXXY=              0.0010
 XXXZ=              3.6409 YYYX=             -0.0011 YYYZ=              0.0004 ZZZX=             -0.0666
 ZZZY=              0.0000 XXYY=            -75.0475 XXZZ=            -55.9813 YYZZ=            -34.6094
 XXYZ=             -0.0014 YYXZ=             -0.1879 ZZXY=             -0.0006
 N-N= 1.343832908532D+02 E-N=-8.701093908883D+02  KE= 2.538312727971D+02
 Calling FoFJK, ICntrl=  10002127 FMM=F ISym2X=0 I1Cent= 0 IOpClX= 0 NMat=1 NMatS=1 NMatT=0.
 ***** Axes restored to original set *****
 -------------------------------------------------------------------
 Center     Atomic                   Forces (Hartrees/Bohr)
 Number     Number              X              Y              Z
 -------------------------------------------------------------------
      1        8          -0.005924277   -0.000007223   -0.005705905
      2        6          -0.000185192    0.000463737    0.000205471
      3        6          -0.000196275   -0.000458018    0.000208328
      4        1           0.002692720    0.000022099   -0.000608470
      5        9          -0.003130687   -0.000008748    0.000828080
      6        1          -0.004066872    0.006370948   -0.003007100
      7        1           0.007504203    0.000474832   -0.002432132
      8        1          -0.000065049    0.000431316    0.007974562
      9        1          -0.004068927   -0.006371325   -0.003008922
     10        1          -0.000064305   -0.000433160    0.007975341
     11        1           0.007504661   -0.000484457   -0.002429252
 -------------------------------------------------------------------
 Cartesian Forces:  Max     0.007975341 RMS     0.003778777

 GradGradGradGradGradGradGradGradGradGradGradGradGradGradGradGradGradGrad
 Berny optimization.
 FormGI is forming the generalized inverse of G from B-inverse, IUseBI=4.
 Internal  Forces:  Max     0.008138637 RMS     0.003672815
 Search for a local minimum.
 Step number   1 out of a maximum of   49
 All quantities printed in internal units (Hartrees-Bohrs-Radians)
 Mixed Optimization -- RFO/linear search
 Second derivative matrix not updated -- first step.
 ITU=  0
     Eigenvalues ---    0.01391   0.01391   0.01443   0.01443   0.02914
     Eigenvalues ---    0.07732   0.07732   0.08085   0.08085   0.08696
     Eigenvalues ---    0.11621   0.16000   0.16000   0.16000   0.16000
     Eigenvalues ---    0.16000   0.16000   0.23006   0.34524   0.34524
     Eigenvalues ---    0.34626   0.34626   0.35327   0.35327   0.42053
     Eigenvalues ---    0.42054   0.57982
 RFO step:  Lambda=-1.44151760D-03 EMin= 1.39123294D-02
 Linear search not attempted -- first point.
 Iteration  1 RMS(Cart)=  0.01535605 RMS(Int)=  0.00003257
 Iteration  2 RMS(Cart)=  0.00006264 RMS(Int)=  0.00000142
 Iteration  3 RMS(Cart)=  0.00000000 RMS(Int)=  0.00000142
 Variable       Old X    -DE/DX   Delta X   Delta X   Delta X     New X
                                 (Linear)    (Quad)   (Total)
    R1        2.68855   0.00800   0.00000   0.01897   0.01897   2.70752
    R2        2.68855   0.00799   0.00000   0.01894   0.01894   2.70749
    R3        3.06372   0.00046   0.00000   0.00526   0.00526   3.06898
    R4        2.05147   0.00814   0.00000   0.02294   0.02294   2.07442
    R5        2.06455   0.00798   0.00000   0.02303   0.02303   2.08758
    R6        2.06286   0.00790   0.00000   0.02272   0.02272   2.08558
    R7        2.05148   0.00813   0.00000   0.02293   0.02293   2.07441
    R8        2.06286   0.00790   0.00000   0.02272   0.02272   2.08558
    R9        2.06455   0.00798   0.00000   0.02303   0.02303   2.08758
   R10        1.79274   0.00323   0.00000   0.00557   0.00557   1.79831
    A1        1.94538   0.00124   0.00000   0.00470   0.00470   1.95008
    A2        1.97057  -0.00051   0.00000  -0.00367  -0.00367   1.96690
    A3        1.97128  -0.00053   0.00000  -0.00378  -0.00378   1.96750
    A4        1.87015  -0.00011   0.00000  -0.00098  -0.00098   1.86918
    A5        1.93149   0.00033   0.00000   0.00228   0.00228   1.93377
    A6        1.92153   0.00029   0.00000   0.00189   0.00189   1.92343
    A7        1.91458  -0.00013   0.00000  -0.00099  -0.00099   1.91358
    A8        1.91586  -0.00017   0.00000  -0.00147  -0.00146   1.91440
    A9        1.90991  -0.00022   0.00000  -0.00077  -0.00078   1.90914
   A10        1.87016  -0.00011   0.00000  -0.00099  -0.00099   1.86918
   A11        1.92156   0.00028   0.00000   0.00185   0.00184   1.92340
   A12        1.93150   0.00033   0.00000   0.00228   0.00227   1.93377
   A13        1.91584  -0.00016   0.00000  -0.00144  -0.00144   1.91440
   A14        1.91457  -0.00013   0.00000  -0.00098  -0.00098   1.91359
   A15        1.90990  -0.00021   0.00000  -0.00075  -0.00075   1.90914
   A16        3.13799  -0.00004   0.00000  -0.00274  -0.00274   3.13526
   A17        3.06859  -0.00020   0.00000  -0.01279  -0.01279   3.05580
    D1        3.12799  -0.00002   0.00000  -0.00187  -0.00187   3.12611
    D2        1.04119   0.00001   0.00000  -0.00137  -0.00137   1.03981
    D3       -1.07246  -0.00013   0.00000  -0.00315  -0.00316  -1.07562
    D4        0.88732   0.00007   0.00000   0.00238   0.00239   0.88971
    D5       -1.19948   0.00011   0.00000   0.00288   0.00289  -1.19659
    D6        2.97006  -0.00003   0.00000   0.00110   0.00110   2.97116
    D7       -3.12781   0.00002   0.00000   0.00179   0.00179  -3.12602
    D8        1.07265   0.00012   0.00000   0.00307   0.00307   1.07572
    D9       -1.04101  -0.00002   0.00000   0.00130   0.00130  -1.03971
   D10       -0.88753  -0.00007   0.00000  -0.00241  -0.00241  -0.88993
   D11       -2.97025   0.00004   0.00000  -0.00113  -0.00112  -2.97138
   D12        1.19928  -0.00010   0.00000  -0.00290  -0.00290   1.19638
         Item               Value     Threshold  Converged?
 Maximum Force            0.008139     0.000450     NO 
 RMS     Force            0.003673     0.000300     NO 
 Maximum Displacement     0.033117     0.001800     NO 
 RMS     Displacement     0.015379     0.001200     NO 
 Predicted change in Energy=-7.238100D-04
 GradGradGradGradGradGradGradGradGradGradGradGradGradGradGradGradGradGrad

                          Input orientation:                          
 ---------------------------------------------------------------------
 Center     Atomic      Atomic             Coordinates (Angstroms)
 Number     Number       Type             X           Y           Z
 ---------------------------------------------------------------------
      1          8           0        0.332064    0.000227   -0.387501
      2          6           0        0.969243   -1.186000    0.102052
      3          6           0        0.970315    1.185845    0.102088
      4          1           0       -1.271936    0.000410   -0.133201
      5          9           0       -2.199833   -0.000825    0.077972
      6          1           0        0.415596    2.041900   -0.303456
      7          1           0        2.018040    1.224726   -0.242570
      8          1           0        0.946075    1.217001    1.206083
      9          1           0        0.413800   -2.041538   -0.303601
     10          1           0        0.944876   -1.217219    1.206042
     11          1           0        2.016966   -1.225794   -0.242509
 ---------------------------------------------------------------------
                    Distance matrix (angstroms):
                    1          2          3          4          5
     1  O    0.000000
     2  C    1.432758   0.000000
     3  C    1.432743   2.371845   0.000000
     4  H    1.624033   2.546723   2.547216   0.000000
     5  F    2.574328   3.383528   3.385056   0.951624   0.000000
     6  H    2.045108   3.300045   1.097729   2.654135   3.340460
     7  H    2.088760   2.651478   1.103643   3.512101   4.403995
     8  H    2.096916   2.644585   1.104700   2.862403   3.557031
     9  H    2.045123   1.097733   3.300045   2.653355   3.337842
    10  H    2.096925   1.104700   2.644632   2.861896   3.555468
    11  H    2.088790   1.103643   2.651457   3.511751   4.402800
                    6          7          8          9         10
     6  H    0.000000
     7  H    1.799808   0.000000
     8  H    1.800160   1.802156   0.000000
     9  H    4.083438   3.639477   3.630502   0.000000
    10  H    3.630506   3.035334   2.434220   1.800158   0.000000
    11  H    3.639494   2.450520   3.035205   1.799809   1.802151
                   11
    11  H    0.000000
 Stoichiometry    C2H7FO
 Framework group  C1[X(C2H7FO)]
 Deg. of freedom    27
 Full point group                 C1      NOp   1
 Largest Abelian subgroup         C1      NOp   1
 Largest concise Abelian subgroup C1      NOp   1
                         Standard orientation:                         
 ---------------------------------------------------------------------
 Center     Atomic      Atomic             Coordinates (Angstroms)
 Number     Number       Type             X           Y           Z
 ---------------------------------------------------------------------
      1          8           0       -0.333672   -0.000186   -0.386996
      2          6           0       -0.968671    1.186536    0.104188
      3          6           0       -0.971525   -1.185307    0.104312
      4          1           0        1.270990   -0.001565   -0.136914
      5          9           0        2.199440   -0.001021    0.071818
      6          1           0       -0.418516   -2.041792   -0.302660
      7          1           0       -2.020181   -1.223413   -0.237590
      8          1           0       -0.944405   -1.216445    1.208240
      9          1           0       -0.413654    2.041643   -0.302955
     10          1           0       -0.941378    1.217774    1.208110
     11          1           0       -2.017265    1.227105   -0.237618
 ---------------------------------------------------------------------
 Rotational constants (GHZ):           9.3338985           3.7893734           2.8786775
 Standard basis: Aug-CC-pVDZ (5D, 7F)
 There are   163 symmetry adapted cartesian basis functions of A   symmetry.
 There are   155 symmetry adapted basis functions of A   symmetry.
   155 basis functions,   249 primitive gaussians,   163 cartesian basis functions
    18 alpha electrons       18 beta electrons
       nuclear repulsion energy       133.5407104179 Hartrees.
 NAtoms=   11 NActive=   11 NUniq=   11 SFac= 1.00D+00 NAtFMM=   60 NAOKFM=F Big=F
 Integral buffers will be    131072 words long.
 Raffenetti 1 integral format.
 Two-electron integral symmetry is turned on.
 One-electron integrals computed using PRISM.
 NBasis=   155 RedAO= T EigKep=  2.67D-04  NBF=   155
 NBsUse=   155 1.00D-06 EigRej= -1.00D+00 NBFU=   155
 Initial guess from the checkpoint file:  "/scr/Gau-84397.chk"
 B after Tr=     0.000000   -0.000000    0.000000
         Rot=    1.000000    0.000033   -0.000290    0.000276 Ang=   0.05 deg.
 ExpMin= 2.97D-02 ExpMax= 1.47D+04 ExpMxC= 5.03D+02 IAcc=3 IRadAn=         5 AccDes= 0.00D+00
 Harris functional with IExCor=  205 and IRadAn=       5 diagonalized for initial guess.
 HarFok:  IExCor=  205 AccDes= 0.00D+00 IRadAn=         5 IDoV= 1 UseB2=F ITyADJ=14
 ICtDFT=  3500011 ScaDFX=  1.000000  1.000000  1.000000  1.000000
 FoFCou: FMM=F IPFlag=           0 FMFlag=      100000 FMFlg1=           0
         NFxFlg=           0 DoJE=T BraDBF=F KetDBF=T FulRan=T
         wScrn=  0.000000 ICntrl=       500 IOpCl=  0 I1Cent=   200000004 NGrid=           0
         NMat0=    1 NMatS0=      1 NMatT0=    0 NMatD0=    1 NMtDS0=    0 NMtDT0=    0
 Petite list used in FoFCou.
 Keep R1 ints in memory in canonical form, NReq=81818538.
 Requested convergence on RMS density matrix=1.00D-08 within 128 cycles.
 Requested convergence on MAX density matrix=1.00D-06.
 Requested convergence on             energy=1.00D-06.
 No special actions if energy rises.
 SCF Done:  E(RHF) =  -254.130657745     A.U. after    9 cycles
            NFock=  9  Conv=0.71D-08     -V/T= 2.0018
 ExpMin= 2.97D-02 ExpMax= 1.47D+04 ExpMxC= 5.03D+02 IAcc=3 IRadAn=         5 AccDes= 0.00D+00
 HarFok:  IExCor=  205 AccDes= 0.00D+00 IRadAn=         5 IDoV=-2 UseB2=F ITyADJ=14
 ICtDFT= 12500011 ScaDFX=  1.000000  1.000000  1.000000  1.000000
 Range of M.O.s used for correlation:     5   155
 NBasis=   155 NAE=    18 NBE=    18 NFC=     4 NFV=     0
 NROrb=    151 NOA=    14 NOB=    14 NVA=   137 NVB=   137

 **** Warning!!: The largest alpha MO coefficient is  0.16716315D+02

 Fully direct method using O(ONN) memory.
 JobTyp=1 Pass  1:  I=   5 to  18 NPSUse= 40 ParTrn=T ParDer=T DoDerP=T.
 Spin components of T(2) and E(2):
     alpha-alpha T2 =       0.2564974692D-01 E2=     -0.9029063176D-01
     alpha-beta  T2 =       0.1546147756D+00 E2=     -0.5539160914D+00
     beta-beta   T2 =       0.2564974692D-01 E2=     -0.9029063176D-01
 ANorm=    0.1098141279D+01
 E2 =    -0.7344973549D+00 EUMP2 =    -0.25486515510029D+03
          IDoAtm=11111111111
          Differentiating once with respect to electric field.
                with respect to dipole field.
          Differentiating once with respect to nuclear coordinates.
 Keep R1 ints in memory in canonical form, NReq=81825994.
          There are     1 degrees of freedom in the 1st order CPHF.  IDoFFX=0 NUNeed=     1.
 LinEq1:  Iter=  0 NonCon=     1 RMS=4.10D-03 Max=3.92D-02 NDo=     1
 AX will form     1 AO Fock derivatives at one time.
 LinEq1:  Iter=  1 NonCon=     1 RMS=1.02D-03 Max=9.24D-03 NDo=     1
 LinEq1:  Iter=  2 NonCon=     1 RMS=2.46D-04 Max=2.20D-03 NDo=     1
 LinEq1:  Iter=  3 NonCon=     1 RMS=6.50D-05 Max=5.38D-04 NDo=     1
 LinEq1:  Iter=  4 NonCon=     1 RMS=2.54D-05 Max=2.27D-04 NDo=     1
 LinEq1:  Iter=  5 NonCon=     1 RMS=7.85D-06 Max=8.50D-05 NDo=     1
 LinEq1:  Iter=  6 NonCon=     1 RMS=2.08D-06 Max=2.28D-05 NDo=     1
 LinEq1:  Iter=  7 NonCon=     1 RMS=4.16D-07 Max=4.02D-06 NDo=     1
 LinEq1:  Iter=  8 NonCon=     1 RMS=8.83D-08 Max=1.02D-06 NDo=     1
 LinEq1:  Iter=  9 NonCon=     1 RMS=1.56D-08 Max=1.74D-07 NDo=     1
 LinEq1:  Iter= 10 NonCon=     1 RMS=2.95D-09 Max=2.47D-08 NDo=     1
 LinEq1:  Iter= 11 NonCon=     1 RMS=3.78D-10 Max=3.61D-09 NDo=     1
 LinEq1:  Iter= 12 NonCon=     0 RMS=8.29D-11 Max=9.40D-10 NDo=     1
 Linear equations converged to 1.000D-10 1.000D-09 after    12 iterations.
 End of Minotr F.D. properties file   721 does not exist.
 End of Minotr F.D. properties file   722 does not exist.
 End of Minotr F.D. properties file   788 does not exist.
 Calling FoFJK, ICntrl=  10002127 FMM=F ISym2X=0 I1Cent= 0 IOpClX= 0 NMat=1 NMatS=1 NMatT=0.
 ***** Axes restored to original set *****
 -------------------------------------------------------------------
 Center     Atomic                   Forces (Hartrees/Bohr)
 Number     Number              X              Y              Z
 -------------------------------------------------------------------
      1        8          -0.000750006    0.000006551   -0.001635030
      2        6           0.000964745   -0.001164761    0.001087333
      3        6           0.000972589    0.001159367    0.001087387
      4        1           0.000315951   -0.000028206    0.000270226
      5        9          -0.000346353    0.000015474    0.000054116
      6        1          -0.000055032   -0.000638686   -0.000045782
      7        1          -0.000395811   -0.000265900    0.000003432
      8        1          -0.000126671   -0.000252355   -0.000388694
      9        1          -0.000055235    0.000643737   -0.000043755
     10        1          -0.000127624    0.000253501   -0.000389831
     11        1          -0.000396554    0.000271278    0.000000599
 -------------------------------------------------------------------
 Cartesian Forces:  Max     0.001635030 RMS     0.000608744

 GradGradGradGradGradGradGradGradGradGradGradGradGradGradGradGradGradGrad
 Berny optimization.
 Using GEDIIS/GDIIS optimizer.
 FormGI is forming the generalized inverse of G from B-inverse, IUseBI=4.
 Internal  Forces:  Max     0.000924437 RMS     0.000337661
 Search for a local minimum.
 Step number   2 out of a maximum of   49
 All quantities printed in internal units (Hartrees-Bohrs-Radians)
 Mixed Optimization -- En-DIIS/RFO-DIIS
 Update second derivatives using D2CorX and points    1    2
 DE= -6.91D-04 DEPred=-7.24D-04 R= 9.54D-01
 TightC=F SS=  1.41D+00  RLast= 6.50D-02 DXNew= 5.0454D-01 1.9512D-01
 Trust test= 9.54D-01 RLast= 6.50D-02 DXMaxT set to 3.00D-01
 ITU=  1  0
 Use linear search instead of GDIIS.
     Eigenvalues ---    0.01391   0.01391   0.01443   0.01444   0.02900
     Eigenvalues ---    0.07705   0.07709   0.08084   0.08084   0.08691
     Eigenvalues ---    0.11632   0.15944   0.16000   0.16000   0.16000
     Eigenvalues ---    0.16000   0.16047   0.23103   0.34524   0.34572
     Eigenvalues ---    0.34626   0.34982   0.35327   0.37275   0.41053
     Eigenvalues ---    0.42054   0.57836
 RFO step:  Lambda=-2.80044415D-05 EMin= 1.39123184D-02
 Quartic linear search produced a step of -0.03049.
 Iteration  1 RMS(Cart)=  0.00434785 RMS(Int)=  0.00001884
 Iteration  2 RMS(Cart)=  0.00002370 RMS(Int)=  0.00000997
 Iteration  3 RMS(Cart)=  0.00000000 RMS(Int)=  0.00000997
 Variable       Old X    -DE/DX   Delta X   Delta X   Delta X     New X
                                 (Linear)    (Quad)   (Total)
    R1        2.70752   0.00039  -0.00058   0.00184   0.00126   2.70878
    R2        2.70749   0.00040  -0.00058   0.00186   0.00128   2.70877
    R3        3.06898   0.00008  -0.00016   0.00115   0.00099   3.06997
    R4        2.07442  -0.00046  -0.00070  -0.00013  -0.00083   2.07358
    R5        2.08758  -0.00039  -0.00070   0.00002  -0.00068   2.08690
    R6        2.08558  -0.00039  -0.00069   0.00003  -0.00066   2.08492
    R7        2.07441  -0.00045  -0.00070  -0.00012  -0.00082   2.07359
    R8        2.08558  -0.00039  -0.00069   0.00003  -0.00066   2.08492
    R9        2.08758  -0.00039  -0.00070   0.00003  -0.00068   2.08690
   R10        1.79831   0.00035  -0.00017   0.00086   0.00069   1.79900
    A1        1.95008  -0.00092  -0.00014  -0.00534  -0.00551   1.94457
    A2        1.96690   0.00019   0.00011  -0.00309  -0.00302   1.96388
    A3        1.96750   0.00019   0.00012  -0.00305  -0.00297   1.96453
    A4        1.86918  -0.00057   0.00003  -0.00362  -0.00360   1.86558
    A5        1.93377  -0.00024  -0.00007  -0.00133  -0.00140   1.93237
    A6        1.92343  -0.00025  -0.00006  -0.00137  -0.00143   1.92199
    A7        1.91358   0.00037   0.00003   0.00208   0.00211   1.91569
    A8        1.91440   0.00038   0.00004   0.00217   0.00221   1.91661
    A9        1.90914   0.00031   0.00002   0.00203   0.00205   1.91119
   A10        1.86918  -0.00057   0.00003  -0.00361  -0.00358   1.86559
   A11        1.92340  -0.00025  -0.00006  -0.00133  -0.00139   1.92201
   A12        1.93377  -0.00024  -0.00007  -0.00132  -0.00140   1.93238
   A13        1.91440   0.00038   0.00004   0.00214   0.00218   1.91658
   A14        1.91359   0.00037   0.00003   0.00207   0.00210   1.91569
   A15        1.90914   0.00030   0.00002   0.00200   0.00202   1.91117
   A16        3.13526   0.00003   0.00008   0.00212   0.00221   3.13747
   A17        3.05580   0.00003   0.00039   0.00171   0.00210   3.05791
    D1        3.12611  -0.00018   0.00006  -0.00527  -0.00521   3.12091
    D2        1.03981  -0.00015   0.00004  -0.00482  -0.00477   1.03504
    D3       -1.07562  -0.00020   0.00010  -0.00558  -0.00547  -1.08109
    D4        0.88971   0.00018  -0.00007   0.00599   0.00591   0.89562
    D5       -1.19659   0.00022  -0.00009   0.00644   0.00635  -1.19025
    D6        2.97116   0.00016  -0.00003   0.00568   0.00565   2.97681
    D7       -3.12602   0.00018  -0.00005   0.00524   0.00518  -3.12084
    D8        1.07572   0.00020  -0.00009   0.00555   0.00545   1.08117
    D9       -1.03971   0.00015  -0.00004   0.00480   0.00475  -1.03496
   D10       -0.88993  -0.00018   0.00007  -0.00605  -0.00597  -0.89590
   D11       -2.97138  -0.00016   0.00003  -0.00574  -0.00570  -2.97708
   D12        1.19638  -0.00022   0.00009  -0.00650  -0.00640   1.18998
         Item               Value     Threshold  Converged?
 Maximum Force            0.000924     0.000450     NO 
 RMS     Force            0.000338     0.000300     NO 
 Maximum Displacement     0.013826     0.001800     NO 
 RMS     Displacement     0.004367     0.001200     NO 
 Predicted change in Energy=-1.464712D-05
 GradGradGradGradGradGradGradGradGradGradGradGradGradGradGradGradGradGrad

                          Input orientation:                          
 ---------------------------------------------------------------------
 Center     Atomic      Atomic             Coordinates (Angstroms)
 Number     Number       Type             X           Y           Z
 ---------------------------------------------------------------------
      1          8           0        0.332819    0.000006   -0.393788
      2          6           0        0.970043   -1.184445    0.101916
      3          6           0        0.970724    1.184069    0.101959
      4          1           0       -1.270568   -0.000127   -0.132382
      5          9           0       -2.198281    0.000601    0.081232
      6          1           0        0.414741    2.039069   -0.302909
      7          1           0        2.018498    1.222880   -0.241436
      8          1           0        0.943294    1.209685    1.205663
      9          1           0        0.413602   -2.039098   -0.303048
     10          1           0        0.942518   -1.210120    1.205615
     11          1           0        2.017814   -1.223785   -0.241424
 ---------------------------------------------------------------------
                    Distance matrix (angstroms):
                    1          2          3          4          5
     1  O    0.000000
     2  C    1.433423   0.000000
     3  C    1.433421   2.368515   0.000000
     4  H    1.624556   2.545160   2.545708   0.000000
     5  F    2.575288   3.382756   3.382842   0.951989   0.000000
     6  H    2.042730   3.295950   1.097296   2.650975   3.336285
     7  H    2.088096   2.648087   1.103294   3.510783   4.402193
     8  H    2.096246   2.636443   1.104342   2.855730   3.549045
     9  H    2.042720   1.097293   3.295941   2.650087   3.336162
    10  H    2.096241   1.104341   2.636473   2.855182   3.548901
    11  H    2.088083   1.103293   2.648032   3.510369   4.402123
                    6          7          8          9         10
     6  H    0.000000
     7  H    1.800550   0.000000
     8  H    1.800843   1.802869   0.000000
     9  H    4.078167   3.635930   3.620963   0.000000
    10  H    3.620969   3.028395   2.419804   1.800839   0.000000
    11  H    3.635909   2.446665   3.028272   1.800564   1.802878
                   11
    11  H    0.000000
 Stoichiometry    C2H7FO
 Framework group  C1[X(C2H7FO)]
 Deg. of freedom    27
 Full point group                 C1      NOp   1
 Largest Abelian subgroup         C1      NOp   1
 Largest concise Abelian subgroup C1      NOp   1
                         Standard orientation:                         
 ---------------------------------------------------------------------
 Center     Atomic      Atomic             Coordinates (Angstroms)
 Number     Number       Type             X           Y           Z
 ---------------------------------------------------------------------
      1          8           0       -0.334324   -0.000017   -0.392287
      2          6           0       -0.969789    1.184299    0.105991
      3          6           0       -0.970003   -1.184216    0.105991
      4          1           0        1.270098    0.000428   -0.137312
      5          9           0        2.198660   -0.000121    0.072581
      6          1           0       -0.415479   -2.039097   -0.301120
      7          1           0       -2.019138   -1.223227   -0.233201
      8          1           0       -0.938142   -1.209846    1.209576
      9          1           0       -0.415146    2.039069   -0.301184
     10          1           0       -0.937845    1.209958    1.209571
     11          1           0       -2.018937    1.223438   -0.233144
 ---------------------------------------------------------------------
 Rotational constants (GHZ):           9.3484751           3.7895938           2.8827100
 Standard basis: Aug-CC-pVDZ (5D, 7F)
 There are   163 symmetry adapted cartesian basis functions of A   symmetry.
 There are   155 symmetry adapted basis functions of A   symmetry.
   155 basis functions,   249 primitive gaussians,   163 cartesian basis functions
    18 alpha electrons       18 beta electrons
       nuclear repulsion energy       133.5754630825 Hartrees.
 NAtoms=   11 NActive=   11 NUniq=   11 SFac= 1.00D+00 NAtFMM=   60 NAOKFM=F Big=F
 Integral buffers will be    131072 words long.
 Raffenetti 1 integral format.
 Two-electron integral symmetry is turned on.
 One-electron integrals computed using PRISM.
 NBasis=   155 RedAO= T EigKep=  2.66D-04  NBF=   155
 NBsUse=   155 1.00D-06 EigRej= -1.00D+00 NBFU=   155
 Initial guess from the checkpoint file:  "/scr/Gau-84397.chk"
 B after Tr=    -0.000000    0.000000   -0.000000
         Rot=    1.000000   -0.000045   -0.000186   -0.000351 Ang=  -0.05 deg.
 Keep R1 ints in memory in canonical form, NReq=81818715.
 Requested convergence on RMS density matrix=1.00D-08 within 128 cycles.
 Requested convergence on MAX density matrix=1.00D-06.
 Requested convergence on             energy=1.00D-06.
 No special actions if energy rises.
 SCF Done:  E(RHF) =  -254.130566421     A.U. after    8 cycles
            NFock=  8  Conv=0.76D-08     -V/T= 2.0018
 ExpMin= 2.97D-02 ExpMax= 1.47D+04 ExpMxC= 5.03D+02 IAcc=3 IRadAn=         5 AccDes= 0.00D+00
 HarFok:  IExCor=  205 AccDes= 0.00D+00 IRadAn=         5 IDoV=-2 UseB2=F ITyADJ=14
 ICtDFT= 12500011 ScaDFX=  1.000000  1.000000  1.000000  1.000000
 Range of M.O.s used for correlation:     5   155
 NBasis=   155 NAE=    18 NBE=    18 NFC=     4 NFV=     0
 NROrb=    151 NOA=    14 NOB=    14 NVA=   137 NVB=   137

 **** Warning!!: The largest alpha MO coefficient is  0.16712043D+02

 Fully direct method using O(ONN) memory.
 JobTyp=1 Pass  1:  I=   5 to  18 NPSUse= 40 ParTrn=T ParDer=T DoDerP=T.
 Spin components of T(2) and E(2):
     alpha-alpha T2 =       0.2565972334D-01 E2=     -0.9030963616D-01
     alpha-beta  T2 =       0.1546477482D+00 E2=     -0.5539887395D+00
     beta-beta   T2 =       0.2565972334D-01 E2=     -0.9030963616D-01
 ANorm=    0.1098165377D+01
 E2 =    -0.7346080118D+00 EUMP2 =    -0.25486517443307D+03
          IDoAtm=11111111111
          Differentiating once with respect to electric field.
                with respect to dipole field.
          Differentiating once with respect to nuclear coordinates.
 Keep R1 ints in memory in canonical form, NReq=81825994.
          There are     1 degrees of freedom in the 1st order CPHF.  IDoFFX=0 NUNeed=     1.
 LinEq1:  Iter=  0 NonCon=     1 RMS=4.10D-03 Max=3.94D-02 NDo=     1
 AX will form     1 AO Fock derivatives at one time.
 LinEq1:  Iter=  1 NonCon=     1 RMS=1.02D-03 Max=9.27D-03 NDo=     1
 LinEq1:  Iter=  2 NonCon=     1 RMS=2.47D-04 Max=2.20D-03 NDo=     1
 LinEq1:  Iter=  3 NonCon=     1 RMS=6.52D-05 Max=5.38D-04 NDo=     1
 LinEq1:  Iter=  4 NonCon=     1 RMS=2.56D-05 Max=2.25D-04 NDo=     1
 LinEq1:  Iter=  5 NonCon=     1 RMS=7.89D-06 Max=8.51D-05 NDo=     1
 LinEq1:  Iter=  6 NonCon=     1 RMS=2.09D-06 Max=2.29D-05 NDo=     1
 LinEq1:  Iter=  7 NonCon=     1 RMS=4.18D-07 Max=4.02D-06 NDo=     1
 LinEq1:  Iter=  8 NonCon=     1 RMS=8.84D-08 Max=1.01D-06 NDo=     1
 LinEq1:  Iter=  9 NonCon=     1 RMS=1.56D-08 Max=1.73D-07 NDo=     1
 LinEq1:  Iter= 10 NonCon=     1 RMS=2.97D-09 Max=2.47D-08 NDo=     1
 LinEq1:  Iter= 11 NonCon=     1 RMS=3.82D-10 Max=3.59D-09 NDo=     1
 LinEq1:  Iter= 12 NonCon=     0 RMS=8.39D-11 Max=9.55D-10 NDo=     1
 Linear equations converged to 1.000D-10 1.000D-09 after    12 iterations.
 End of Minotr F.D. properties file   721 does not exist.
 End of Minotr F.D. properties file   722 does not exist.
 End of Minotr F.D. properties file   788 does not exist.
 Calling FoFJK, ICntrl=  10002127 FMM=F ISym2X=0 I1Cent= 0 IOpClX= 0 NMat=1 NMatS=1 NMatT=0.
 ***** Axes restored to original set *****
 -------------------------------------------------------------------
 Center     Atomic                   Forces (Hartrees/Bohr)
 Number     Number              X              Y              Z
 -------------------------------------------------------------------
      1        8          -0.000117739   -0.000013985   -0.000870305
      2        6           0.000194939   -0.000841616    0.000416456
      3        6           0.000184106    0.000848526    0.000419873
      4        1           0.000049229    0.000032419    0.000229046
      5        9          -0.000011294   -0.000014744    0.000036595
      6        1           0.000113490   -0.000092384    0.000059380
      7        1          -0.000215304   -0.000083187    0.000056362
      8        1          -0.000050263   -0.000056638   -0.000232582
      9        1           0.000115387    0.000088057    0.000057768
     10        1          -0.000047972    0.000056102   -0.000231092
     11        1          -0.000214580    0.000077451    0.000058499
 -------------------------------------------------------------------
 Cartesian Forces:  Max     0.000870305 RMS     0.000299444

 GradGradGradGradGradGradGradGradGradGradGradGradGradGradGradGradGradGrad
 Berny optimization.
 Using GEDIIS/GDIIS optimizer.
 FormGI is forming the generalized inverse of G from B-inverse, IUseBI=4.
 Internal  Forces:  Max     0.000637847 RMS     0.000188696
 Search for a local minimum.
 Step number   3 out of a maximum of   49
 All quantities printed in internal units (Hartrees-Bohrs-Radians)
 Mixed Optimization -- En-DIIS/RFO-DIIS
 Swapping is turned off.
 Update second derivatives using D2CorX and points    1    2    3
 DE= -1.93D-05 DEPred=-1.46D-05 R= 1.32D+00
 TightC=F SS=  1.41D+00  RLast= 2.24D-02 DXNew= 5.0454D-01 6.7156D-02
 Trust test= 1.32D+00 RLast= 2.24D-02 DXMaxT set to 3.00D-01
 ITU=  1  1  0
     Eigenvalues ---    0.01309   0.01391   0.01442   0.01457   0.01716
     Eigenvalues ---    0.07725   0.07796   0.08112   0.08112   0.08696
     Eigenvalues ---    0.11542   0.15260   0.16000   0.16000   0.16000
     Eigenvalues ---    0.16000   0.17284   0.27505   0.34524   0.34559
     Eigenvalues ---    0.34626   0.34738   0.35327   0.35341   0.42047
     Eigenvalues ---    0.42628   0.58262
 En-DIIS/RFO-DIIS/Sim-DIIS IScMMF=       -3 using points:     3    2
 RFO step:  Lambda=-1.80586415D-05.
 DidBck=F Rises=F RFO-DIIS coefs:    2.25021   -1.25021
 Iteration  1 RMS(Cart)=  0.00621878 RMS(Int)=  0.00004066
 Iteration  2 RMS(Cart)=  0.00004653 RMS(Int)=  0.00002792
 Iteration  3 RMS(Cart)=  0.00000000 RMS(Int)=  0.00002792
 Variable       Old X    -DE/DX   Delta X   Delta X   Delta X     New X
                                 (Linear)    (Quad)   (Total)
    R1        2.70878   0.00064   0.00157   0.00155   0.00312   2.71190
    R2        2.70877   0.00063   0.00160   0.00150   0.00310   2.71187
    R3        3.06997   0.00000   0.00124  -0.00061   0.00063   3.07060
    R4        2.07358  -0.00015  -0.00104   0.00038  -0.00066   2.07292
    R5        2.08690  -0.00023  -0.00085  -0.00010  -0.00095   2.08595
    R6        2.08492  -0.00022  -0.00083  -0.00009  -0.00092   2.08400
    R7        2.07359  -0.00015  -0.00102   0.00036  -0.00067   2.07292
    R8        2.08492  -0.00022  -0.00083  -0.00010  -0.00092   2.08400
    R9        2.08690  -0.00023  -0.00085  -0.00011  -0.00096   2.08595
   R10        1.79900   0.00002   0.00086  -0.00040   0.00047   1.79946
    A1        1.94457   0.00024  -0.00689   0.00420  -0.00276   1.94181
    A2        1.96388  -0.00017  -0.00377  -0.00236  -0.00624   1.95764
    A3        1.96453  -0.00019  -0.00371  -0.00266  -0.00648   1.95806
    A4        1.86558   0.00010  -0.00450   0.00386  -0.00064   1.86494
    A5        1.93237  -0.00010  -0.00175   0.00008  -0.00167   1.93070
    A6        1.92199  -0.00009  -0.00179   0.00019  -0.00160   1.92039
    A7        1.91569   0.00001   0.00263  -0.00137   0.00126   1.91695
    A8        1.91661   0.00001   0.00277  -0.00144   0.00132   1.91793
    A9        1.91119   0.00007   0.00256  -0.00124   0.00132   1.91251
   A10        1.86559   0.00010  -0.00448   0.00382  -0.00066   1.86493
   A11        1.92201  -0.00010  -0.00173   0.00008  -0.00165   1.92036
   A12        1.93238  -0.00010  -0.00174   0.00007  -0.00168   1.93070
   A13        1.91658   0.00002   0.00273  -0.00137   0.00136   1.91794
   A14        1.91569   0.00002   0.00262  -0.00136   0.00126   1.91695
   A15        1.91117   0.00007   0.00253  -0.00118   0.00135   1.91252
   A16        3.13747  -0.00003   0.00276  -0.00502  -0.00226   3.13520
   A17        3.05791  -0.00004   0.00263  -0.00612  -0.00349   3.05441
    D1        3.12091  -0.00008  -0.00651   0.00107  -0.00543   3.11548
    D2        1.03504  -0.00010  -0.00597   0.00034  -0.00562   1.02942
    D3       -1.08109  -0.00006  -0.00684   0.00171  -0.00511  -1.08621
    D4        0.89562   0.00013   0.00739   0.00313   0.01051   0.90613
    D5       -1.19025   0.00010   0.00793   0.00240   0.01032  -1.17993
    D6        2.97681   0.00015   0.00706   0.00378   0.01082   2.98763
    D7       -3.12084   0.00008   0.00648  -0.00112   0.00535  -3.11549
    D8        1.08117   0.00005   0.00682  -0.00178   0.00502   1.08619
    D9       -1.03496   0.00010   0.00594  -0.00040   0.00552  -1.02943
   D10       -0.89590  -0.00012  -0.00746  -0.00302  -0.01046  -0.90637
   D11       -2.97708  -0.00014  -0.00713  -0.00368  -0.01079  -2.98787
   D12        1.18998  -0.00010  -0.00800  -0.00230  -0.01029   1.17969
         Item               Value     Threshold  Converged?
 Maximum Force            0.000638     0.000450     NO 
 RMS     Force            0.000189     0.000300     YES
 Maximum Displacement     0.018707     0.001800     NO 
 RMS     Displacement     0.006249     0.001200     NO 
 Predicted change in Energy=-9.005695D-06
 GradGradGradGradGradGradGradGradGradGradGradGradGradGradGradGradGradGrad

                          Input orientation:                          
 ---------------------------------------------------------------------
 Center     Atomic      Atomic             Coordinates (Angstroms)
 Number     Number       Type             X           Y           Z
 ---------------------------------------------------------------------
      1          8           0        0.335195    0.000133   -0.402811
      2          6           0        0.969519   -1.184625    0.100596
      3          6           0        0.970413    1.184372    0.100650
      4          1           0       -1.266830    0.000357   -0.131184
      5          9           0       -2.192749   -0.000346    0.091131
      6          1           0        0.415686    2.039568   -0.304566
      7          1           0        2.019342    1.223236   -0.237608
      8          1           0        0.936488    1.204681    1.203776
      9          1           0        0.414137   -2.039383   -0.304651
     10          1           0        0.935586   -1.204956    1.203723
     11          1           0        2.018418   -1.224303   -0.237659
 ---------------------------------------------------------------------
                    Distance matrix (angstroms):
                    1          2          3          4          5
     1  O    0.000000
     2  C    1.435074   0.000000
     3  C    1.435059   2.368997   0.000000
     4  H    1.624889   2.541488   2.541829   0.000000
     5  F    2.575748   3.376766   3.377757   0.952235   0.000000
     6  H    2.043385   3.296408   1.096942   2.649396   3.334929
     7  H    2.087972   2.648453   1.102806   3.507946   4.398515
     8  H    2.096094   2.631896   1.103835   2.843787   3.533015
     9  H    2.043403   1.096944   3.296408   2.648826   3.333192
    10  H    2.096106   1.103836   2.631895   2.843482   3.532057
    11  H    2.088004   1.102806   2.648487   3.507703   4.397739
                    6          7          8          9         10
     6  H    0.000000
     7  H    1.800721   0.000000
     8  H    1.800936   1.802916   0.000000
     9  H    4.078951   3.636738   3.615543   0.000000
    10  H    3.615545   3.024579   2.409636   1.800937   0.000000
    11  H    3.636768   2.447539   3.024611   1.800712   1.802909
                   11
    11  H    0.000000
 Stoichiometry    C2H7FO
 Framework group  C1[X(C2H7FO)]
 Deg. of freedom    27
 Full point group                 C1      NOp   1
 Largest Abelian subgroup         C1      NOp   1
 Largest concise Abelian subgroup C1      NOp   1
                         Standard orientation:                         
 ---------------------------------------------------------------------
 Center     Atomic      Atomic             Coordinates (Angstroms)
 Number     Number       Type             X           Y           Z
 ---------------------------------------------------------------------
      1          8           0       -0.336755   -0.000122   -0.400051
      2          6           0       -0.966560    1.184896    0.108394
      3          6           0       -0.968411   -1.184101    0.108477
      4          1           0        1.267388   -0.000992   -0.141226
      5          9           0        2.195053   -0.000662    0.073689
      6          1           0       -0.417283   -2.039523   -0.301148
      7          1           0       -2.020024   -1.222543   -0.221394
      8          1           0       -0.925687   -1.204416    1.211298
      9          1           0       -0.414086    2.039426   -0.301284
     10          1           0       -0.923811    1.205220    1.211214
     11          1           0       -2.018111    1.224995   -0.221476
 ---------------------------------------------------------------------
 Rotational constants (GHZ):           9.3302675           3.7988465           2.8899907
 Standard basis: Aug-CC-pVDZ (5D, 7F)
 There are   163 symmetry adapted cartesian basis functions of A   symmetry.
 There are   155 symmetry adapted basis functions of A   symmetry.
   155 basis functions,   249 primitive gaussians,   163 cartesian basis functions
    18 alpha electrons       18 beta electrons
       nuclear repulsion energy       133.5896707301 Hartrees.
 NAtoms=   11 NActive=   11 NUniq=   11 SFac= 1.00D+00 NAtFMM=   60 NAOKFM=F Big=F
 Integral buffers will be    131072 words long.
 Raffenetti 1 integral format.
 Two-electron integral symmetry is turned on.
 One-electron integrals computed using PRISM.
 NBasis=   155 RedAO= T EigKep=  2.65D-04  NBF=   155
 NBsUse=   155 1.00D-06 EigRej= -1.00D+00 NBFU=   155
 Initial guess from the checkpoint file:  "/scr/Gau-84397.chk"
 B after Tr=     0.000000   -0.000000    0.000000
         Rot=    1.000000    0.000027   -0.000570    0.000218 Ang=   0.07 deg.
 Keep R1 ints in memory in canonical form, NReq=81818715.
 Requested convergence on RMS density matrix=1.00D-08 within 128 cycles.
 Requested convergence on MAX density matrix=1.00D-06.
 Requested convergence on             energy=1.00D-06.
 No special actions if energy rises.
 SCF Done:  E(RHF) =  -254.130444899     A.U. after    9 cycles
            NFock=  9  Conv=0.43D-08     -V/T= 2.0018
 ExpMin= 2.97D-02 ExpMax= 1.47D+04 ExpMxC= 5.03D+02 IAcc=3 IRadAn=         5 AccDes= 0.00D+00
 HarFok:  IExCor=  205 AccDes= 0.00D+00 IRadAn=         5 IDoV=-2 UseB2=F ITyADJ=14
 ICtDFT= 12500011 ScaDFX=  1.000000  1.000000  1.000000  1.000000
 Range of M.O.s used for correlation:     5   155
 NBasis=   155 NAE=    18 NBE=    18 NFC=     4 NFV=     0
 NROrb=    151 NOA=    14 NOB=    14 NVA=   137 NVB=   137

 **** Warning!!: The largest alpha MO coefficient is  0.16614990D+02

 Fully direct method using O(ONN) memory.
 JobTyp=1 Pass  1:  I=   5 to  18 NPSUse= 40 ParTrn=T ParDer=T DoDerP=T.
 Spin components of T(2) and E(2):
     alpha-alpha T2 =       0.2567489776D-01 E2=     -0.9032713555D-01
     alpha-beta  T2 =       0.1547180102D+00 E2=     -0.5540879193D+00
     beta-beta   T2 =       0.2567489776D-01 E2=     -0.9032713555D-01
 ANorm=    0.1098211185D+01
 E2 =    -0.7347421904D+00 EUMP2 =    -0.25486518708966D+03
          IDoAtm=11111111111
          Differentiating once with respect to electric field.
                with respect to dipole field.
          Differentiating once with respect to nuclear coordinates.
 Keep R1 ints in memory in canonical form, NReq=81825994.
          There are     1 degrees of freedom in the 1st order CPHF.  IDoFFX=0 NUNeed=     1.
 LinEq1:  Iter=  0 NonCon=     1 RMS=4.10D-03 Max=3.94D-02 NDo=     1
 AX will form     1 AO Fock derivatives at one time.
 LinEq1:  Iter=  1 NonCon=     1 RMS=1.03D-03 Max=9.28D-03 NDo=     1
 LinEq1:  Iter=  2 NonCon=     1 RMS=2.47D-04 Max=2.19D-03 NDo=     1
 LinEq1:  Iter=  3 NonCon=     1 RMS=6.57D-05 Max=5.40D-04 NDo=     1
 LinEq1:  Iter=  4 NonCon=     1 RMS=2.59D-05 Max=2.24D-04 NDo=     1
 LinEq1:  Iter=  5 NonCon=     1 RMS=7.96D-06 Max=8.55D-05 NDo=     1
 LinEq1:  Iter=  6 NonCon=     1 RMS=2.10D-06 Max=2.30D-05 NDo=     1
 LinEq1:  Iter=  7 NonCon=     1 RMS=4.20D-07 Max=4.05D-06 NDo=     1
 LinEq1:  Iter=  8 NonCon=     1 RMS=8.87D-08 Max=1.01D-06 NDo=     1
 LinEq1:  Iter=  9 NonCon=     1 RMS=1.57D-08 Max=1.71D-07 NDo=     1
 LinEq1:  Iter= 10 NonCon=     1 RMS=3.00D-09 Max=2.46D-08 NDo=     1
 LinEq1:  Iter= 11 NonCon=     1 RMS=3.87D-10 Max=3.59D-09 NDo=     1
 LinEq1:  Iter= 12 NonCon=     0 RMS=8.52D-11 Max=9.85D-10 NDo=     1
 Linear equations converged to 1.000D-10 1.000D-09 after    12 iterations.
 End of Minotr F.D. properties file   721 does not exist.
 End of Minotr F.D. properties file   722 does not exist.
 End of Minotr F.D. properties file   788 does not exist.
 Calling FoFJK, ICntrl=  10002127 FMM=F ISym2X=0 I1Cent= 0 IOpClX= 0 NMat=1 NMatS=1 NMatT=0.
 ***** Axes restored to original set *****
 -------------------------------------------------------------------
 Center     Atomic                   Forces (Hartrees/Bohr)
 Number     Number              X              Y              Z
 -------------------------------------------------------------------
      1        8           0.000366341   -0.000000275   -0.000198413
      2        6          -0.000337538    0.000134357   -0.000094463
      3        6          -0.000333336   -0.000136151   -0.000094580
      4        1          -0.000022624   -0.000017170    0.000215572
      5        9           0.000123104    0.000009742    0.000011211
      6        1           0.000066240    0.000120111    0.000001360
      7        1           0.000047963    0.000066683    0.000051706
      8        1          -0.000010119    0.000100954    0.000028482
      9        1           0.000064316   -0.000116685    0.000002684
     10        1          -0.000011873   -0.000100168    0.000027084
     11        1           0.000047526   -0.000061399    0.000049357
 -------------------------------------------------------------------
 Cartesian Forces:  Max     0.000366341 RMS     0.000133961

 GradGradGradGradGradGradGradGradGradGradGradGradGradGradGradGradGradGrad
 Berny optimization.
 Using GEDIIS/GDIIS optimizer.
 FormGI is forming the generalized inverse of G from B-inverse, IUseBI=4.
 Internal  Forces:  Max     0.000551400 RMS     0.000129936
 Search for a local minimum.
 Step number   4 out of a maximum of   49
 All quantities printed in internal units (Hartrees-Bohrs-Radians)
 Mixed Optimization -- En-DIIS/RFO-DIIS
 Swapping is turned off.
 Update second derivatives using D2CorX and points    1    2    3    4
 DE= -1.27D-05 DEPred=-9.01D-06 R= 1.41D+00
 TightC=F SS=  1.41D+00  RLast= 3.15D-02 DXNew= 5.0454D-01 9.4367D-02
 Trust test= 1.41D+00 RLast= 3.15D-02 DXMaxT set to 3.00D-01
 ITU=  1  1  1  0
     Eigenvalues ---    0.00640   0.01391   0.01438   0.01463   0.01677
     Eigenvalues ---    0.07743   0.07857   0.08123   0.08123   0.08732
     Eigenvalues ---    0.11452   0.15999   0.16000   0.16000   0.16000
     Eigenvalues ---    0.16486   0.17673   0.33807   0.34524   0.34572
     Eigenvalues ---    0.34626   0.35165   0.35328   0.39152   0.41926
     Eigenvalues ---    0.42125   0.59079
 En-DIIS/RFO-DIIS/Sim-DIIS IScMMF=       -3 using points:     4    3    2
 RFO step:  Lambda=-1.29323250D-05.
 DidBck=F Rises=F RFO-DIIS coefs:    1.78160   -0.29552   -0.48609
 Iteration  1 RMS(Cart)=  0.00737919 RMS(Int)=  0.00005728
 Iteration  2 RMS(Cart)=  0.00005338 RMS(Int)=  0.00004569
 Iteration  3 RMS(Cart)=  0.00000000 RMS(Int)=  0.00004569
 Variable       Old X    -DE/DX   Delta X   Delta X   Delta X     New X
                                 (Linear)    (Quad)   (Total)
    R1        2.71190   0.00001   0.00305  -0.00078   0.00227   2.71416
    R2        2.71187   0.00002   0.00304  -0.00075   0.00229   2.71416
    R3        3.07060  -0.00006   0.00097  -0.00093   0.00004   3.07064
    R4        2.07292   0.00006  -0.00092   0.00070  -0.00022   2.07271
    R5        2.08595   0.00003  -0.00108   0.00070  -0.00038   2.08557
    R6        2.08400   0.00003  -0.00104   0.00069  -0.00035   2.08365
    R7        2.07292   0.00006  -0.00092   0.00071  -0.00021   2.07271
    R8        2.08400   0.00003  -0.00104   0.00069  -0.00035   2.08365
    R9        2.08595   0.00003  -0.00108   0.00070  -0.00038   2.08557
   R10        1.79946  -0.00012   0.00070  -0.00034   0.00036   1.79983
    A1        1.94181   0.00055  -0.00484   0.00305  -0.00191   1.93989
    A2        1.95764  -0.00027  -0.00634  -0.00076  -0.00727   1.95037
    A3        1.95806  -0.00026  -0.00650  -0.00064  -0.00732   1.95074
    A4        1.86494   0.00013  -0.00225   0.00131  -0.00095   1.86399
    A5        1.93070   0.00008  -0.00199   0.00116  -0.00084   1.92986
    A6        1.92039   0.00008  -0.00195   0.00116  -0.00079   1.91960
    A7        1.91695  -0.00011   0.00201  -0.00127   0.00073   1.91768
    A8        1.91793  -0.00011   0.00210  -0.00128   0.00082   1.91875
    A9        1.91251  -0.00008   0.00203  -0.00104   0.00098   1.91349
   A10        1.86493   0.00013  -0.00226   0.00133  -0.00094   1.86399
   A11        1.92036   0.00009  -0.00196   0.00121  -0.00075   1.91961
   A12        1.93070   0.00008  -0.00199   0.00116  -0.00083   1.92987
   A13        1.91794  -0.00011   0.00212  -0.00133   0.00079   1.91874
   A14        1.91695  -0.00011   0.00201  -0.00127   0.00073   1.91768
   A15        1.91252  -0.00008   0.00204  -0.00107   0.00096   1.91348
   A16        3.13520   0.00001  -0.00070   0.00111   0.00041   3.13561
   A17        3.05441  -0.00006  -0.00171  -0.00326  -0.00497   3.04944
    D1        3.11548  -0.00002  -0.00677   0.00253  -0.00422   3.11126
    D2        1.02942  -0.00002  -0.00671   0.00262  -0.00406   1.02536
    D3       -1.08621  -0.00002  -0.00666   0.00241  -0.00422  -1.09043
    D4        0.90613   0.00010   0.01109   0.00156   0.01262   0.91875
    D5       -1.17993   0.00010   0.01115   0.00165   0.01278  -1.16715
    D6        2.98763   0.00009   0.01120   0.00144   0.01261   3.00024
    D7       -3.11549   0.00002   0.00670  -0.00253   0.00414  -3.11135
    D8        1.08619   0.00003   0.00657  -0.00239   0.00416   1.09035
    D9       -1.02943   0.00002   0.00663  -0.00261   0.00399  -1.02544
   D10       -0.90637  -0.00010  -0.01108  -0.00162  -0.01267  -0.91904
   D11       -2.98787  -0.00010  -0.01120  -0.00148  -0.01266  -3.00053
   D12        1.17969  -0.00010  -0.01115  -0.00170  -0.01282   1.16687
         Item               Value     Threshold  Converged?
 Maximum Force            0.000551     0.000450     NO 
 RMS     Force            0.000130     0.000300     YES
 Maximum Displacement     0.023335     0.001800     NO 
 RMS     Displacement     0.007412     0.001200     NO 
 Predicted change in Energy=-5.880859D-06
 GradGradGradGradGradGradGradGradGradGradGradGradGradGradGradGradGradGrad

                          Input orientation:                          
 ---------------------------------------------------------------------
 Center     Atomic      Atomic             Coordinates (Angstroms)
 Number     Number       Type             X           Y           Z
 ---------------------------------------------------------------------
      1          8           0        0.338144    0.000013   -0.412053
      2          6           0        0.968866   -1.184904    0.098871
      3          6           0        0.969555    1.184531    0.098939
      4          1           0       -1.261929    0.000132   -0.129027
      5          9           0       -2.185540    0.000348    0.103480
      6          1           0        0.416276    2.039535   -0.308354
      7          1           0        2.020406    1.224335   -0.232574
      8          1           0        0.927677    1.201400    1.201651
      9          1           0        0.415034   -2.039557   -0.308405
     10          1           0        0.927045   -1.201768    1.201586
     11          1           0        2.019671   -1.225330   -0.232715
 ---------------------------------------------------------------------
                    Distance matrix (angstroms):
                    1          2          3          4          5
     1  O    0.000000
     2  C    1.436274   0.000000
     3  C    1.436271   2.369435   0.000000
     4  H    1.624911   2.536276   2.536590   0.000000
     5  F    2.575801   3.369736   3.370005   0.952427   0.000000
     6  H    2.043651   3.296695   1.096831   2.647205   3.331266
     7  H    2.088345   2.649533   1.102621   3.504728   4.393297
     8  H    2.096407   2.629119   1.103636   2.829862   3.512922
     9  H    2.043649   1.096830   3.296690   2.646642   3.330743
    10  H    2.096405   1.103636   2.629080   2.829611   3.512706
    11  H    2.088339   1.102621   2.649560   3.504483   4.393075
                    6          7          8          9         10
     6  H    0.000000
     7  H    1.800980   0.000000
     8  H    1.801144   1.803216   0.000000
     9  H    4.079092   3.638126   3.612046   0.000000
    10  H    3.612043   3.022951   2.403168   1.801143   0.000000
    11  H    3.638123   2.449665   3.023057   1.800986   1.803221
                   11
    11  H    0.000000
 Stoichiometry    C2H7FO
 Framework group  C1[X(C2H7FO)]
 Deg. of freedom    27
 Full point group                 C1      NOp   1
 Largest Abelian subgroup         C1      NOp   1
 Largest concise Abelian subgroup C1      NOp   1
                         Standard orientation:                         
 ---------------------------------------------------------------------
 Center     Atomic      Atomic             Coordinates (Angstroms)
 Number     Number       Type             X           Y           Z
 ---------------------------------------------------------------------
      1          8           0       -0.339837   -0.000033   -0.408080
      2          6           0       -0.963981    1.184829    0.110985
      3          6           0       -0.964509   -1.184606    0.111003
      4          1           0        1.263761   -0.000050   -0.145764
      5          9           0        2.190301   -0.000209    0.074783
      6          1           0       -0.416484   -2.039563   -0.303429
      7          1           0       -2.019556   -1.224474   -0.206898
      8          1           0       -0.908377   -1.201498    1.213082
      9          1           0       -0.415519    2.039529   -0.303397
     10          1           0       -0.907908    1.201670    1.213066
     11          1           0       -2.018987    1.225192   -0.206988
 ---------------------------------------------------------------------
 Rotational constants (GHZ):           9.3093579           3.8118470           2.8994442
 Standard basis: Aug-CC-pVDZ (5D, 7F)
 There are   163 symmetry adapted cartesian basis functions of A   symmetry.
 There are   155 symmetry adapted basis functions of A   symmetry.
   155 basis functions,   249 primitive gaussians,   163 cartesian basis functions
    18 alpha electrons       18 beta electrons
       nuclear repulsion energy       133.6247400750 Hartrees.
 NAtoms=   11 NActive=   11 NUniq=   11 SFac= 1.00D+00 NAtFMM=   60 NAOKFM=F Big=F
 Integral buffers will be    131072 words long.
 Raffenetti 1 integral format.
 Two-electron integral symmetry is turned on.
 One-electron integrals computed using PRISM.
 NBasis=   155 RedAO= T EigKep=  2.66D-04  NBF=   155
 NBsUse=   155 1.00D-06 EigRej= -1.00D+00 NBFU=   155
 Initial guess from the checkpoint file:  "/scr/Gau-84397.chk"
 B after Tr=    -0.000000    0.000000    0.000000
         Rot=    1.000000   -0.000025   -0.000725   -0.000176 Ang=  -0.09 deg.
 ExpMin= 2.97D-02 ExpMax= 1.47D+04 ExpMxC= 5.03D+02 IAcc=3 IRadAn=         5 AccDes= 0.00D+00
 Harris functional with IExCor=  205 and IRadAn=       5 diagonalized for initial guess.
 HarFok:  IExCor=  205 AccDes= 0.00D+00 IRadAn=         5 IDoV= 1 UseB2=F ITyADJ=14
 ICtDFT=  3500011 ScaDFX=  1.000000  1.000000  1.000000  1.000000
 FoFCou: FMM=F IPFlag=           0 FMFlag=      100000 FMFlg1=           0
         NFxFlg=           0 DoJE=T BraDBF=F KetDBF=T FulRan=T
         wScrn=  0.000000 ICntrl=       500 IOpCl=  0 I1Cent=   200000004 NGrid=           0
         NMat0=    1 NMatS0=      1 NMatT0=    0 NMatD0=    1 NMtDS0=    0 NMtDT0=    0
 Petite list used in FoFCou.
 Keep R1 ints in memory in canonical form, NReq=81818833.
 Requested convergence on RMS density matrix=1.00D-08 within 128 cycles.
 Requested convergence on MAX density matrix=1.00D-06.
 Requested convergence on             energy=1.00D-06.
 No special actions if energy rises.
 SCF Done:  E(RHF) =  -254.130321091     A.U. after    9 cycles
            NFock=  9  Conv=0.50D-08     -V/T= 2.0018
 ExpMin= 2.97D-02 ExpMax= 1.47D+04 ExpMxC= 5.03D+02 IAcc=3 IRadAn=         5 AccDes= 0.00D+00
 HarFok:  IExCor=  205 AccDes= 0.00D+00 IRadAn=         5 IDoV=-2 UseB2=F ITyADJ=14
 ICtDFT= 12500011 ScaDFX=  1.000000  1.000000  1.000000  1.000000
 Range of M.O.s used for correlation:     5   155
 NBasis=   155 NAE=    18 NBE=    18 NFC=     4 NFV=     0
 NROrb=    151 NOA=    14 NOB=    14 NVA=   137 NVB=   137

 **** Warning!!: The largest alpha MO coefficient is  0.16500676D+02

 Fully direct method using O(ONN) memory.
 JobTyp=1 Pass  1:  I=   5 to  18 NPSUse= 40 ParTrn=T ParDer=T DoDerP=T.
 Spin components of T(2) and E(2):
     alpha-alpha T2 =       0.2568854143D-01 E2=     -0.9034423750D-01
     alpha-beta  T2 =       0.1547881952D+00 E2=     -0.5541846518D+00
     beta-beta   T2 =       0.2568854143D-01 E2=     -0.9034423750D-01
 ANorm=    0.1098255561D+01
 E2 =    -0.7348731268D+00 EUMP2 =    -0.25486519421741D+03
          IDoAtm=11111111111
          Differentiating once with respect to electric field.
                with respect to dipole field.
          Differentiating once with respect to nuclear coordinates.
 Keep R1 ints in memory in canonical form, NReq=81826112.
          There are     1 degrees of freedom in the 1st order CPHF.  IDoFFX=0 NUNeed=     1.
 LinEq1:  Iter=  0 NonCon=     1 RMS=4.11D-03 Max=3.93D-02 NDo=     1
 AX will form     1 AO Fock derivatives at one time.
 LinEq1:  Iter=  1 NonCon=     1 RMS=1.03D-03 Max=9.39D-03 NDo=     1
 LinEq1:  Iter=  2 NonCon=     1 RMS=2.48D-04 Max=2.21D-03 NDo=     1
 LinEq1:  Iter=  3 NonCon=     1 RMS=6.61D-05 Max=5.41D-04 NDo=     1
[...]
 43,-0.00115042,0.01183336,-0.00106669,0.00134997,-0.00117051,0.0011587
 4,-0.63721447,0.71436461,0.00124516,0.01206861,-0.00047664,0.00203839,
 -0.00115773,-0.00132812,0.26580600,-0.53291763,0.04712557,-0.00028513,
 -0.00000615,0.00070734,0.00006728,0.00066155,0.00028128,0.00006141,-0.
 00066708,0.00028311,0.00170329,0.00000200,0.00030025,-0.00000093,-0.00
 011674,-0.00042249,-0.00016911,0.00011462,-0.00042319,0.00016848,-0.00
 001204,-0.00106473,0.00011854,-0.00000136,0.00021581,0.00010780,0.0000
 1694,0.00001651,0.00010569,-0.00001935,0.00001888,-0.00060895,0.000004
 42,0.00015597,0.00028675,0.00000124,-0.00026867,0.00010072,-0.00013549
 ,-0.00013403,0.00010217,0.00013659,-0.00013495,-0.00055461,0.00001073,
 0.00002361,-0.00007630,-0.00000796,0.00012930,0.00000195,0.00000740,0.
 00000139,0.00009151,-0.00000796,0.00000204,-0.00009022,0.00001954,-0.0
 0016397,-0.00000613,-0.00001163,0.00056447,-0.00002461,0.00000028,0.00
 000228,0.00000057,0.00005536,0.00005149,0.00000073,-0.00005305,0.00004
 907,0.00011841,-0.00000247,-0.00029605,0.00013504,0.00000433,0.0002674
 0,0.00083559,-0.01026056,0.00067536,-0.00013228,-0.00037680,-0.0009226
 3,-0.09025812,0.64464408,-0.32712871,-0.00005540,0.00021688,0.00003639
 ,-0.00015300,-0.00020291,-0.00003016,0.09039516,0.00064720,-0.00065902
 ,0.00034982,0.00020416,0.00130413,0.00010670,0.64165583,-0.76483586,0.
 53207649,-0.00000104,0.00082243,0.00012206,0.00011672,-0.00028859,0.00
 001459,-0.63345517,0.75775226,0.00063870,-0.00871980,0.00072507,-0.000
 82518,-0.00027163,0.00004158,-0.32737948,0.53488606,0.03232761,0.00001
 422,-0.00024136,-0.00021450,-0.00005394,0.00011549,0.00010687,0.323265
 98,-0.52568387,-0.02999894,0.00153861,0.00068009,0.00079189,-0.0000045
 2,-0.00003794,0.00026820,-0.11241771,-0.00833308,0.04057043,-0.0003097
 3,-0.00008569,0.00008783,0.00013574,0.00003029,-0.00005795,-0.00093490
 ,-0.00809236,0.00534966,0.11102710,-0.00049259,-0.00071240,0.00010516,
 0.00016108,0.00004898,-0.00039531,-0.01851114,0.02316308,0.00508480,0.
 00018269,0.00008481,-0.00002015,-0.00009038,-0.00000682,0.00000074,0.0
 0129486,0.00259551,-0.00150478,0.01691623,-0.02724412,-0.00020227,-0.0
 0044917,0.00047334,-0.00042843,-0.00004430,0.00036056,0.04645486,0.002
 27358,0.00948305,-0.00026677,0.00004161,0.00006498,0.00016971,-0.00005
 747,-0.00005545,-0.00056800,0.00004244,-0.00038332,-0.04641486,-0.0022
 3626,-0.01073060,0.00068493,-0.00009320,0.00012426,0.00030820,-0.00008
 604,-0.00050646,0.01292180,0.00072752,0.01848073,-0.00013057,0.0000563
 2,0.00000273,0.00008883,-0.00003301,-0.00002660,0.00082717,-0.00174222
 ,-0.00098840,0.00128529,0.00045417,0.00111395,-0.01591425,-0.00006933,
 -0.00069164,-0.00023010,-0.00036667,0.00006908,0.00018598,0.00163337,0
 .01565516,-0.01534167,0.00005614,-0.00002085,-0.00002420,-0.00002820,0
 .00002950,-0.00000735,-0.00121742,0.00275977,0.00193773,-0.00098632,0.
 00222889,0.00056456,0.00085456,-0.01983801,0.00080401,0.00064482,0.001
 14216,0.00024485,-0.00006447,-0.00000755,0.01325859,-0.00464843,-0.087
 59376,-0.00013772,0.00003082,0.00009321,0.00007357,0.00000194,-0.00008
 740,0.00472534,-0.00767367,-0.00201461,-0.00038188,-0.00110083,0.00088
 896,-0.01834450,0.01289140,0.08784972,0.00083606,0.01026163,0.00066954
 ,-0.09106555,-0.64587450,-0.32783005,-0.00013473,0.00037774,-0.0009249
 0,-0.00005466,-0.00021296,0.00003862,-0.00015528,0.00020377,-0.0000309
 6,-0.00046013,0.00045031,-0.00004699,-0.00006536,0.00015942,0.00015019
 ,0.00000212,0.00003551,-0.00015689,0.09118368,-0.00064442,-0.00065277,
 -0.00034878,-0.64290116,-0.76516937,-0.53259220,-0.00020520,0.00130980
 ,-0.00010702,0.00000528,0.00082468,-0.00012006,-0.00011823,-0.00029079
 ,-0.00001782,-0.00044909,0.00089180,-0.00040664,-0.00014742,-0.0001683
 4,-0.00006346,-0.00006639,-0.00017415,-0.00017188,0.63466008,0.7580643
 3,0.00062833,0.00871537,0.00071705,-0.32808344,-0.53540316,0.03241348,
 -0.00082764,0.00026927,0.00004653,0.00001369,0.00023758,-0.00021336,-0
 .00005273,-0.00011667,0.00010295,-0.00004753,0.00041573,-0.00047871,-0
 .00013722,-0.00001302,-0.00002361,0.00016433,0.00012742,-0.00008782,0.
 32395244,0.52619158,-0.03007129,0.00068313,0.00009770,0.00013580,0.012
 95849,-0.00072153,0.01848883,0.00030662,0.00008422,-0.00050400,-0.0001
 3349,-0.00005764,-0.00000134,0.00008889,0.00003309,-0.00002645,0.00000
 148,0.00006768,0.00016270,-0.00003559,0.00000525,-0.00002623,-0.000035
 57,0.00006653,0.00000666,0.00082632,0.00174521,-0.00097964,-0.01594863
 ,0.00007008,-0.00069541,0.00021917,-0.00163538,0.01569760,0.01535376,0
 .00036488,0.00006118,-0.00018006,-0.00005458,-0.00001984,0.00002472,0.
 00002799,0.00002929,0.00000777,-0.00003492,-0.00017634,-0.00012476,-0.
 00001909,-0.00002986,-0.00000093,-0.00006807,0.00001162,0.00009939,0.0
 0121656,0.00276259,-0.00193128,-0.00085750,-0.01986976,0.00081301,-0.0
 0064800,0.00113551,0.01326762,0.00462765,-0.08771557,0.00024829,0.0000
 7627,-0.00000829,-0.00013924,-0.00003139,0.00009484,0.00007431,-0.0000
 0143,-0.00008669,-0.00015670,0.00017063,-0.00009098,-0.00009323,0.0000
 1091,0.00002001,0.00000612,-0.00010662,-0.00020227,0.00474660,0.007693
 45,-0.00201583,-0.01836161,-0.01289469,0.08796468,0.00153743,-0.000685
 54,0.00079884,-0.11254242,0.00840145,0.04062833,-0.00000678,0.00004496
 ,0.00026873,-0.00030839,0.00008451,0.00008906,0.00013608,-0.00003062,-
 0.00005801,-0.00006557,0.00014890,-0.00013728,-0.00021893,-0.00007958,
 0.00001787,-0.00003794,0.00002183,-0.00009204,-0.00091246,0.00812132,0
 .00536943,0.00128836,0.00099001,-0.00040519,0.11113061,0.00047798,-0.0
 0071460,-0.00010558,0.01861461,0.02320214,-0.00512494,-0.00015382,0.00
 004032,0.00039596,-0.00018431,0.00008289,0.00002311,0.00009066,-0.0000
 0581,-0.00000239,-0.00015896,-0.00016608,0.00001355,0.00007529,0.00004
 026,-0.00007058,-0.00000364,-0.00002938,-0.00000910,-0.00127758,0.0026
 0222,0.00150717,-0.00046301,0.00222894,0.00110323,-0.01701723,-0.02728
 089,-0.00019041,0.00045999,0.00047176,0.04651522,-0.00229023,0.0095027
 5,-0.00042707,0.00004123,0.00035609,-0.00026538,-0.00003765,0.00006373
 ,0.00016808,0.00005669,-0.00005447,0.00015067,0.00005907,-0.00002008,0
 .00001712,0.00006875,-0.00009792,-0.00002618,0.00000286,0.00001937,-0.
 00056760,-0.00005718,-0.00038939,0.00110530,-0.00057309,0.00090460,-0.
 04647973,0.00226956,-0.01075643,-0.00535260,-0.00001356,-0.02008560,-0
 .00451684,-0.00001910,-0.00373573,-0.00005848,-0.01296404,0.00035416,0
 .18965997,0.00209324,0.01175614,0.00179224,0.63546012,0.71204441,0.001
 00583,-0.01147050,-0.00027822,0.26571272,0.53047854,0.04826073,-0.0000
 7373,0.01300338,0.00036970,0.00089264,-0.00095829,0.00243711,0.1892931
 9,-0.00206249,0.01176812,-0.00176809,0.00095936,-0.00169666,0.00071651
 ,-0.63600407,0.71369026,0.00102588,0.01150744,-0.00030984,0.00243565,-
 0.00071976,0.00030072,0.26575736,-0.53134357,0.04839490,-0.00036258,-0
 .00000334,0.00072372,-0.00010555,0.00034825,0.00017145,-0.00011099,-0.
 00035515,0.00017188,0.00184423,0.00000256,0.00030416,-0.00000096,-0.00
 020453,-0.00037442,-0.00014531,0.00020162,-0.00037881,0.00014489,-0.00
 001283,-0.00121245,0.00010921,-0.00000059,0.00026005,0.00013849,0.0000
 2915,0.00003820,0.00013713,-0.00002959,0.00003957,-0.00059599,0.000005
 03,-0.00000750,0.00035003,-0.00000031,-0.00026394,0.00022216,0.0000356
 5,-0.00009841,0.00022365,-0.00003425,-0.00009831,-0.00056689,0.0000112
 0,0.00000759,-0.00017162,-0.00000865,0.00014024,0.00000149,0.00004548,
 0.00000298,0.00008037,-0.00004542,0.00000458,-0.00007879,0.00002027,-0
 .00008190,-0.00000625,-0.00001203,0.00047314,-0.00006669,-0.00000105,0
 .00000398,-0.00000248,0.00006258,0.00006484,-0.00000317,-0.00006240,0.
 00006369,0.00013059,-0.00000293,-0.00019959,0.00015613,0.00000427,0.00
 017690,0.00047095,-0.00986327,0.00070813,-0.00165876,-0.00072890,-0.00
 141900,-0.08947834,0.64381719,-0.32667724,0.00007609,0.00022544,0.0000
 1335,-0.00023037,-0.00018619,-0.00002094,0.08990994,0.00067488,-0.0003
 6107,0.00036776,0.00028349,0.00127876,0.00029867,0.64067031,-0.7648251
 5,0.53110864,-0.00001955,0.00077499,0.00012613,0.00013665,-0.00026598,
 0.00003141,-0.63274222,0.75797399,0.00062154,-0.00833404,0.00039543,-0
 .00131741,-0.00067442,-0.00127109,-0.32693887,0.53405510,0.03303271,0.
 00009291,-0.00021128,-0.00023366,-0.00009091,0.00008841,0.00009862,0.3
 2273890,-0.52495729,-0.03042387,0.00161799,0.00070923,0.00072032,-0.00
 016262,-0.00014410,0.00017427,-0.11253429,-0.00802026,0.04064300,-0.00
 031251,-0.00008405,0.00008430,0.00013542,0.00002872,-0.00006278,-0.001
 00348,-0.00798451,0.00528077,0.11105008,-0.00005972,-0.00081415,0.0000
 8615,0.00015463,0.00021944,-0.00031922,-0.01812936,0.02337873,0.004779
 29,0.00013036,0.00011551,-0.00001070,-0.00005370,-0.00002798,-0.000005
 32,0.00107722,0.00255805,-0.00134377,0.01645140,-0.02742928,-0.0001492
 5,-0.00032443,0.00044073,-0.00021413,-0.00020076,0.00029468,0.04609538
 ,0.00201162,0.00949581,-0.00024287,0.00004676,0.00006326,0.00016218,-0
 .00005656,-0.00006054,-0.00050072,0.00007610,-0.00039743,-0.04629848,-
 0.00204549,-0.01070987,0.00066512,0.00002418,0.00023393,0.00022162,-0.
 00025012,-0.00038631,0.01339222,0.00057147,0.01837011,-0.00011238,0.00
 004898,0.00000459,0.00006696,-0.00003240,-0.00002317,0.00079024,-0.001
 70146,-0.00090361,0.00126640,0.00046839,0.00118703,-0.01633686,-0.0000
 0781,-0.00076708,0.00006598,-0.00027363,0.00023676,0.00021901,0.001416
 33,0.01633524,-0.01521038,0.00004119,-0.00001766,-0.00003155,-0.000021
 52,0.00002460,-0.00000281,-0.00110566,0.00271561,0.00171888,-0.0009556
 9,0.00223414,0.00057448,0.00096317,-0.02047914,0.00074525,0.00063328,0
 .00120403,0.00013277,-0.00013947,-0.00016194,0.01353798,-0.00459940,-0
 .08987882,-0.00015073,0.00002871,0.00010461,0.00007705,0.00001192,-0.0
 0009237,0.00468852,-0.00760716,-0.00207057,-0.00041171,-0.00106647,0.0
 0086777,-0.01850431,0.01273231,0.09008818,0.00046847,0.00983766,0.0007
 0072,-0.09004846,-0.64336032,-0.32652187,-0.00165875,0.00072913,-0.001
 41872,0.00007612,-0.00022155,0.00001488,-0.00023166,0.00018691,-0.0000
 2100,0.00097895,0.00059584,0.00044866,0.00007848,-0.00004403,0.0000400
 4,0.00006630,-0.00005754,-0.00001980,0.09046159,-0.00067042,-0.0003560
 9,-0.00036187,-0.64023180,-0.76316029,-0.53023320,-0.00028001,0.001284
 33,-0.00029560,0.00002190,0.00077410,-0.00012644,-0.00013660,-0.000267
 09,-0.00003167,-0.00059598,0.00062291,-0.00042931,-0.00007752,-0.00023
 895,-0.00001783,-0.00000805,-0.00023246,-0.00010771,0.63228806,0.75630
 222,0.00061587,0.00831715,0.00039214,-0.32678939,-0.53316492,0.0330349
 2,-0.00131678,0.00067400,-0.00127057,0.00009356,0.00020894,-0.00023523
 ,-0.00009062,-0.00008857,0.00009806,0.00044923,0.00042946,0.00079525,-
 0.00003130,-0.00006175,0.00004782,0.00009860,-0.00002568,0.00002736,0.
 32257430,0.52407777,-0.03043110,0.00066141,-0.00001772,0.00024528,0.01
 339588,-0.00056179,0.01833119,0.00021936,0.00024823,-0.00038422,-0.000
 11484,-0.00004964,0.00000058,0.00006664,0.00003239,-0.00002330,0.00006
 624,0.00000784,0.00009897,0.00001946,0.00003741,-0.00000045,-0.0000366
 9,0.00004654,-0.00007707,0.00078669,0.00169771,-0.00089187,-0.01633052
 ,0.00000720,-0.00077201,-0.00007899,-0.00141332,0.01633541,0.01518223,
 0.00027091,0.00022784,-0.00020983,-0.00003982,-0.00001711,0.00003212,0
 .00002143,0.00002404,0.00000308,0.00005783,-0.00023323,0.00002592,0.00
 004843,0.00001659,-0.00002584,-0.00004780,-0.00006645,0.00006246,0.001
 10252,0.00271435,-0.00170453,-0.00096404,-0.02045840,0.00075135,-0.000
 63596,0.00119206,0.01351238,0.00456721,-0.08977163,0.00013572,0.000147
 84,-0.00016129,-0.00015159,-0.00002925,0.00010821,0.00007755,-0.000011
 86,-0.00009376,-0.00002056,0.00010872,0.00002677,-0.00001878,-0.000050
 03,0.00003878,-0.00007657,-0.00006817,-0.00012878,0.00469823,0.0076077
 4,-0.00205777,-0.01847261,-0.01270454,0.08997028,0.00161343,-0.0007122
 1,0.00072482,-0.11235841,0.00806626,0.04059301,-0.00016497,0.00015085,
 0.00017461,-0.00031072,0.00008279,0.00008586,0.00013569,-0.00002908,-0
 .00006319,0.00007854,0.00007872,-0.00003095,-0.00015493,-0.00003260,-0
 .00007873,0.00001706,-0.00004538,-0.00001795,-0.00097774,0.00799270,0.
 00528839,0.00126638,0.00095664,-0.00043512,0.11085567,0.00004476,-0.00
 081262,-0.00008462,0.01818423,0.02335746,-0.00480709,-0.00014541,0.000
 21152,0.00031767,-0.00013127,0.00011360,0.00001269,0.00005348,-0.00002
 663,0.00000486,0.00004454,-0.00023887,0.00006182,0.00002834,-0.0000121
 0,-0.00003804,-0.00003636,0.00001645,0.00005154,-0.00105669,0.00255699
 ,0.00133815,-0.00047694,0.00222896,0.00106830,-0.01650869,-0.02739474,
 -0.00014216,0.00032781,0.00043538,0.04603724,-0.00203039,0.00948877,-0
 .00021157,0.00019799,0.00029310,-0.00024293,-0.00004459,0.00006207,0.0
 0016168,0.00005558,-0.00005984,0.00004034,0.00001755,0.00004783,-0.000
 07962,0.00003730,-0.00008101,-0.00000029,0.00002793,0.00004052,-0.0004
 9542,-0.00008187,-0.00040089,0.00117350,-0.00058206,0.00087712,-0.0462
 4076,0.00207474,-0.01070306,0.00815323,0.00000785,0.06050887,-0.012581
 16,-0.00001144,0.02580068,-0.00965615,-0.01082916,0.00823695,0.0176843
 5,0.00245463,-0.00919795,0.00580368,-0.00871869,0.01495779,0.00103610,
 0.01108551,0.00267457,-0.00095431,-0.00855812,0.00549704,-0.00966863,0
 .01084676,0.00824989,0.00457112,-0.00363260,0.00015334,0.01774830,-0.0
 0243374,-0.00919533,-0.00578848,0.00363417,0.00099174,-0.00043071,0.00
 871264,0.01499820,0.00104366,-0.01106539,0.00264661,0.00015232,0.00042
 958,0.00113818,-0.00098790,0.00856379,0.00554746,-0.02462605,-0.000009
 62,0.00083361,-0.00261557,0.00707099,-0.00210228,-0.00262869,-0.007075
 31,-0.00210038,6.81949007,-0.00000257,-0.04794127,-0.00000190,0.013400
 13,0.00060207,-0.00389362,-0.01340126,0.00060778,0.00389419,-0.0023635
 5,-1.38814610,0.01825269,-0.00000498,-0.02961028,-0.00810796,0.0006135
 2,-0.00049778,-0.00811112,-0.00061009,-0.00049670,-2.56349632,0.000739
 04,-0.60937137,0.03905504,-0.00000869,-0.00690952,0.00003730,0.0019142
 0,-0.00052840,0.00003656,-0.00191350,-0.00052892,-6.79635072,0.0023674
 8,2.56088066,6.75443639,-0.00001882,-0.00031191,0.00000330,0.00094672,
 -0.00091931,0.00017914,-0.00094669,-0.00091691,-0.00017765,0.00237751,
 1.43733658,-0.00073925,-0.00235861,-1.43532519,-0.00833454,0.00000060,
 0.00066100,-0.00038768,0.00035547,-0.00082722,-0.00038815,-0.00035496,
 -0.00082831,2.56481394,-0.00073680,0.63934253,-2.55498755,0.00073604,-
 0.63862698,-0.00067357,-0.00160208,-0.00029594,-0.00062878,0.00037905,
 -0.00012411,-0.00116791,0.00204242,-0.00080713,0.00142014,-0.00013600,
 0.00000749,-0.00039301,0.00025381,0.00006210,0.00058983,0.00048657,-0.
 00028510,-0.00029167,-0.00015218,0.00014217,0.00041658,-0.00089178,-0.
 00343785,-0.00033141,0.00077230,0.00052650,0.00035425,0.00049762,0.000
 00605,-0.00010274,-0.00059583,0.00224181,0.00084275,-0.00116488,-0.000
 16299,-0.00036294,0.00040205,-0.00023236,-0.00104985,0.00144369,-0.000
 76723,0.00028394,-0.00013474,-0.00015938,-0.00069145,-0.00009651,0.000
 19973,0.00074355,0.00011475,0.00072695,0.00080698,0.00603868,0.0016911
 9,-0.00072705,-0.00062139,0.00073006,-0.00690787,-0.00276962,0.0008416
 0,0.00094859,-0.00058106,0.00018953,0.00098698,-0.00025938,-0.00033405
 ,0.00055828,-0.00017524,0.00003529,0.00383010,-0.00079384,0.00392405,0
 .00179512,0.00140760,-0.00144731,0.00028784,0.00144995,-0.00067374,-0.
 00139928,0.00070679,-0.00203947,-0.00080298,0.00082058,0.00015814,0.00
 002136,-0.00024983,0.00035747,-0.00050624,-0.00246072,0.00030282,-0.00
 102833,0.00188405,-0.00180156,0.00017669,-0.00026478,0.00005341,0.0028
 4773,-0.00074292,-0.00056400,0.00048982,-0.00115117,-0.00020635,0.0003
 3315,0.00004211,0.00018574,0.00033043,-0.00005981,0.00006749,-0.002401
 41,0.00050450,0.00104283,-0.00175558,-0.00065135,-0.00031497,-0.000177
 92,0.00006810,0.00021709,-0.00044333,-0.00037628,0.00156274,0.00099804
 ,0.00035510,0.00009411,0.00079965,0.00012055,-0.00008573,0.00021495,-0
 .00000560,0.00014813,0.00038937,0.00018245,-0.00038429,-0.00002162,-0.
 00046067,-0.00057319,-0.00073954,-0.00027401,-0.00008487,0.00059770,-0
 .00116268,-0.00097548,0.00138079,0.00188512,0.00028347,0.00002949,-0.0
 0013870,-0.00009574,-0.00004064,-0.00013331,0.00029255,0.00000502,-0.0
 0002979,-0.00008318,-0.00022785,0.00026082,0.00152043,0.00047563,0.002
 65711,0.00088736,0.00031211,-0.00044023,-0.00018382,-0.00084404,-0.002
 38929,-0.00631218,0.00025207,0.00033398,0.00068228,0.00139521,0.000043
 58,-0.00024544,0.00006643,-0.00005344,0.00038437,-0.00029207,-0.000001
 14,0.00098235,-0.00104285,-0.00057381,0.00379435,-0.00067873,0.0015892
 1,-0.00030206,-0.00116587,-0.00206090,-0.00081355,-0.00063028,-0.00037
 910,-0.00012501,0.00142004,0.00013911,0.00000883,-0.00039512,-0.000252
 66,0.00006219,0.00004596,0.00008874,0.00007245,-0.00000937,-0.00015921
 ,-0.00005688,0.00004375,0.00003048,0.00000148,0.00057955,-0.00048326,-
 0.00027627,0.00029698,0.00085886,-0.00343657,0.00031218,0.00015362,0.0
 0015028,-0.00041561,-0.00077094,0.00052680,-0.00035473,-0.00049735,0.0
 0000490,0.00010239,-0.00008801,0.00017964,-0.00002886,0.00004930,0.000
 05796,0.00003445,-0.00002358,-0.00008113,0.00004253,0.00060656,0.00221
 521,0.00083481,0.00115942,-0.00016532,-0.00106212,-0.00145231,-0.00075
 267,-0.00036428,-0.00040195,-0.00023275,0.00028462,0.00013250,-0.00016
 136,-0.00069120,0.00009657,0.00019938,0.00007300,0.00002980,0.00000835
 ,-0.00000766,0.00001601,-0.00000250,-0.00001481,0.00001865,-0.00006176
 ,0.00073877,-0.00010987,0.00071027,-0.00175773,0.00065888,-0.00030340,
 -0.00042318,0.00038347,0.00154670,-0.00017966,-0.00006962,0.00021891,0
 .00099400,-0.00035614,0.00009049,0.00079980,-0.00012098,-0.00008606,0.
 00004357,0.00002335,-0.00001454,-0.00000630,-0.00013303,-0.00002383,-0
 .00003877,0.00006297,-0.00015614,0.00021081,0.00000267,0.00015977,-0.0
 0003304,0.00046195,-0.00057961,0.00072736,0.00116071,-0.00095551,-0.00
 138235,0.00027165,-0.00009373,-0.00058958,-0.00188417,0.00028500,-0.00
 002877,0.00013819,-0.00009625,0.00004091,-0.00003021,-0.00008149,-0.00
 001823,0.00004333,0.00011105,0.00009802,-0.00006442,-0.00031367,0.0003
 4796,0.00013100,0.00029622,0.00000619,-0.00025939,0.00151307,0.0004815
 2,-0.00266068,0.00087636,-0.00084574,0.00236825,-0.00631729,0.00031513
 ,0.00044906,-0.00018336,0.00025101,-0.00033449,0.00068586,0.00139551,-
 0.00004427,-0.00024690,0.00000078,-0.00004165,-0.00006233,-0.00016857,
 -0.00003111,0.00005057,-0.00015571,-0.00035386,0.00002021,0.00007872,0
 .00006640,0.00039463,-0.00103624,0.00057806,0.00378947,0.00080119,-0.0
 0604049,0.00169540,-0.00689826,0.00276313,0.00083937,-0.00072962,0.000
 62796,0.00073011,0.00095013,0.00057876,0.00019160,0.00098712,0.0002585
 4,-0.00033449,-0.00000945,-0.00004795,-0.00000732,0.00013028,-0.000770
 75,-0.00028306,-0.00000855,-0.00004023,-0.00016780,0.00057926,0.000192
 14,0.00004910,0.00039050,0.00003137,-0.00031640,0.00380739,0.00078190,
 0.00392771,-0.00179341,-0.00143415,-0.00065228,0.00138584,-0.00139962,
 -0.00145497,-0.00028942,-0.00070914,-0.00204136,0.00080449,-0.00082122
 ,0.00015965,-0.00002164,0.00016001,0.00005824,-0.00001606,0.00076590,-
 0.00066779,-0.00011659,0.00013421,0.00011081,0.00003275,0.00026677,0.0
 0036295,0.00050500,-0.00019218,-0.00008509,0.00000428,0.00244752,0.000
 28213,-0.00102311,-0.00187932,-0.00180644,0.00284270,0.00074288,-0.000
 55207,0.00017925,0.00026186,0.00005226,0.00048998,0.00115302,-0.000207
 45,0.00033251,-0.00004307,0.00018646,-0.00005659,-0.00003466,-0.000002
 58,-0.00028391,0.00011592,0.00019203,-0.00002372,-0.00009595,0.0000522
 7,0.00033507,0.00005414,0.00006373,-0.00039565,0.00022043,0.00099279,-
 0.00239651,-0.00049525,0.00102898\\@
 The archive entry for this job was punched.


 FAULTILY FAULTLESS, ICILY REGULAR, SPLENDIDLY NULL...
           MAUDE BY TENNYSON
 Job cpu time:       2 days 11 hours 25 minutes 51.3 seconds.
 Elapsed time:       0 days  1 hours 30 minutes 41.7 seconds.
 File lengths (MBytes):  RWF=   2725 Int=      0 D2E=      0 Chk=     45 Scr=      1
 Normal termination of Gaussian 16 at Tue Mar 18 22:07:05 2025.
