 Entering Gaussian System, Link 0=g16
 Input=nh3_nme3_mp2_avtz_opt_freq.gjf
 Output=nh3_nme3_mp2_avtz_opt_freq.log
 Initial command:
 /sw/contrib/gaussian/g16/A03/g16/l1.exe "/gscratch/scrubbed/gds001/Gau-7527.inp" -scrdir="/gscratch/scrubbed/gds001/"
 Entering Link 1 = /sw/contrib/gaussian/g16/A03/g16/l1.exe PID=      7529.
  
 Copyright (c) 1988,1990,1992,1993,1995,1998,2003,2009,2016,
            Gaussian, Inc.  All Rights Reserved.
  
 This is part of the Gaussian(R) 16 program.  It is based on
 the Gaussian(R) 09 system (copyright 2009, Gaussian, Inc.),
 the Gaussian(R) 03 system (copyright 2003, Gaussian, Inc.),
 the Gaussian(R) 98 system (copyright 1998, Gaussian, Inc.),
 the Gaussian(R) 94 system (copyright 1995, Gaussian, Inc.),
 the Gaussian 92(TM) system (copyright 1992, Gaussian, Inc.),
 the Gaussian 90(TM) system (copyright 1990, Gaussian, Inc.),
 the Gaussian 88(TM) system (copyright 1988, Gaussian, Inc.),
 the Gaussian 86(TM) system (copyright 1986, Carnegie Mellon
 University), and the Gaussian 82(TM) system (copyright 1983,
 Carnegie Mellon University). Gaussian is a federally registered
 trademark of Gaussian, Inc.
  
 This software contains proprietary and confidential information,
 including trade secrets, belonging to Gaussian, Inc.
  
 This software is provided under written license and may be
 used, copied, transmitted, or stored only in accord with that
 written license.
  
 The following legend is applicable only to US Government
 contracts under FAR:
  
                    RESTRICTED RIGHTS LEGEND
  
 Use, reproduction and disclosure by the US Government is
 subject to restrictions as set forth in subparagraphs (a)
 and (c) of the Commercial Computer Software - Restricted
 Rights clause in FAR 52.227-19.
  
 Gaussian, Inc.
 340 Quinnipiac St., Bldg. 40, Wallingford CT 06492
  
  
 ---------------------------------------------------------------
 Warning -- This program may not be used in any manner that
 competes with the business of Gaussian, Inc. or will provide
 assistance to any competitor of Gaussian, Inc.  The licensee
 of this program is prohibited from giving any competitor of
 Gaussian, Inc. access to this program.  By using this program,
 the user acknowledges that Gaussian, Inc. is engaged in the
 business of creating and licensing software in the field of
 computational chemistry and represents and warrants to the
 licensee that it is not a competitor of Gaussian, Inc. and that
 it will not use this program in any manner prohibited above.
 ---------------------------------------------------------------
  

 Cite this work as:
 Gaussian 16, Revision A.03,
 M. J. Frisch, G. W. Trucks, H. B. Schlegel, G. E. Scuseria, 
 M. A. Robb, J. R. Cheeseman, G. Scalmani, V. Barone, 
 G. A. Petersson, H. Nakatsuji, X. Li, M. Caricato, A. V. Marenich, 
 J. Bloino, B. G. Janesko, R. Gomperts, B. Mennucci, H. P. Hratchian, 
 J. V. Ortiz, A. F. Izmaylov, J. L. Sonnenberg, D. Williams-Young, 
 F. Ding, F. Lipparini, F. Egidi, J. Goings, B. Peng, A. Petrone, 
 T. Henderson, D. Ranasinghe, V. G. Zakrzewski, J. Gao, N. Rega, 
 G. Zheng, W. Liang, M. Hada, M. Ehara, K. Toyota, R. Fukuda, 
 J. Hasegawa, M. Ishida, T. Nakajima, Y. Honda, O. Kitao, H. Nakai, 
 T. Vreven, K. Throssell, J. A. Montgomery, Jr., J. E. Peralta, 
 F. Ogliaro, M. J. Bearpark, J. J. Heyd, E. N. Brothers, K. N. Kudin, 
 V. N. Staroverov, T. A. Keith, R. Kobayashi, J. Normand, 
 K. Raghavachari, A. P. Rendell, J. C. Burant, S. S. Iyengar, 
 J. Tomasi, M. Cossi, J. M. Millam, M. Klene, C. Adamo, R. Cammi, 
 J. W. Ochterski, R. L. Martin, K. Morokuma, O. Farkas, 
 J. B. Foresman, and D. J. Fox, Gaussian, Inc., Wallingford CT, 2016.
 
 ******************************************
 Gaussian 16:  ES64L-G16RevA.03 25-Dec-2016
                 3-Jan-2022 
 ******************************************
 %nprocshared=28
 Will use up to   28 processors via shared memory.
 %mem=41GB
 --------------------------
 # MP2/aug-cc-pVTZ opt freq
 --------------------------
 1/18=20,19=15,38=1/1,3;
 2/9=110,12=2,17=6,18=5,40=1/2;
 3/5=16,6=1,7=10,11=9,25=1,30=1,71=1/1,2,3;
 4//1;
 5/5=2,38=5/2;
 8/6=4,10=1/1;
 9/15=2,16=-3/6;
 10/5=1/2;
 6/7=2,8=2,9=2,10=2/1;
 7/12=2/1,2,3,16;
 1/18=20,19=15/3(2);
 2/9=110/2;
 99//99;
 2/9=110/2;
 3/5=16,6=1,7=10,11=9,25=1,30=1,71=1/1,2,3;
 4/5=5,16=3,69=1/1;
 5/5=2,38=5/2;
 8/6=4,10=1/1;
 9/15=2,16=-3/6;
 10/5=1/2;
 7/12=2/1,2,3,16;
 1/18=20,19=15/3(-8);
 2/9=110/2;
 6/7=2,8=2,9=2,10=2/1;
 99//99;
 ----
 bleh
 ----
 Symbolic Z-matrix:
 Charge =  0 Multiplicity = 1
 N                    -2.65416   0.00014   0.27136 
 H                    -1.66824  -0.00023   0.55976 
 H                    -3.08942   0.81376   0.70697 
 H                    -3.08956  -0.81429   0.7053 
 N                     0.45211   0.00002   0.13515 
 C                     0.41084  -1.19617  -0.70913 
 C                     0.41279   1.19796  -0.70671 
 C                     1.66584  -0.00182   0.95148 
 H                    -0.51743   1.1998   -1.29457 
 H                     1.27806   1.24544  -1.40526 
 H                     0.43065   2.09651  -0.07037 
 H                    -0.51932  -1.19527  -1.29706 
 H                     0.42712  -2.09601  -0.07457 
 H                     1.27611  -1.24371  -1.40765 
 H                     1.67922  -0.89608   1.59333 
 H                     1.6808    0.89122   1.595 
 H                     2.58947  -0.00205   0.32969 
 
 Add virtual bond connecting atoms N5         and H2         Dist= 4.09D+00.

 GradGradGradGradGradGradGradGradGradGradGradGradGradGradGradGradGradGrad
 Berny optimization.
 Initialization pass.
                           ----------------------------
                           !    Initial Parameters    !
                           ! (Angstroms and Degrees)  !
 --------------------------                            --------------------------
 ! Name  Definition              Value          Derivative Info.                !
 --------------------------------------------------------------------------------
 ! R1    R(1,2)                  1.0272         estimate D2E/DX2                !
 ! R2    R(1,3)                  1.0204         estimate D2E/DX2                !
 ! R3    R(1,4)                  1.0204         estimate D2E/DX2                !
 ! R4    R(2,5)                  2.1624         estimate D2E/DX2                !
 ! R5    R(5,6)                  1.4647         estimate D2E/DX2                !
 ! R6    R(5,7)                  1.4647         estimate D2E/DX2                !
 ! R7    R(5,8)                  1.4627         estimate D2E/DX2                !
 ! R8    R(6,12)                 1.1004         estimate D2E/DX2                !
 ! R9    R(6,13)                 1.1012         estimate D2E/DX2                !
 ! R10   R(6,14)                 1.1131         estimate D2E/DX2                !
 ! R11   R(7,9)                  1.1004         estimate D2E/DX2                !
 ! R12   R(7,10)                 1.1131         estimate D2E/DX2                !
 ! R13   R(7,11)                 1.1012         estimate D2E/DX2                !
 ! R14   R(8,15)                 1.1008         estimate D2E/DX2                !
 ! R15   R(8,16)                 1.1008         estimate D2E/DX2                !
 ! R16   R(8,17)                 1.1134         estimate D2E/DX2                !
 ! A1    A(2,1,3)              106.8484         estimate D2E/DX2                !
 ! A2    A(2,1,4)              106.8499         estimate D2E/DX2                !
 ! A3    A(3,1,4)              105.8342         estimate D2E/DX2                !
 ! A4    A(1,2,5)              152.3711         estimate D2E/DX2                !
 ! A5    A(2,5,6)               94.9026         estimate D2E/DX2                !
 ! A6    A(2,5,7)               94.9701         estimate D2E/DX2                !
 ! A7    A(2,5,8)              134.7522         estimate D2E/DX2                !
 ! A8    A(6,5,7)              109.6259         estimate D2E/DX2                !
 ! A9    A(6,5,8)              110.1232         estimate D2E/DX2                !
 ! A10   A(7,5,8)              110.1253         estimate D2E/DX2                !
 ! A11   A(5,6,12)             109.3365         estimate D2E/DX2                !
 ! A12   A(5,6,13)             109.5588         estimate D2E/DX2                !
 ! A13   A(5,6,14)             112.007          estimate D2E/DX2                !
 ! A14   A(12,6,13)            108.7265         estimate D2E/DX2                !
 ! A15   A(12,6,14)            108.7747         estimate D2E/DX2                !
 ! A16   A(13,6,14)            108.3753         estimate D2E/DX2                !
 ! A17   A(5,7,9)              109.3359         estimate D2E/DX2                !
 ! A18   A(5,7,10)             112.0083         estimate D2E/DX2                !
 ! A19   A(5,7,11)             109.5596         estimate D2E/DX2                !
 ! A20   A(9,7,10)             108.7726         estimate D2E/DX2                !
 ! A21   A(9,7,11)             108.7265         estimate D2E/DX2                !
 ! A22   A(10,7,11)            108.3759         estimate D2E/DX2                !
 ! A23   A(5,8,15)             109.6637         estimate D2E/DX2                !
 ! A24   A(5,8,16)             109.6637         estimate D2E/DX2                !
 ! A25   A(5,8,17)             112.1275         estimate D2E/DX2                !
 ! A26   A(15,8,16)            108.5422         estimate D2E/DX2                !
 ! A27   A(15,8,17)            108.382          estimate D2E/DX2                !
 ! A28   A(16,8,17)            108.3819         estimate D2E/DX2                !
 ! D1    D(3,1,2,5)           -123.5362         estimate D2E/DX2                !
 ! D2    D(4,1,2,5)            123.5341         estimate D2E/DX2                !
 ! D3    D(2,1,3,4)           -113.622          estimate D2E/DX2                !
 ! D4    D(1,2,5,6)            -55.1101         estimate D2E/DX2                !
 ! D5    D(1,2,5,7)             55.1231         estimate D2E/DX2                !
 ! D6    D(1,2,5,8)           -179.9489         estimate D2E/DX2                !
 ! D7    D(2,5,6,12)            36.8578         estimate D2E/DX2                !
 ! D8    D(2,5,6,13)           -82.2037         estimate D2E/DX2                !
 ! D9    D(2,5,6,14)           157.503          estimate D2E/DX2                !
 ! D10   D(7,5,6,12)           -60.202          estimate D2E/DX2                !
 ! D11   D(7,5,6,13)          -179.2634         estimate D2E/DX2                !
 ! D12   D(7,5,6,14)            60.4433         estimate D2E/DX2                !
 ! D13   D(8,5,6,12)           178.4856         estimate D2E/DX2                !
 ! D14   D(8,5,6,13)            59.4242         estimate D2E/DX2                !
 ! D15   D(8,5,6,14)           -60.8691         estimate D2E/DX2                !
 ! D16   D(2,5,7,9)            -36.8045         estimate D2E/DX2                !
 ! D17   D(2,5,7,10)          -157.4475         estimate D2E/DX2                !
 ! D18   D(2,5,7,11)            82.2571         estimate D2E/DX2                !
 ! D19   D(6,5,7,9)             60.2079         estimate D2E/DX2                !
 ! D20   D(6,5,7,10)           -60.4351         estimate D2E/DX2                !
 ! D21   D(6,5,7,11)           179.2695         estimate D2E/DX2                !
 ! D22   D(8,5,7,9)           -178.481          estimate D2E/DX2                !
 ! D23   D(8,5,7,10)            60.876          estimate D2E/DX2                !
 ! D24   D(8,5,7,11)           -59.4194         estimate D2E/DX2                !
 ! D25   D(2,5,8,15)            59.4842         estimate D2E/DX2                !
 ! D26   D(2,5,8,16)           -59.6134         estimate D2E/DX2                !
 ! D27   D(2,5,8,17)           179.9355         estimate D2E/DX2                !
 ! D28   D(6,5,8,15)           -59.9495         estimate D2E/DX2                !
 ! D29   D(6,5,8,16)          -179.0471         estimate D2E/DX2                !
 ! D30   D(6,5,8,17)            60.5018         estimate D2E/DX2                !
 ! D31   D(7,5,8,15)           179.0366         estimate D2E/DX2                !
 ! D32   D(7,5,8,16)            59.9391         estimate D2E/DX2                !
 ! D33   D(7,5,8,17)           -60.5121         estimate D2E/DX2                !
 --------------------------------------------------------------------------------
 Trust Radius=3.00D-01 FncErr=1.00D-07 GrdErr=1.00D-07 EigMax=2.50D+02 EigMin=1.00D-04
 Number of steps in this run=     87 maximum allowed number of steps=    102.
 GradGradGradGradGradGradGradGradGradGradGradGradGradGradGradGradGradGrad

                          Input orientation:                          
 ---------------------------------------------------------------------
 Center     Atomic      Atomic             Coordinates (Angstroms)
 Number     Number       Type             X           Y           Z
 ---------------------------------------------------------------------
      1          7           0       -2.654155    0.000138    0.271359
      2          1           0       -1.668236   -0.000230    0.559756
      3          1           0       -3.089416    0.813759    0.706969
      4          1           0       -3.089563   -0.814294    0.705302
      5          7           0        0.452107    0.000022    0.135151
      6          6           0        0.410842   -1.196174   -0.709127
      7          6           0        0.412793    1.197962   -0.706714
      8          6           0        1.665844   -0.001818    0.951484
      9          1           0       -0.517430    1.199797   -1.294567
     10          1           0        1.278056    1.245441   -1.405256
     11          1           0        0.430649    2.096507   -0.070370
     12          1           0       -0.519323   -1.195270   -1.297062
     13          1           0        0.427123   -2.096015   -0.074570
     14          1           0        1.276112   -1.243713   -1.407651
     15          1           0        1.679221   -0.896082    1.593327
     16          1           0        1.680803    0.891217    1.595002
     17          1           0        2.589473   -0.002052    0.329694
 ---------------------------------------------------------------------
                    Distance matrix (angstroms):
                    1          2          3          4          5
     1  N    0.000000
     2  H    1.027234   0.000000
     3  H    1.020386   1.644385   0.000000
     4  H    1.020385   1.644401   1.628054   0.000000
     5  N    3.109247   2.162439   3.678523   3.678534   0.000000
     6  C    3.433180   2.713469   4.277495   3.794638   1.464716
     7  C    3.434760   2.714828   3.796259   4.278956   1.464699
     8  C    4.373210   3.357014   4.830885   4.830592   1.462724
     9  H    2.908075   2.490569   3.281811   3.830393   2.103225
    10  H    4.452426   3.754145   4.870591   5.270015   2.146186
    11  H    3.745338   3.032933   3.826298   4.633176   2.106644
    12  H    2.906278   2.489155   3.828540   3.280356   2.103244
    13  H    3.742699   3.030712   4.630727   3.823361   2.106651
    14  H    4.451206   3.753149   5.269027   4.869095   2.146182
    15  H    4.618328   3.616115   5.142867   4.851451   2.105965
    16  H    4.619298   3.616970   4.852792   5.143610   2.105965
    17  H    5.243953   4.263920   5.749579   5.749110   2.146202
                    6          7          8          9         10
     6  C    0.000000
     7  C    2.394138   0.000000
     8  C    2.399822   2.399839   0.000000
     9  H    2.635357   1.100404   3.354893   0.000000
    10  H    2.682935   1.113057   2.694487   1.799474   0.000000
    11  H    3.354124   1.101197   2.640617   1.789302   1.795643
    12  H    1.100398   2.635320   3.354883   2.395069   3.033043
    13  H    1.101200   3.354116   2.640621   3.639086   3.695963
    14  H    1.113053   2.682985   2.694385   3.033203   2.489156
    15  H    2.645777   3.358430   1.100840   4.190217   3.706556
    16  H    3.358424   2.645721   1.100841   3.643770   3.047823
    17  H    2.692863   2.692974   1.113424   3.706145   2.507211
                   11         12         13         14         15
    11  H    0.000000
    12  H    3.639095   0.000000
    13  H    4.192526   1.789298   0.000000
    14  H    3.695970   1.799490   1.795635   0.000000
    15  H    3.644504   3.643825   2.406132   3.047821   0.000000
    16  H    2.406049   4.190229   3.644549   3.706430   1.787300
    17  H    3.037190   3.706038   3.037082   2.506992   1.795722
                   16         17
    16  H    0.000000
    17  H    1.795721   0.000000
 Stoichiometry    C3H12N2
 Framework group  C1[X(C3H12N2)]
 Deg. of freedom    45
 Full point group                 C1      NOp   1
 Largest Abelian subgroup         C1      NOp   1
 Largest concise Abelian subgroup C1      NOp   1
                         Standard orientation:                         
 ---------------------------------------------------------------------
 Center     Atomic      Atomic             Coordinates (Angstroms)
 Number     Number       Type             X           Y           Z
 ---------------------------------------------------------------------
      1          7           0       -2.654155    0.000138    0.271359
      2          1           0       -1.668236   -0.000230    0.559756
      3          1           0       -3.089416    0.813759    0.706969
      4          1           0       -3.089563   -0.814294    0.705302
      5          7           0        0.452107    0.000022    0.135151
      6          6           0        0.410842   -1.196174   -0.709127
      7          6           0        0.412793    1.197962   -0.706714
      8          6           0        1.665844   -0.001818    0.951484
      9          1           0       -0.517430    1.199797   -1.294567
     10          1           0        1.278056    1.245441   -1.405256
     11          1           0        0.430649    2.096507   -0.070370
     12          1           0       -0.519323   -1.195270   -1.297062
     13          1           0        0.427123   -2.096015   -0.074570
     14          1           0        1.276112   -1.243713   -1.407651
     15          1           0        1.679221   -0.896082    1.593327
     16          1           0        1.680803    0.891217    1.595002
     17          1           0        2.589473   -0.002052    0.329694
 ---------------------------------------------------------------------
 Rotational constants (GHZ):           5.5962448           2.3431947           2.1993406
 Standard basis: Aug-CC-pVTZ (5D, 7F)
 There are   575 symmetry adapted cartesian basis functions of A   symmetry.
 There are   506 symmetry adapted basis functions of A   symmetry.
   506 basis functions,   684 primitive gaussians,   575 cartesian basis functions
    22 alpha electrons       22 beta electrons
       nuclear repulsion energy       199.8394577631 Hartrees.
 NAtoms=   17 NActive=   17 NUniq=   17 SFac= 1.00D+00 NAtFMM=   60 NAOKFM=F Big=F
 Integral buffers will be    131072 words long.
 Raffenetti 1 integral format.
 Two-electron integral symmetry is turned on.
 One-electron integrals computed using PRISM.
 NBasis=   506 RedAO= T EigKep=  6.79D-06  NBF=   506
 NBsUse=   506 1.00D-06 EigRej= -1.00D+00 NBFU=   506
 ExpMin= 2.53D-02 ExpMax= 1.14D+04 ExpMxC= 3.89D+02 IAcc=3 IRadAn=         5 AccDes= 0.00D+00
 Harris functional with IExCor=  205 and IRadAn=       5 diagonalized for initial guess.
 HarFok:  IExCor=  205 AccDes= 0.00D+00 IRadAn=         5 IDoV= 1 UseB2=F ITyADJ=14
 ICtDFT=  3500011 ScaDFX=  1.000000  1.000000  1.000000  1.000000
 FoFCou: FMM=F IPFlag=           0 FMFlag=      100000 FMFlg1=           0
         NFxFlg=           0 DoJE=T BraDBF=F KetDBF=T FulRan=T
         wScrn=  0.000000 ICntrl=       500 IOpCl=  0 I1Cent=   200000004 NGrid=           0
         NMat0=    1 NMatS0=      1 NMatT0=    0 NMatD0=    1 NMtDS0=    0 NMtDT0=    0
 Petite list used in FoFCou.
 Requested convergence on RMS density matrix=1.00D-08 within 128 cycles.
 Requested convergence on MAX density matrix=1.00D-06.
 Requested convergence on             energy=1.00D-06.
 No special actions if energy rises.
 Initial convergence to 1.0D-05 achieved.  Increase integral accuracy.
 SCF Done:  E(RHF) =  -229.553416141     A.U. after   12 cycles
            NFock= 12  Conv=0.30D-08     -V/T= 2.0023
 ExpMin= 2.53D-02 ExpMax= 1.14D+04 ExpMxC= 3.89D+02 IAcc=3 IRadAn=         5 AccDes= 0.00D+00
 HarFok:  IExCor=  205 AccDes= 0.00D+00 IRadAn=         5 IDoV=-2 UseB2=F ITyADJ=14
 ICtDFT= 12500011 ScaDFX=  1.000000  1.000000  1.000000  1.000000
 Range of M.O.s used for correlation:     6   506
 NBasis=   506 NAE=    22 NBE=    22 NFC=     5 NFV=     0
 NROrb=    501 NOA=    17 NOB=    17 NVA=   484 NVB=   484

 **** Warning!!: The largest alpha MO coefficient is  0.96650453D+02

 Disk-based method using ON**2 memory for 17 occupieds at a time.
 Estimated scratch disk usage=  5841332772 words.
 Actual    scratch disk usage=  5500545572 words.
 JobTyp=1 Pass  1:  I=   6 to  22 NPSUse= 28 ParTrn=T ParDer=T DoDerP=T.
 (rs|ai) integrals will be sorted in core.
 Spin components of T(2) and E(2):
     alpha-alpha T2 =       0.3596420102D-01 E2=     -0.1128085769D+00
     alpha-beta  T2 =       0.2290574385D+00 E2=     -0.7893126442D+00
     beta-beta   T2 =       0.3596420102D-01 E2=     -0.1128085769D+00
 ANorm=    0.1140607663D+01
 E2 =    -0.1014929798D+01 EUMP2 =    -0.23056834593872D+03
          IDoAtm=11111111111111111
          Differentiating once with respect to electric field.
                with respect to dipole field.
          Differentiating once with respect to nuclear coordinates.
          There are     1 degrees of freedom in the 1st order CPHF.  IDoFFX=0 NUNeed=     1.
 LinEq1:  Iter=  0 NonCon=     1 RMS=1.88D-03 Max=2.66D-02 NDo=     1
 AX will form     1 AO Fock derivatives at one time.
 LinEq1:  Iter=  1 NonCon=     1 RMS=4.80D-04 Max=6.81D-03 NDo=     1
 LinEq1:  Iter=  2 NonCon=     1 RMS=1.47D-04 Max=2.76D-03 NDo=     1
 LinEq1:  Iter=  3 NonCon=     1 RMS=3.69D-05 Max=7.12D-04 NDo=     1
 LinEq1:  Iter=  4 NonCon=     1 RMS=1.21D-05 Max=1.50D-04 NDo=     1
 LinEq1:  Iter=  5 NonCon=     1 RMS=2.79D-06 Max=4.12D-05 NDo=     1
 LinEq1:  Iter=  6 NonCon=     1 RMS=7.23D-07 Max=1.33D-05 NDo=     1
 LinEq1:  Iter=  7 NonCon=     1 RMS=2.68D-07 Max=5.01D-06 NDo=     1
 LinEq1:  Iter=  8 NonCon=     1 RMS=7.80D-08 Max=1.30D-06 NDo=     1
 LinEq1:  Iter=  9 NonCon=     1 RMS=2.01D-08 Max=3.36D-07 NDo=     1
 LinEq1:  Iter= 10 NonCon=     1 RMS=4.15D-09 Max=7.86D-08 NDo=     1
 LinEq1:  Iter= 11 NonCon=     1 RMS=8.11D-10 Max=1.18D-08 NDo=     1
 LinEq1:  Iter= 12 NonCon=     1 RMS=2.43D-10 Max=3.76D-09 NDo=     1
 LinEq1:  Iter= 13 NonCon=     0 RMS=6.43D-11 Max=8.99D-10 NDo=     1
 Linear equations converged to 1.000D-10 1.000D-09 after    13 iterations.
 End of Minotr F.D. properties file   721 does not exist.
 End of Minotr F.D. properties file   722 does not exist.
 End of Minotr F.D. properties file   788 does not exist.

 **********************************************************************

            Population analysis using the SCF density.

 **********************************************************************

 Orbital symmetries:
       Occupied  (A) (A) (A) (A) (A) (A) (A) (A) (A) (A) (A) (A)
                 (A) (A) (A) (A) (A) (A) (A) (A) (A) (A)
       Virtual   (A) (A) (A) (A) (A) (A) (A) (A) (A) (A) (A) (A)
                 (A) (A) (A) (A) (A) (A) (A) (A) (A) (A) (A) (A)
                 (A) (A) (A) (A) (A) (A) (A) (A) (A) (A) (A) (A)
                 (A) (A) (A) (A) (A) (A) (A) (A) (A) (A) (A) (A)
                 (A) (A) (A) (A) (A) (A) (A) (A) (A) (A) (A) (A)
                 (A) (A) (A) (A) (A) (A) (A) (A) (A) (A) (A) (A)
                 (A) (A) (A) (A) (A) (A) (A) (A) (A) (A) (A) (A)
                 (A) (A) (A) (A) (A) (A) (A) (A) (A) (A) (A) (A)
                 (A) (A) (A) (A) (A) (A) (A) (A) (A) (A) (A) (A)
                 (A) (A) (A) (A) (A) (A) (A) (A) (A) (A) (A) (A)
                 (A) (A) (A) (A) (A) (A) (A) (A) (A) (A) (A) (A)
                 (A) (A) (A) (A) (A) (A) (A) (A) (A) (A) (A) (A)
                 (A) (A) (A) (A) (A) (A) (A) (A) (A) (A) (A) (A)
                 (A) (A) (A) (A) (A) (A) (A) (A) (A) (A) (A) (A)
                 (A) (A) (A) (A) (A) (A) (A) (A) (A) (A) (A) (A)
                 (A) (A) (A) (A) (A) (A) (A) (A) (A) (A) (A) (A)
                 (A) (A) (A) (A) (A) (A) (A) (A) (A) (A) (A) (A)
                 (A) (A) (A) (A) (A) (A) (A) (A) (A) (A) (A) (A)
                 (A) (A) (A) (A) (A) (A) (A) (A) (A) (A) (A) (A)
                 (A) (A) (A) (A) (A) (A) (A) (A) (A) (A) (A) (A)
                 (A) (A) (A) (A) (A) (A) (A) (A) (A) (A) (A) (A)
                 (A) (A) (A) (A) (A) (A) (A) (A) (A) (A) (A) (A)
                 (A) (A) (A) (A) (A) (A) (A) (A) (A) (A) (A) (A)
                 (A) (A) (A) (A) (A) (A) (A) (A) (A) (A) (A) (A)
                 (A) (A) (A) (A) (A) (A) (A) (A) (A) (A) (A) (A)
                 (A) (A) (A) (A) (A) (A) (A) (A) (A) (A) (A) (A)
                 (A) (A) (A) (A) (A) (A) (A) (A) (A) (A) (A) (A)
                 (A) (A) (A) (A) (A) (A) (A) (A) (A) (A) (A) (A)
                 (A) (A) (A) (A) (A) (A) (A) (A) (A) (A) (A) (A)
                 (A) (A) (A) (A) (A) (A) (A) (A) (A) (A) (A) (A)
                 (A) (A) (A) (A) (A) (A) (A) (A) (A) (A) (A) (A)
                 (A) (A) (A) (A) (A) (A) (A) (A) (A) (A) (A) (A)
                 (A) (A) (A) (A) (A) (A) (A) (A) (A) (A) (A) (A)
                 (A) (A) (A) (A) (A) (A) (A) (A) (A) (A) (A) (A)
                 (A) (A) (A) (A) (A) (A) (A) (A) (A) (A) (A) (A)
                 (A) (A) (A) (A) (A) (A) (A) (A) (A) (A) (A) (A)
                 (A) (A) (A) (A) (A) (A) (A) (A) (A) (A) (A) (A)
                 (A) (A) (A) (A) (A) (A) (A) (A) (A) (A) (A) (A)
                 (A) (A) (A) (A) (A) (A) (A) (A) (A) (A) (A) (A)
                 (A) (A) (A) (A) (A) (A) (A) (A) (A) (A) (A) (A)
                 (A) (A) (A) (A)
 The electronic state is 1-A.
 Alpha  occ. eigenvalues --  -15.55544 -15.52264 -11.24817 -11.24416 -11.24414
 Alpha  occ. eigenvalues --   -1.22536  -1.11819  -0.94785  -0.94547  -0.80663
 Alpha  occ. eigenvalues --   -0.65237  -0.62911  -0.62654  -0.60564  -0.59527
 Alpha  occ. eigenvalues --   -0.54394  -0.54253  -0.51614  -0.49927  -0.49870
 Alpha  occ. eigenvalues --   -0.41252  -0.36523
 Alpha virt. eigenvalues --    0.02836   0.03869   0.03926   0.04134   0.05588
 Alpha virt. eigenvalues --    0.05727   0.05962   0.06037   0.06670   0.07828
 Alpha virt. eigenvalues --    0.08270   0.08483   0.11941   0.12203   0.13080
 Alpha virt. eigenvalues --    0.13128   0.13502   0.14259   0.14611   0.15068
 Alpha virt. eigenvalues --    0.15275   0.16189   0.16705   0.18362   0.18414
 Alpha virt. eigenvalues --    0.18653   0.18870   0.19771   0.20624   0.21020
 Alpha virt. eigenvalues --    0.21778   0.24648   0.25113   0.25273   0.26079
 Alpha virt. eigenvalues --    0.26870   0.27942   0.28211   0.29902   0.30791
 Alpha virt. eigenvalues --    0.31281   0.32894   0.33731   0.34253   0.34784
 Alpha virt. eigenvalues --    0.34862   0.35303   0.35584   0.36641   0.36703
 Alpha virt. eigenvalues --    0.37671   0.37877   0.38492   0.38726   0.38755
 Alpha virt. eigenvalues --    0.39284   0.39656   0.40536   0.40750   0.41456
 Alpha virt. eigenvalues --    0.42108   0.42352   0.43325   0.43767   0.44879
 Alpha virt. eigenvalues --    0.45082   0.45816   0.45890   0.46992   0.47495
 Alpha virt. eigenvalues --    0.47610   0.48161   0.48590   0.49297   0.49368
 Alpha virt. eigenvalues --    0.50163   0.50678   0.51466   0.52151   0.53309
 Alpha virt. eigenvalues --    0.53344   0.53436   0.54568   0.54857   0.55906
 Alpha virt. eigenvalues --    0.56690   0.57817   0.58422   0.60427   0.60614
 Alpha virt. eigenvalues --    0.60953   0.62239   0.62715   0.63444   0.64238
 Alpha virt. eigenvalues --    0.64491   0.65401   0.66702   0.67707   0.68072
 Alpha virt. eigenvalues --    0.68743   0.71805   0.73898   0.74691   0.75018
 Alpha virt. eigenvalues --    0.75572   0.75861   0.77469   0.78465   0.79399
 Alpha virt. eigenvalues --    0.79572   0.80907   0.81411   0.83108   0.84626
 Alpha virt. eigenvalues --    0.84811   0.86921   0.88433   0.88746   0.89173
 Alpha virt. eigenvalues --    0.90557   0.91009   0.91072   0.91408   0.92708
 Alpha virt. eigenvalues --    0.92851   0.93444   0.93806   0.94625   0.94642
 Alpha virt. eigenvalues --    0.95750   0.96768   0.97533   0.98132   0.98766
 Alpha virt. eigenvalues --    0.99259   1.01012   1.01876   1.03069   1.03174
 Alpha virt. eigenvalues --    1.03742   1.05125   1.05608   1.06594   1.07529
 Alpha virt. eigenvalues --    1.08477   1.09053   1.10749   1.11236   1.12847
 Alpha virt. eigenvalues --    1.13157   1.13209   1.13498   1.15208   1.15252
 Alpha virt. eigenvalues --    1.16446   1.18591   1.18740   1.19126   1.19356
 Alpha virt. eigenvalues --    1.20008   1.20081   1.21887   1.22684   1.23453
 Alpha virt. eigenvalues --    1.23747   1.23898   1.25466   1.26498   1.26638
 Alpha virt. eigenvalues --    1.27384   1.27856   1.30245   1.31023   1.31851
 Alpha virt. eigenvalues --    1.33486   1.34392   1.34755   1.37488   1.37985
 Alpha virt. eigenvalues --    1.38493   1.39229   1.40725   1.41954   1.42813
 Alpha virt. eigenvalues --    1.43352   1.44221   1.44830   1.44843   1.47311
 Alpha virt. eigenvalues --    1.50342   1.50824   1.52205   1.52602   1.53501
 Alpha virt. eigenvalues --    1.54054   1.54332   1.54936   1.55682   1.56977
 Alpha virt. eigenvalues --    1.57064   1.62146   1.62547   1.63182   1.64762
 Alpha virt. eigenvalues --    1.65391   1.65826   1.66438   1.67558   1.68437
 Alpha virt. eigenvalues --    1.68844   1.69763   1.70471   1.71572   1.72134
 Alpha virt. eigenvalues --    1.75006   1.75069   1.76060   1.77375   1.77640
 Alpha virt. eigenvalues --    1.79042   1.79404   1.81751   1.82258   1.83354
 Alpha virt. eigenvalues --    1.84679   1.86475   1.86572   1.88975   1.90513
 Alpha virt. eigenvalues --    1.91268   1.92828   1.93033   1.95601   1.97192
 Alpha virt. eigenvalues --    1.99009   1.99029   1.99143   2.01141   2.02500
 Alpha virt. eigenvalues --    2.04085   2.05474   2.05877   2.06646   2.08635
 Alpha virt. eigenvalues --    2.10503   2.11790   2.13816   2.14875   2.16537
 Alpha virt. eigenvalues --    2.16746   2.17645   2.17969   2.20702   2.21487
 Alpha virt. eigenvalues --    2.22462   2.22782   2.24985   2.27336   2.28064
 Alpha virt. eigenvalues --    2.28707   2.30199   2.30537   2.31945   2.36853
 Alpha virt. eigenvalues --    2.37156   2.38302   2.39545   2.42440   2.43971
 Alpha virt. eigenvalues --    2.44972   2.45063   2.45873   2.49097   2.50122
 Alpha virt. eigenvalues --    2.50662   2.52174   2.56168   2.57745   2.58031
 Alpha virt. eigenvalues --    2.59860   2.64579   2.65654   2.69439   2.71090
 Alpha virt. eigenvalues --    2.71356   2.72581   2.74182   2.79088   2.80647
 Alpha virt. eigenvalues --    2.85633   3.02581   3.04381   3.06365   3.16292
 Alpha virt. eigenvalues --    3.21245   3.30196   3.42471   3.42509   3.46585
 Alpha virt. eigenvalues --    3.49650   3.53587   3.54230   3.55309   3.59693
 Alpha virt. eigenvalues --    3.60258   3.63627   3.63888   3.66395   3.67795
 Alpha virt. eigenvalues --    3.69914   3.70148   3.74064   3.76320   3.76984
 Alpha virt. eigenvalues --    3.77582   3.80211   3.80599   3.80895   3.82829
 Alpha virt. eigenvalues --    3.84170   3.85203   3.89145   3.90152   3.90979
 Alpha virt. eigenvalues --    3.92213   3.92242   3.93575   3.94063   3.94789
 Alpha virt. eigenvalues --    3.97738   3.99091   4.00133   4.00893   4.01302
 Alpha virt. eigenvalues --    4.01526   4.03702   4.04351   4.09695   4.11509
 Alpha virt. eigenvalues --    4.12274   4.13162   4.14717   4.15766   4.20017
 Alpha virt. eigenvalues --    4.20436   4.21923   4.23061   4.24093   4.25425
 Alpha virt. eigenvalues --    4.26440   4.27315   4.29425   4.29616   4.29988
 Alpha virt. eigenvalues --    4.31803   4.33205   4.34602   4.35256   4.35768
 Alpha virt. eigenvalues --    4.40164   4.40562   4.41847   4.42471   4.45484
 Alpha virt. eigenvalues --    4.46474   4.49792   4.51124   4.51743   4.53508
 Alpha virt. eigenvalues --    4.55104   4.57801   4.58008   4.62190   4.63036
 Alpha virt. eigenvalues --    4.63599   4.64907   4.65302   4.69775   4.70037
 Alpha virt. eigenvalues --    4.71255   4.75168   4.78095   4.79386   4.79668
 Alpha virt. eigenvalues --    4.82311   4.83469   4.84108   4.84871   4.85720
 Alpha virt. eigenvalues --    4.89126   4.89351   4.89609   4.90974   4.95807
 Alpha virt. eigenvalues --    4.98440   5.00791   5.02169   5.02804   5.03071
 Alpha virt. eigenvalues --    5.06217   5.06754   5.07062   5.09222   5.12838
 Alpha virt. eigenvalues --    5.13524   5.15013   5.15806   5.18799   5.20544
 Alpha virt. eigenvalues --    5.22579   5.25240   5.25939   5.27669   5.30793
 Alpha virt. eigenvalues --    5.33156   5.37256   5.37431   5.37977   5.40288
 Alpha virt. eigenvalues --    5.40317   5.46380   5.47700   5.47890   5.51954
 Alpha virt. eigenvalues --    5.53138   5.56612   5.58723   5.61866   5.62518
 Alpha virt. eigenvalues --    5.62715   5.65842   5.69627   5.74894   5.75811
 Alpha virt. eigenvalues --    5.80704   5.81924   5.84886   5.86540   5.88332
 Alpha virt. eigenvalues --    5.89191   5.89614   5.93425   5.95473   6.00238
 Alpha virt. eigenvalues --    6.03388   6.03997   6.04170   6.08716   6.10711
 Alpha virt. eigenvalues --    6.12788   6.16110   6.17224   6.22841   6.25185
 Alpha virt. eigenvalues --    6.28508   6.32330   6.36555   6.37501   6.44145
 Alpha virt. eigenvalues --    6.46430   6.53478   6.53622   6.76640   6.77830
 Alpha virt. eigenvalues --    6.79024   6.82191   6.85300   6.85784   6.91424
 Alpha virt. eigenvalues --    6.91726   6.94548   6.97317   7.00741   7.01807
 Alpha virt. eigenvalues --    7.03426   7.11668   7.79608   7.80212  16.74600
 Alpha virt. eigenvalues --   17.93524  18.23873  18.24339  18.67690
          Condensed to atoms (all electrons):
               1          2          3          4          5          6
     1  N    6.745918   0.183484   0.369796   0.369724  -0.021186  -0.010465
     2  H    0.183484   0.414788   0.002855   0.002937   0.023042  -0.004053
     3  H    0.369796   0.002855   0.511999  -0.008391  -0.003567   0.001199
     4  H    0.369724   0.002937  -0.008391   0.512017  -0.003580   0.001868
     5  N   -0.021186   0.023042  -0.003567  -0.003580   6.780146   0.184358
     6  C   -0.010465  -0.004053   0.001199   0.001868   0.184358   5.636578
     7  C   -0.010401  -0.004091   0.001863   0.001197   0.184412   0.005665
     8  C    0.005477  -0.009996   0.001382   0.001383   0.031255  -0.032048
     9  H   -0.003975   0.001186   0.000776   0.001117   0.002039  -0.004028
    10  H   -0.000042  -0.000140   0.000218   0.000060  -0.045760  -0.002541
    11  H    0.002371  -0.000648  -0.000476  -0.000226   0.020272  -0.002080
    12  H   -0.003957   0.001179   0.001120   0.000766   0.002166   0.365152
    13  H    0.002378  -0.000641  -0.000227  -0.000478   0.020277   0.399868
    14  H   -0.000039  -0.000140   0.000060   0.000219  -0.045805   0.411588
    15  H   -0.000088   0.000208   0.000024   0.000206  -0.038247  -0.000748
    16  H   -0.000087   0.000208   0.000205   0.000023  -0.038175  -0.006497
    17  H    0.000142  -0.000573   0.000051   0.000051  -0.050121  -0.002689
               7          8          9         10         11         12
     1  N   -0.010401   0.005477  -0.003975  -0.000042   0.002371  -0.003957
     2  H   -0.004091  -0.009996   0.001186  -0.000140  -0.000648   0.001179
     3  H    0.001863   0.001382   0.000776   0.000218  -0.000476   0.001120
     4  H    0.001197   0.001383   0.001117   0.000060  -0.000226   0.000766
     5  N    0.184412   0.031255   0.002039  -0.045760   0.020272   0.002166
     6  C    0.005665  -0.032048  -0.004028  -0.002541  -0.002080   0.365152
     7  C    5.636447  -0.031953   0.365277   0.411489   0.399901  -0.004047
     8  C   -0.031953   5.708412  -0.003999   0.014684  -0.010934  -0.004012
     9  H    0.365277  -0.003999   0.267062   0.006345   0.018382   0.002130
    10  H    0.411489   0.014684   0.006345   0.306907   0.011516  -0.001013
    11  H    0.399901  -0.010934   0.018382   0.011516   0.270054  -0.000480
    12  H   -0.004047  -0.004012   0.002130  -0.001013  -0.000480   0.267107
    13  H   -0.002069  -0.010952  -0.000482  -0.000752  -0.000682   0.018368
    14  H   -0.002539   0.014683  -0.001008   0.008023  -0.000754   0.006277
    15  H   -0.006498   0.419869  -0.000877   0.001068  -0.001014   0.000512
    16  H   -0.000740   0.419870   0.000514   0.001662   0.000062  -0.000877
    17  H   -0.002677   0.409905   0.000319   0.005055  -0.001268   0.000317
              13         14         15         16         17
     1  N    0.002378  -0.000039  -0.000088  -0.000087   0.000142
     2  H   -0.000641  -0.000140   0.000208   0.000208  -0.000573
     3  H   -0.000227   0.000060   0.000024   0.000205   0.000051
     4  H   -0.000478   0.000219   0.000206   0.000023   0.000051
     5  N    0.020277  -0.045805  -0.038247  -0.038175  -0.050121
     6  C    0.399868   0.411588  -0.000748  -0.006497  -0.002689
     7  C   -0.002069  -0.002539  -0.006498  -0.000740  -0.002677
     8  C   -0.010952   0.014683   0.419869   0.419870   0.409905
     9  H   -0.000482  -0.001008  -0.000877   0.000514   0.000319
    10  H   -0.000752   0.008023   0.001068   0.001662   0.005055
    11  H   -0.000682  -0.000754  -0.001014   0.000062  -0.001268
    12  H    0.018368   0.006277   0.000512  -0.000877   0.000317
    13  H    0.270021   0.011521   0.000059  -0.001013  -0.001268
    14  H    0.011521   0.307061   0.001670   0.001063   0.005058
    15  H    0.000059   0.001670   0.267722   0.022428   0.019516
    16  H   -0.001013   0.001063   0.022428   0.267719   0.019503
    17  H   -0.001268   0.005058   0.019516   0.019503   0.280520
 Mulliken charges:
               1
     1  N   -0.629052
     2  H    0.390394
     3  H    0.121114
     4  H    0.121108
     5  N   -0.001525
     6  C   -0.941127
     7  C   -0.941234
     8  C   -0.923025
     9  H    0.349222
    10  H    0.283220
    11  H    0.296002
    12  H    0.349293
    13  H    0.296071
    14  H    0.283062
    15  H    0.314189
    16  H    0.314133
    17  H    0.318157
 Sum of Mulliken charges =  -0.00000
 Mulliken charges with hydrogens summed into heavy atoms:
               1
     1  N    0.003564
     5  N   -0.001525
     6  C   -0.012702
     7  C   -0.012789
     8  C    0.023453
 Electronic spatial extent (au):  <R**2>=            679.7464
 Charge=             -0.0000 electrons
 Dipole moment (field-independent basis, Debye):
    X=              1.1694    Y=             -0.0015    Z=              0.9331  Tot=              1.4961
 Quadrupole moment (field-independent basis, Debye-Ang):
   XX=            -36.2249   YY=            -32.8217   ZZ=            -35.3800
   XY=              0.0050   XZ=             -3.2534   YZ=              0.0022
 Traceless Quadrupole moment (field-independent basis, Debye-Ang):
   XX=             -1.4160   YY=              1.9871   ZZ=             -0.5711
   XY=              0.0050   XZ=             -3.2534   YZ=              0.0022
 Octapole moment (field-independent basis, Debye-Ang**2):
  XXX=             -6.2354  YYY=             -0.0050  ZZZ=              1.8864  XYY=             -5.8507
  XXY=             -0.0132  XXZ=             13.6307  XZZ=             -0.5545  YZZ=              0.0052
  YYZ=              3.4949  XYZ=             -0.0052
 Hexadecapole moment (field-independent basis, Debye-Ang**3):
 XXXX=           -536.2219 YYYY=           -201.8818 ZZZZ=           -168.0711 XXXY=              0.0462
 XXXZ=            -46.2844 YYYX=              0.0102 YYYZ=             -0.0007 ZZZX=              0.1235
 ZZZY=              0.0099 XXYY=           -113.5859 XXZZ=           -117.9301 YYZZ=            -59.7277
 XXYZ=              0.0231 YYXZ=             -2.7674 ZZXY=             -0.0058
 N-N= 1.998394577631D+02 E-N=-9.351325568551D+02  KE= 2.290373751982D+02
 Calling FoFJK, ICntrl=  10002127 FMM=F ISym2X=0 I1Cent= 0 IOpClX= 0 NMat=1 NMatS=1 NMatT=0.
 ***** Axes restored to original set *****
 -------------------------------------------------------------------
 Center     Atomic                   Forces (Hartrees/Bohr)
 Number     Number              X              Y              Z
 -------------------------------------------------------------------
      1        7           0.000125992   -0.000005241    0.006841126
      2        1          -0.005367965    0.000006026   -0.001663672
      3        1           0.002622856   -0.004702987   -0.002622384
      4        1           0.002623931    0.004707027   -0.002612928
      5        7           0.004411942   -0.000009411   -0.003433797
      6        6          -0.000129030   -0.001661566   -0.000772344
      7        6          -0.000133350    0.001666003   -0.000772112
      8        6           0.001353266    0.000000189    0.001387152
      9        1           0.006037553   -0.000247689    0.003934627
     10        1          -0.005454421   -0.000702444    0.004641170
     11        1          -0.000013066   -0.006124787   -0.004137487
     12        1           0.006036278    0.000229138    0.003935226
     13        1          -0.000002440    0.006132993   -0.004125590
     14        1          -0.005453765    0.000702464    0.004640221
     15        1          -0.000224758    0.005911376   -0.004473779
     16        1          -0.000235637   -0.005903493   -0.004484104
     17        1          -0.006197387    0.000002400    0.003718674
 -------------------------------------------------------------------
 Cartesian Forces:  Max     0.006841126 RMS     0.003627149

 GradGradGradGradGradGradGradGradGradGradGradGradGradGradGradGradGradGrad
 Berny optimization.
 FormGI is forming the generalized inverse of G from B-inverse, IUseBI=4.
 Internal  Forces:  Max     0.007413563 RMS     0.003041568
 Search for a local minimum.
 Step number   1 out of a maximum of   87
 All quantities printed in internal units (Hartrees-Bohrs-Radians)
 Mixed Optimization -- RFO/linear search
 Second derivative matrix not updated -- first step.
 ITU=  0
     Eigenvalues ---    0.00230   0.00668   0.00836   0.00836   0.00862
     Eigenvalues ---    0.02888   0.03330   0.04074   0.05440   0.05814
     Eigenvalues ---    0.05823   0.05823   0.06075   0.06095   0.06095
     Eigenvalues ---    0.06436   0.12425   0.13790   0.14693   0.16000
     Eigenvalues ---    0.16000   0.16000   0.16000   0.16000   0.16000
     Eigenvalues ---    0.16000   0.16000   0.16000   0.16000   0.25000
     Eigenvalues ---    0.32240   0.32279   0.32279   0.33550   0.33550
     Eigenvalues ---    0.33589   0.33589   0.33637   0.33638   0.36380
     Eigenvalues ---    0.36382   0.36625   0.43204   0.44277   0.44277
 RFO step:  Lambda=-2.04240719D-03 EMin= 2.30000000D-03
 Linear search not attempted -- first point.
 Iteration  1 RMS(Cart)=  0.01370002 RMS(Int)=  0.00002141
 Iteration  2 RMS(Cart)=  0.00003242 RMS(Int)=  0.00000299
 Iteration  3 RMS(Cart)=  0.00000000 RMS(Int)=  0.00000299
 Variable       Old X    -DE/DX   Delta X   Delta X   Delta X     New X
                                 (Linear)    (Quad)   (Total)
    R1        1.94119  -0.00561   0.00000  -0.01292  -0.01292   1.92827
    R2        1.92825  -0.00599   0.00000  -0.01346  -0.01346   1.91479
    R3        1.92825  -0.00599   0.00000  -0.01346  -0.01346   1.91479
    R4        4.08642  -0.00002   0.00000  -0.00046  -0.00046   4.08596
    R5        2.76791  -0.00654   0.00000  -0.01789  -0.01789   2.75002
    R6        2.76788  -0.00654   0.00000  -0.01788  -0.01788   2.75000
    R7        2.76415  -0.00655   0.00000  -0.01779  -0.01779   2.74636
    R8        2.07945  -0.00720   0.00000  -0.02129  -0.02129   2.05816
    R9        2.08097  -0.00739   0.00000  -0.02189  -0.02189   2.05908
   R10        2.10337  -0.00718   0.00000  -0.02211  -0.02211   2.08126
   R11        2.07946  -0.00721   0.00000  -0.02129  -0.02129   2.05817
   R12        2.10337  -0.00718   0.00000  -0.02211  -0.02211   2.08126
   R13        2.08096  -0.00739   0.00000  -0.02189  -0.02189   2.05907
   R14        2.08029  -0.00741   0.00000  -0.02194  -0.02194   2.05835
   R15        2.08029  -0.00741   0.00000  -0.02194  -0.02194   2.05835
   R16        2.10407  -0.00722   0.00000  -0.02225  -0.02225   2.08182
    A1        1.86486  -0.00004   0.00000  -0.00005  -0.00005   1.86480
    A2        1.86488  -0.00004   0.00000  -0.00008  -0.00008   1.86481
    A3        1.84716   0.00015   0.00000   0.00135   0.00135   1.84851
    A4        2.65938   0.00007   0.00000   0.00027   0.00027   2.65965
    A5        1.65636   0.00010   0.00000   0.00227   0.00228   1.65864
    A6        1.65754   0.00010   0.00000   0.00217   0.00218   1.65972
    A7        2.35187   0.00011   0.00000   0.00272   0.00272   2.35459
    A8        1.91333  -0.00014   0.00000  -0.00324  -0.00325   1.91009
    A9        1.92201  -0.00010   0.00000  -0.00224  -0.00225   1.91976
   A10        1.92205  -0.00009   0.00000  -0.00224  -0.00226   1.91979
   A11        1.90828  -0.00022   0.00000  -0.00124  -0.00124   1.90704
   A12        1.91216  -0.00007   0.00000  -0.00014  -0.00014   1.91202
   A13        1.95489  -0.00058   0.00000  -0.00398  -0.00398   1.95091
   A14        1.89764   0.00024   0.00000   0.00231   0.00231   1.89994
   A15        1.89848   0.00035   0.00000   0.00164   0.00163   1.90011
   A16        1.89151   0.00030   0.00000   0.00162   0.00162   1.89312
   A17        1.90827  -0.00022   0.00000  -0.00124  -0.00124   1.90703
   A18        1.95491  -0.00058   0.00000  -0.00398  -0.00398   1.95093
   A19        1.91218  -0.00007   0.00000  -0.00014  -0.00014   1.91204
   A20        1.89844   0.00035   0.00000   0.00164   0.00164   1.90008
   A21        1.89764   0.00024   0.00000   0.00231   0.00231   1.89995
   A22        1.89152   0.00030   0.00000   0.00161   0.00161   1.89313
   A23        1.91399  -0.00015   0.00000  -0.00071  -0.00072   1.91328
   A24        1.91399  -0.00015   0.00000  -0.00071  -0.00071   1.91328
   A25        1.95699  -0.00050   0.00000  -0.00350  -0.00351   1.95349
   A26        1.89442   0.00026   0.00000   0.00250   0.00250   1.89691
   A27        1.89162   0.00028   0.00000   0.00133   0.00133   1.89295
   A28        1.89162   0.00028   0.00000   0.00133   0.00133   1.89295
    D1       -2.15611   0.00007   0.00000   0.00067   0.00067  -2.15544
    D2        2.15608  -0.00007   0.00000  -0.00081  -0.00081   2.15526
    D3       -1.98308  -0.00001   0.00000  -0.00051  -0.00051  -1.98359
    D4       -0.96185   0.00006   0.00000   0.00127   0.00127  -0.96058
    D5        0.96208  -0.00006   0.00000  -0.00146  -0.00146   0.96062
    D6       -3.14070  -0.00000   0.00000  -0.00016  -0.00016  -3.14086
    D7        0.64329   0.00004   0.00000  -0.00147  -0.00148   0.64181
    D8       -1.43473  -0.00009   0.00000  -0.00346  -0.00346  -1.43819
    D9        2.74895  -0.00005   0.00000  -0.00283  -0.00283   2.74612
   D10       -1.05072  -0.00008   0.00000  -0.00422  -0.00421  -1.05494
   D11       -3.12874  -0.00021   0.00000  -0.00620  -0.00620  -3.13494
   D12        1.05494  -0.00017   0.00000  -0.00557  -0.00557   1.04937
   D13        3.11516   0.00018   0.00000   0.00209   0.00209   3.11725
   D14        1.03715   0.00006   0.00000   0.00011   0.00011   1.03725
   D15       -1.06237   0.00010   0.00000   0.00074   0.00074  -1.06163
   D16       -0.64236  -0.00004   0.00000   0.00139   0.00139  -0.64097
   D17       -2.74798   0.00004   0.00000   0.00274   0.00274  -2.74524
   D18        1.43566   0.00009   0.00000   0.00338   0.00338   1.43904
   D19        1.05083   0.00009   0.00000   0.00420   0.00420   1.05503
   D20       -1.05479   0.00017   0.00000   0.00555   0.00555  -1.04924
   D21        3.12884   0.00021   0.00000   0.00619   0.00619   3.13503
   D22       -3.11508  -0.00018   0.00000  -0.00211  -0.00210  -3.11718
   D23        1.06249  -0.00010   0.00000  -0.00075  -0.00075   1.06173
   D24       -1.03706  -0.00006   0.00000  -0.00011  -0.00011  -1.03718
   D25        1.03819   0.00007   0.00000   0.00118   0.00118   1.03938
   D26       -1.04045  -0.00007   0.00000  -0.00100  -0.00100  -1.04145
   D27        3.14047   0.00000   0.00000   0.00009   0.00009   3.14055
   D28       -1.04632  -0.00008   0.00000  -0.00237  -0.00237  -1.04869
   D29       -3.12496  -0.00022   0.00000  -0.00456  -0.00455  -3.12952
   D30        1.05596  -0.00015   0.00000  -0.00347  -0.00346   1.05249
   D31        3.12478   0.00022   0.00000   0.00457   0.00456   3.12934
   D32        1.04613   0.00008   0.00000   0.00238   0.00238   1.04851
   D33       -1.05613   0.00015   0.00000   0.00347   0.00347  -1.05267
         Item               Value     Threshold  Converged?
 Maximum Force            0.007414     0.000450     NO 
 RMS     Force            0.003042     0.000300     NO 
 Maximum Displacement     0.039908     0.001800     NO 
 RMS     Displacement     0.013692     0.001200     NO 
 Predicted change in Energy=-1.027523D-03
 GradGradGradGradGradGradGradGradGradGradGradGradGradGradGradGradGradGrad

                          Input orientation:                          
 ---------------------------------------------------------------------
 Center     Atomic      Atomic             Coordinates (Angstroms)
 Number     Number       Type             X           Y           Z
 ---------------------------------------------------------------------
      1          7           0       -2.649302    0.000241    0.272539
      2          1           0       -1.670030   -0.000197    0.559313
      3          1           0       -3.081417    0.808538    0.704548
      4          1           0       -3.081587   -0.808975    0.702652
      5          7           0        0.450318   -0.000012    0.135965
      6          6           0        0.412715   -1.187112   -0.704945
      7          6           0        0.414582    1.188828   -0.702540
      8          6           0        1.657986   -0.001803    0.944450
      9          1           0       -0.506082    1.190603   -1.284428
     10          1           0        1.272081    1.228145   -1.392564
     11          1           0        0.435933    2.078885   -0.074367
     12          1           0       -0.507900   -1.186229   -1.286904
     13          1           0        0.432567   -2.078461   -0.078554
     14          1           0        1.270226   -1.226431   -1.394952
     15          1           0        1.672474   -0.887435    1.578384
     16          1           0        1.673981    0.882603    1.580057
     17          1           0        2.568355   -0.001992    0.324074
 ---------------------------------------------------------------------
                    Distance matrix (angstroms):
                    1          2          3          4          5
     1  N    0.000000
     2  H    1.020398   0.000000
     3  H    1.013262   1.633143   0.000000
     4  H    1.013262   1.633144   1.617514   0.000000
     5  N    3.102627   2.162199   3.667450   3.667412   0.000000
     6  C    3.426548   2.710156   4.263595   3.786089   1.455249
     7  C    3.427959   2.711395   3.787680   4.264854   1.455236
     8  C    4.359380   3.350228   4.814161   4.813891   1.453310
     9  H    2.904221   2.484384   3.276332   3.818381   2.085613
    10  H    4.433684   3.738270   4.850452   5.243493   2.126044
    11  H    3.736278   3.026419   3.819978   4.616973   2.089559
    12  H    2.902615   2.483090   3.816800   3.274832   2.085629
    13  H    3.733923   3.024396   4.614769   3.817219   2.089565
    14  H    4.432600   3.737366   5.242689   4.848968   2.126043
    15  H    4.601189   3.605278   5.122439   4.834683   2.088481
    16  H    4.602058   3.606060   4.835887   5.123154   2.088483
    17  H    5.217912   4.244909   5.720283   5.719824   2.126374
                    6          7          8          9         10
     6  C    0.000000
     7  C    2.375942   0.000000
     8  C    2.382469   2.382485   0.000000
     9  H    2.614099   1.089136   3.327599   0.000000
    10  H    2.654203   1.101355   2.668956   1.781843   0.000000
    11  H    3.326394   1.089614   2.619287   1.772197   1.777792
    12  H    1.089132   2.614068   3.327591   2.376834   3.001449
    13  H    1.089616   3.326388   2.619293   3.608597   3.655823
    14  H    1.101354   2.654249   2.668871   3.001589   2.454577
    15  H    2.624955   3.331032   1.089232   4.154520   3.669131
    16  H    3.331028   2.624902   1.089232   3.612867   3.019503
    17  H    2.666491   2.666595   1.101652   3.669022   2.477985
                   11         12         13         14         15
    11  H    0.000000
    12  H    3.608605   0.000000
    13  H    4.157349   1.772192   0.000000
    14  H    3.655831   1.781859   1.777788   0.000000
    15  H    3.613816   3.612918   2.387751   3.019511   0.000000
    16  H    2.387671   4.154532   3.613862   3.669021   1.770039
    17  H    3.005998   3.668925   3.005898   2.477789   1.777612
                   16         17
    16  H    0.000000
    17  H    1.777612   0.000000
 Stoichiometry    C3H12N2
 Framework group  C1[X(C3H12N2)]
 Deg. of freedom    45
 Full point group                 C1      NOp   1
 Largest Abelian subgroup         C1      NOp   1
 Largest concise Abelian subgroup C1      NOp   1
                         Standard orientation:                         
 ---------------------------------------------------------------------
 Center     Atomic      Atomic             Coordinates (Angstroms)
 Number     Number       Type             X           Y           Z
 ---------------------------------------------------------------------
      1          7           0       -2.649846    0.000145    0.266181
      2          1           0       -1.671219   -0.000216    0.555148
      3          1           0       -3.082965    0.808470    0.697132
      4          1           0       -3.083057   -0.809043    0.695415
      5          7           0        0.450072    0.000021    0.136552
      6          6           0        0.414408   -1.187174   -0.704310
      7          6           0        0.416159    1.188767   -0.702163
      8          6           0        1.655926   -0.001625    0.947740
      9          1           0       -0.503198    1.190435   -1.286112
     10          1           0        1.275201    1.228046   -1.390269
     11          1           0        0.436062    2.078893   -0.074042
     12          1           0       -0.504901   -1.186398   -1.288329
     13          1           0        0.432897   -2.078452   -0.077777
     14          1           0        1.273464   -1.226529   -1.392389
     15          1           0        1.669034   -0.887186    1.581803
     16          1           0        1.670456    0.882852    1.583283
     17          1           0        2.567682   -0.001840    0.329405
 ---------------------------------------------------------------------
 Rotational constants (GHZ):           5.6819046           2.3593158           2.2167651
 Standard basis: Aug-CC-pVTZ (5D, 7F)
 There are   575 symmetry adapted cartesian basis functions of A   symmetry.
 There are   506 symmetry adapted basis functions of A   symmetry.
   506 basis functions,   684 primitive gaussians,   575 cartesian basis functions
    22 alpha electrons       22 beta electrons
       nuclear repulsion energy       201.1696654046 Hartrees.
 NAtoms=   17 NActive=   17 NUniq=   17 SFac= 1.00D+00 NAtFMM=   60 NAOKFM=F Big=F
 Integral buffers will be    131072 words long.
 Raffenetti 1 integral format.
 Two-electron integral symmetry is turned on.
 One-electron integrals computed using PRISM.
 NBasis=   506 RedAO= T EigKep=  6.52D-06  NBF=   506
 NBsUse=   506 1.00D-06 EigRej= -1.00D+00 NBFU=   506
 Initial guess from the checkpoint file:  "/gscratch/scrubbed/gds001/Gau-7529.chk"
 B after Tr=    -0.000000   -0.000000   -0.000000
         Rot=    0.999999    0.000058    0.001067   -0.000018 Ang=   0.12 deg.
 ExpMin= 2.53D-02 ExpMax= 1.14D+04 ExpMxC= 3.89D+02 IAcc=3 IRadAn=         5 AccDes= 0.00D+00
 Harris functional with IExCor=  205 and IRadAn=       5 diagonalized for initial guess.
 HarFok:  IExCor=  205 AccDes= 0.00D+00 IRadAn=         5 IDoV= 1 UseB2=F ITyADJ=14
 ICtDFT=  3500011 ScaDFX=  1.000000  1.000000  1.000000  1.000000
 FoFCou: FMM=F IPFlag=           0 FMFlag=      100000 FMFlg1=           0
         NFxFlg=           0 DoJE=T BraDBF=F KetDBF=T FulRan=T
         wScrn=  0.000000 ICntrl=       500 IOpCl=  0 I1Cent=   200000004 NGrid=           0
         NMat0=    1 NMatS0=      1 NMatT0=    0 NMatD0=    1 NMtDS0=    0 NMtDT0=    0
 Petite list used in FoFCou.
 Requested convergence on RMS density matrix=1.00D-08 within 128 cycles.
 Requested convergence on MAX density matrix=1.00D-06.
 Requested convergence on             energy=1.00D-06.
 No special actions if energy rises.
 Initial convergence to 1.0D-05 achieved.  Increase integral accuracy.
 SCF Done:  E(RHF) =  -229.556043120     A.U. after    9 cycles
            NFock=  9  Conv=0.35D-08     -V/T= 2.0012
 ExpMin= 2.53D-02 ExpMax= 1.14D+04 ExpMxC= 3.89D+02 IAcc=3 IRadAn=         5 AccDes= 0.00D+00
 HarFok:  IExCor=  205 AccDes= 0.00D+00 IRadAn=         5 IDoV=-2 UseB2=F ITyADJ=14
 ICtDFT= 12500011 ScaDFX=  1.000000  1.000000  1.000000  1.000000
 Range of M.O.s used for correlation:     6   506
 NBasis=   506 NAE=    22 NBE=    22 NFC=     5 NFV=     0
 NROrb=    501 NOA=    17 NOB=    17 NVA=   484 NVB=   484

 **** Warning!!: The largest alpha MO coefficient is  0.95311887D+02

 Disk-based method using ON**2 memory for 17 occupieds at a time.
 Estimated scratch disk usage=  5842523600 words.
 Actual    scratch disk usage=  5501736400 words.
 JobTyp=1 Pass  1:  I=   6 to  22 NPSUse= 28 ParTrn=T ParDer=T DoDerP=T.
 (rs|ai) integrals will be sorted in core.
 Spin components of T(2) and E(2):
     alpha-alpha T2 =       0.3565729763D-01 E2=     -0.1127983027D+00
     alpha-beta  T2 =       0.2263636269D+00 E2=     -0.7877077172D+00
     beta-beta   T2 =       0.3565729763D-01 E2=     -0.1127983027D+00
 ANorm=    0.1139156803D+01
 E2 =    -0.1013304323D+01 EUMP2 =    -0.23056934744232D+03
          IDoAtm=11111111111111111
          Differentiating once with respect to electric field.
                with respect to dipole field.
          Differentiating once with respect to nuclear coordinates.
          There are     1 degrees of freedom in the 1st order CPHF.  IDoFFX=0 NUNeed=     1.
 LinEq1:  Iter=  0 NonCon=     1 RMS=1.86D-03 Max=2.67D-02 NDo=     1
 AX will form     1 AO Fock derivatives at one time.
 LinEq1:  Iter=  1 NonCon=     1 RMS=4.64D-04 Max=6.55D-03 NDo=     1
 LinEq1:  Iter=  2 NonCon=     1 RMS=1.43D-04 Max=2.66D-03 NDo=     1
 LinEq1:  Iter=  3 NonCon=     1 RMS=3.58D-05 Max=6.87D-04 NDo=     1
 LinEq1:  Iter=  4 NonCon=     1 RMS=1.17D-05 Max=1.45D-04 NDo=     1
 LinEq1:  Iter=  5 NonCon=     1 RMS=2.67D-06 Max=4.14D-05 NDo=     1
 LinEq1:  Iter=  6 NonCon=     1 RMS=6.95D-07 Max=1.27D-05 NDo=     1
 LinEq1:  Iter=  7 NonCon=     1 RMS=2.54D-07 Max=4.79D-06 NDo=     1
 LinEq1:  Iter=  8 NonCon=     1 RMS=7.38D-08 Max=1.18D-06 NDo=     1
 LinEq1:  Iter=  9 NonCon=     1 RMS=1.89D-08 Max=3.13D-07 NDo=     1
 LinEq1:  Iter= 10 NonCon=     1 RMS=3.89D-09 Max=7.51D-08 NDo=     1
 LinEq1:  Iter= 11 NonCon=     1 RMS=7.50D-10 Max=1.09D-08 NDo=     1
 LinEq1:  Iter= 12 NonCon=     1 RMS=2.23D-10 Max=3.37D-09 NDo=     1
 LinEq1:  Iter= 13 NonCon=     0 RMS=5.92D-11 Max=8.44D-10 NDo=     1
 Linear equations converged to 1.000D-10 1.000D-09 after    13 iterations.
 End of Minotr F.D. properties file   721 does not exist.
 End of Minotr F.D. properties file   722 does not exist.
 End of Minotr F.D. properties file   788 does not exist.
 Calling FoFJK, ICntrl=  10002127 FMM=F ISym2X=0 I1Cent= 0 IOpClX= 0 NMat=1 NMatS=1 NMatT=0.
 ***** Axes restored to original set *****
 -------------------------------------------------------------------
 Center     Atomic                   Forces (Hartrees/Bohr)
 Number     Number              X              Y              Z
 -------------------------------------------------------------------
      1        7           0.000135597   -0.000002178    0.001408484
      2        1          -0.000164350    0.000005948   -0.000541985
      3        1          -0.000059973    0.000119846   -0.000448553
      4        1          -0.000061387   -0.000119170   -0.000449595
      5        7           0.000965344   -0.000007647   -0.000685676
      6        6          -0.000490622   -0.000206897    0.000374556
      7        6          -0.000495970    0.000208912    0.000372890
      8        6          -0.000326615    0.000001351    0.000522521
      9        1          -0.000049023    0.000258930   -0.000187087
     10        1           0.000043093   -0.000013308   -0.000084329
     11        1          -0.000001977    0.000237399   -0.000146402
     12        1          -0.000049740   -0.000258596   -0.000188067
     13        1          -0.000001889   -0.000237239   -0.000147082
     14        1           0.000042352    0.000013474   -0.000085259
     15        1           0.000213883   -0.000031332    0.000167624
     16        1           0.000213291    0.000030011    0.000168349
     17        1           0.000087987    0.000000496   -0.000050391
 -------------------------------------------------------------------
 Cartesian Forces:  Max     0.001408484 RMS     0.000341269

 GradGradGradGradGradGradGradGradGradGradGradGradGradGradGradGradGradGrad
 Berny optimization.
 Using GEDIIS/GDIIS optimizer.
 FormGI is forming the generalized inverse of G from B-inverse, IUseBI=4.
 Internal  Forces:  Max     0.000606229 RMS     0.000209084
 Search for a local minimum.
 Step number   2 out of a maximum of   87
 All quantities printed in internal units (Hartrees-Bohrs-Radians)
 Mixed Optimization -- En-DIIS/RFO-DIIS
 Update second derivatives using D2CorX and points    1    2
 DE= -1.00D-03 DEPred=-1.03D-03 R= 9.75D-01
 TightC=F SS=  1.41D+00  RLast= 7.88D-02 DXNew= 5.0454D-01 2.3653D-01
 Trust test= 9.75D-01 RLast= 7.88D-02 DXMaxT set to 3.00D-01
 ITU=  1  0
 Use linear search instead of GDIIS.
     Eigenvalues ---    0.00230   0.00668   0.00835   0.00836   0.00862
     Eigenvalues ---    0.02870   0.03330   0.04150   0.05424   0.05841
     Eigenvalues ---    0.05853   0.05853   0.06079   0.06099   0.06103
     Eigenvalues ---    0.06444   0.12422   0.13751   0.14650   0.15945
     Eigenvalues ---    0.16000   0.16000   0.16000   0.16000   0.16000
     Eigenvalues ---    0.16000   0.16000   0.16000   0.16066   0.24998
     Eigenvalues ---    0.32241   0.32264   0.32279   0.33541   0.33550
     Eigenvalues ---    0.33589   0.33594   0.33638   0.33676   0.36381
     Eigenvalues ---    0.36534   0.37791   0.43075   0.44146   0.44277
 RFO step:  Lambda=-2.68676274D-05 EMin= 2.29999992D-03
 Quartic linear search produced a step of -0.02796.
 Iteration  1 RMS(Cart)=  0.00285076 RMS(Int)=  0.00000865
 Iteration  2 RMS(Cart)=  0.00000675 RMS(Int)=  0.00000549
 Iteration  3 RMS(Cart)=  0.00000000 RMS(Int)=  0.00000549
 Variable       Old X    -DE/DX   Delta X   Delta X   Delta X     New X
                                 (Linear)    (Quad)   (Total)
    R1        1.92827  -0.00016   0.00036  -0.00090  -0.00053   1.92774
    R2        1.91479  -0.00007   0.00038  -0.00072  -0.00034   1.91445
    R3        1.91479  -0.00007   0.00038  -0.00072  -0.00034   1.91445
    R4        4.08596   0.00014   0.00001   0.00409   0.00410   4.09007
    R5        2.75002   0.00060   0.00050   0.00085   0.00135   2.75138
    R6        2.75000   0.00060   0.00050   0.00086   0.00136   2.75136
    R7        2.74636   0.00061   0.00050   0.00086   0.00136   2.74772
    R8        2.05816   0.00014   0.00060  -0.00049   0.00011   2.05827
    R9        2.05908   0.00011   0.00061  -0.00061   0.00001   2.05908
   R10        2.08126   0.00009   0.00062  -0.00067  -0.00006   2.08120
   R11        2.05817   0.00014   0.00060  -0.00049   0.00011   2.05828
   R12        2.08126   0.00009   0.00062  -0.00067  -0.00006   2.08120
   R13        2.05907   0.00011   0.00061  -0.00061   0.00001   2.05908
   R14        2.05835   0.00013   0.00061  -0.00056   0.00005   2.05840
   R15        2.05835   0.00013   0.00061  -0.00056   0.00005   2.05840
   R16        2.08182   0.00010   0.00062  -0.00063  -0.00001   2.08181
    A1        1.86480   0.00042   0.00000   0.00430   0.00429   1.86909
    A2        1.86481   0.00011   0.00000   0.00403   0.00401   1.86881
    A3        1.84851   0.00031  -0.00004   0.00487   0.00481   1.85332
    A4        2.65965   0.00010  -0.00001   0.00042   0.00041   2.66005
    A5        1.65864  -0.00010  -0.00006  -0.00200  -0.00206   1.65658
    A6        1.65972  -0.00010  -0.00006  -0.00210  -0.00215   1.65756
    A7        2.35459  -0.00006  -0.00008  -0.00186  -0.00193   2.35266
    A8        1.91009   0.00016   0.00009   0.00293   0.00301   1.91310
    A9        1.91976   0.00006   0.00006   0.00178   0.00184   1.92160
   A10        1.91979   0.00007   0.00006   0.00178   0.00183   1.92162
   A11        1.90704   0.00037   0.00003   0.00229   0.00232   1.90936
   A12        1.91202   0.00032   0.00000   0.00209   0.00209   1.91411
   A13        1.95091  -0.00014   0.00011  -0.00123  -0.00111   1.94980
   A14        1.89994  -0.00028  -0.00006  -0.00115  -0.00122   1.89873
   A15        1.90011  -0.00016  -0.00005  -0.00118  -0.00123   1.89888
   A16        1.89312  -0.00013  -0.00005  -0.00088  -0.00092   1.89220
   A17        1.90703   0.00037   0.00003   0.00229   0.00232   1.90935
   A18        1.95093  -0.00014   0.00011  -0.00123  -0.00112   1.94981
   A19        1.91204   0.00032   0.00000   0.00208   0.00209   1.91412
   A20        1.90008  -0.00016  -0.00005  -0.00117  -0.00122   1.89886
   A21        1.89995  -0.00028  -0.00006  -0.00115  -0.00122   1.89873
   A22        1.89313  -0.00013  -0.00005  -0.00088  -0.00092   1.89221
   A23        1.91328   0.00031   0.00002   0.00193   0.00195   1.91523
   A24        1.91328   0.00031   0.00002   0.00193   0.00195   1.91523
   A25        1.95349  -0.00012   0.00010  -0.00107  -0.00098   1.95251
   A26        1.89691  -0.00025  -0.00007  -0.00099  -0.00106   1.89586
   A27        1.89295  -0.00013  -0.00004  -0.00093  -0.00097   1.89198
   A28        1.89295  -0.00013  -0.00004  -0.00093  -0.00097   1.89198
    D1       -2.15544   0.00030  -0.00002   0.00461   0.00460  -2.15084
    D2        2.15526  -0.00030   0.00002  -0.00476  -0.00474   2.15052
    D3       -1.98359  -0.00045   0.00001  -0.00870  -0.00871  -1.99229
    D4       -0.96058  -0.00007  -0.00004  -0.00136  -0.00139  -0.96198
    D5        0.96062   0.00007   0.00004   0.00109   0.00113   0.96175
    D6       -3.14086  -0.00000   0.00000  -0.00021  -0.00020  -3.14106
    D7        0.64181   0.00002   0.00004  -0.00111  -0.00106   0.64075
    D8       -1.43819  -0.00005   0.00010  -0.00233  -0.00224  -1.44042
    D9        2.74612  -0.00003   0.00008  -0.00184  -0.00176   2.74436
   D10       -1.05494   0.00014   0.00012   0.00148   0.00160  -1.05334
   D11       -3.13494   0.00007   0.00017   0.00025   0.00042  -3.13451
   D12        1.04937   0.00010   0.00016   0.00074   0.00090   1.05027
   D13        3.11725  -0.00008  -0.00006  -0.00370  -0.00376   3.11349
   D14        1.03725  -0.00016  -0.00000  -0.00493  -0.00494   1.03232
   D15       -1.06163  -0.00013  -0.00002  -0.00444  -0.00446  -1.06609
   D16       -0.64097  -0.00002  -0.00004   0.00102   0.00098  -0.63999
   D17       -2.74524   0.00002  -0.00008   0.00175   0.00167  -2.74356
   D18        1.43904   0.00005  -0.00009   0.00225   0.00215   1.44119
   D19        1.05503  -0.00014  -0.00012  -0.00149  -0.00161   1.05341
   D20       -1.04924  -0.00010  -0.00016  -0.00077  -0.00092  -1.05017
   D21        3.13503  -0.00007  -0.00017  -0.00027  -0.00044   3.13459
   D22       -3.11718   0.00008   0.00006   0.00369   0.00375  -3.11343
   D23        1.06173   0.00013   0.00002   0.00442   0.00444   1.06618
   D24       -1.03718   0.00016   0.00000   0.00492   0.00493  -1.03225
   D25        1.03938   0.00003  -0.00003   0.00067   0.00064   1.04002
   D26       -1.04145  -0.00003   0.00003  -0.00047  -0.00044  -1.04189
   D27        3.14055   0.00000  -0.00000   0.00010   0.00010   3.14066
   D28       -1.04869   0.00017   0.00007   0.00353   0.00360  -1.04509
   D29       -3.12952   0.00011   0.00013   0.00239   0.00252  -3.12699
   D30        1.05249   0.00014   0.00010   0.00296   0.00306   1.05555
   D31        3.12934  -0.00011  -0.00013  -0.00237  -0.00250   3.12684
   D32        1.04851  -0.00017  -0.00007  -0.00351  -0.00358   1.04493
   D33       -1.05267  -0.00014  -0.00010  -0.00294  -0.00304  -1.05570
         Item               Value     Threshold  Converged?
 Maximum Force            0.000606     0.000450     NO 
 RMS     Force            0.000209     0.000300     YES
 Maximum Displacement     0.007937     0.001800     NO 
 RMS     Displacement     0.002849     0.001200     NO 
 Predicted change in Energy=-1.437062D-05
 GradGradGradGradGradGradGradGradGradGradGradGradGradGradGradGradGradGrad

                          Input orientation:                          
 ---------------------------------------------------------------------
 Center     Atomic      Atomic             Coordinates (Angstroms)
 Number     Number       Type             X           Y           Z
 ---------------------------------------------------------------------
      1          7           0       -2.648962    0.000376    0.273961
      2          1           0       -1.669701   -0.000157    0.559761
      3          1           0       -3.083305    0.809901    0.700983
      4          1           0       -3.083295   -0.810256    0.698890
      5          7           0        0.452563   -0.000047    0.134918
      6          6           0        0.411814   -1.188992   -0.704478
      7          6           0        0.413626    1.190650   -0.702060
      8          6           0        1.659670   -0.001807    0.945530
      9          1           0       -0.507881    1.194698   -1.282705
     10          1           0        1.269355    1.230379   -1.394206
     11          1           0        0.436905    2.081068   -0.074462
     12          1           0       -0.509656   -1.190429   -1.285188
     13          1           0        0.433651   -2.080711   -0.078674
     14          1           0        1.267543   -1.228662   -1.396625
     15          1           0        1.675407   -0.887134    1.579908
     16          1           0        1.676852    0.882276    1.581601
     17          1           0        2.570315   -0.001958    0.325572
 ---------------------------------------------------------------------
                    Distance matrix (angstroms):
                    1          2          3          4          5
     1  N    0.000000
     2  H    1.020115   0.000000
     3  H    1.013081   1.635364   0.000000
     4  H    1.013082   1.635196   1.620159   0.000000
     5  N    3.104641   2.164370   3.671350   3.671075   0.000000
     6  C    3.426410   2.710042   4.264592   3.785322   1.455966
     7  C    3.427654   2.711174   3.787087   4.265529   1.455955
     8  C    4.360656   3.351646   4.818142   4.817689   1.454029
     9  H    2.904108   2.484388   3.273514   3.818287   2.087947
    10  H    4.432708   3.737681   4.848946   5.243167   2.125869
    11  H    3.738081   3.028452   3.822180   4.620566   2.091679
    12  H    2.902687   2.483201   3.817049   3.271806   2.087961
    13  H    3.736011   3.026614   4.618711   3.819368   2.091685
    14  H    4.431749   3.736853   5.242669   4.847271   2.125867
    15  H    4.603622   3.607932   5.128136   4.840180   2.090518
    16  H    4.604383   3.608637   4.841469   5.128629   2.090519
    17  H    5.219533   4.246479   5.723939   5.723287   2.126317
                    6          7          8          9         10
     6  C    0.000000
     7  C    2.379643   0.000000
     8  C    2.385178   2.385189   0.000000
     9  H    2.619573   1.089193   3.330905   0.000000
    10  H    2.657905   1.101325   2.673012   1.781088   0.000000
    11  H    3.330291   1.089617   2.621813   1.771474   1.777180
    12  H    1.089190   2.619547   3.330901   2.385130   3.006174
    13  H    1.089619   3.330287   2.621823   3.614482   3.659555
    14  H    1.101324   2.657943   2.672943   3.006291   2.459043
    15  H    2.627966   3.334164   1.089260   4.158765   3.673431
    16  H    3.334161   2.627915   1.089260   3.615925   3.023683
    17  H    2.670052   2.670140   1.101645   3.673395   2.483705
                   11         12         13         14         15
    11  H    0.000000
    12  H    3.614488   0.000000
    13  H    4.161782   1.771470   0.000000
    14  H    3.659561   1.781100   1.777177   0.000000
    15  H    3.616773   3.615974   2.391126   3.023697   0.000000
    16  H    2.391049   4.158775   3.616816   3.673340   1.769412
    17  H    3.008399   3.673314   3.008316   2.483542   1.777008
                   16         17
    16  H    0.000000
    17  H    1.777008   0.000000
 Stoichiometry    C3H12N2
 Framework group  C1[X(C3H12N2)]
 Deg. of freedom    45
 Full point group                 C1      NOp   1
 Largest Abelian subgroup         C1      NOp   1
 Largest concise Abelian subgroup C1      NOp   1
                         Standard orientation:                         
 ---------------------------------------------------------------------
 Center     Atomic      Atomic             Coordinates (Angstroms)
 Number     Number       Type             X           Y           Z
 ---------------------------------------------------------------------
      1          7           0       -2.649684    0.000161    0.268875
      2          1           0       -1.670897   -0.000208    0.556294
      3          1           0       -3.084815    0.809739    0.694994
      4          1           0       -3.084637   -0.810419    0.693270
      5          7           0        0.452067    0.000020    0.134962
      6          6           0        0.412825   -1.189120   -0.704229
      7          6           0        0.414394    1.190522   -0.702350
      8          6           0        1.657831   -0.001434    0.947570
      9          1           0       -0.506152    1.194345   -1.284519
     10          1           0        1.271263    1.230180   -1.393089
     11          1           0        0.436544    2.081085   -0.074918
     12          1           0       -0.507683   -1.190783   -1.286462
     13          1           0        0.433717   -2.080695   -0.078187
     14          1           0        1.269702   -1.228862   -1.394951
     15          1           0        1.672608   -0.886614    1.582175
     16          1           0        1.673872    0.882797    1.583467
     17          1           0        2.569501   -0.001634    0.329119
 ---------------------------------------------------------------------
 Rotational constants (GHZ):           5.6707989           2.3580892           2.2142985
 Standard basis: Aug-CC-pVTZ (5D, 7F)
 There are   575 symmetry adapted cartesian basis functions of A   symmetry.
 There are   506 symmetry adapted basis functions of A   symmetry.
   506 basis functions,   684 primitive gaussians,   575 cartesian basis functions
    22 alpha electrons       22 beta electrons
       nuclear repulsion energy       201.0607622352 Hartrees.
 NAtoms=   17 NActive=   17 NUniq=   17 SFac= 1.00D+00 NAtFMM=   60 NAOKFM=F Big=F
 Integral buffers will be    131072 words long.
 Raffenetti 1 integral format.
 Two-electron integral symmetry is turned on.
 One-electron integrals computed using PRISM.
 NBasis=   506 RedAO= T EigKep=  6.55D-06  NBF=   506
 NBsUse=   506 1.00D-06 EigRej= -1.00D+00 NBFU=   506
 Initial guess from the checkpoint file:  "/gscratch/scrubbed/gds001/Gau-7529.chk"
 B after Tr=     0.000000    0.000000    0.000000
         Rot=    1.000000    0.000061   -0.000411   -0.000020 Ang=   0.05 deg.
 Requested convergence on RMS density matrix=1.00D-08 within 128 cycles.
 Requested convergence on MAX density matrix=1.00D-06.
 Requested convergence on             energy=1.00D-06.
 No special actions if energy rises.
 SCF Done:  E(RHF) =  -229.556180826     A.U. after    8 cycles
            NFock=  8  Conv=0.29D-08     -V/T= 2.0012
 ExpMin= 2.53D-02 ExpMax= 1.14D+04 ExpMxC= 3.89D+02 IAcc=3 IRadAn=         5 AccDes= 0.00D+00
 HarFok:  IExCor=  205 AccDes= 0.00D+00 IRadAn=         5 IDoV=-2 UseB2=F ITyADJ=14
 ICtDFT= 12500011 ScaDFX=  1.000000  1.000000  1.000000  1.000000
 Range of M.O.s used for correlation:     6   506
 NBasis=   506 NAE=    22 NBE=    22 NFC=     5 NFV=     0
 NROrb=    501 NOA=    17 NOB=    17 NVA=   484 NVB=   484

 **** Warning!!: The largest alpha MO coefficient is  0.95591590D+02

 Disk-based method using ON**2 memory for 17 occupieds at a time.
 Estimated scratch disk usage=  5842485512 words.
 Actual    scratch disk usage=  5501698312 words.
 JobTyp=1 Pass  1:  I=   6 to  22 NPSUse= 28 ParTrn=T ParDer=T DoDerP=T.
 (rs|ai) integrals will be sorted in core.
 Spin components of T(2) and E(2):
     alpha-alpha T2 =       0.3565291243D-01 E2=     -0.1127679490D+00
     alpha-beta  T2 =       0.2263749184D+00 E2=     -0.7876464889D+00
     beta-beta   T2 =       0.3565291243D-01 E2=     -0.1127679490D+00
 ANorm=    0.1139157910D+01
 E2 =    -0.1013182387D+01 EUMP2 =    -0.23056936321239D+03
          IDoAtm=11111111111111111
          Differentiating once with respect to electric field.
                with respect to dipole field.
          Differentiating once with respect to nuclear coordinates.
          There are     1 degrees of freedom in the 1st order CPHF.  IDoFFX=0 NUNeed=     1.
 LinEq1:  Iter=  0 NonCon=     1 RMS=1.86D-03 Max=2.67D-02 NDo=     1
 AX will form     1 AO Fock derivatives at one time.
 LinEq1:  Iter=  1 NonCon=     1 RMS=4.64D-04 Max=6.44D-03 NDo=     1
 LinEq1:  Iter=  2 NonCon=     1 RMS=1.43D-04 Max=2.65D-03 NDo=     1
 LinEq1:  Iter=  3 NonCon=     1 RMS=3.58D-05 Max=6.74D-04 NDo=     1
 LinEq1:  Iter=  4 NonCon=     1 RMS=1.17D-05 Max=1.43D-04 NDo=     1
 LinEq1:  Iter=  5 NonCon=     1 RMS=2.67D-06 Max=4.15D-05 NDo=     1
 LinEq1:  Iter=  6 NonCon=     1 RMS=6.98D-07 Max=1.26D-05 NDo=     1
 LinEq1:  Iter=  7 NonCon=     1 RMS=2.56D-07 Max=4.88D-06 NDo=     1
 LinEq1:  Iter=  8 NonCon=     1 RMS=7.38D-08 Max=1.18D-06 NDo=     1
 LinEq1:  Iter=  9 NonCon=     1 RMS=1.89D-08 Max=3.13D-07 NDo=     1
 LinEq1:  Iter= 10 NonCon=     1 RMS=3.89D-09 Max=7.50D-08 NDo=     1
 LinEq1:  Iter= 11 NonCon=     1 RMS=7.58D-10 Max=1.09D-08 NDo=     1
 LinEq1:  Iter= 12 NonCon=     1 RMS=2.26D-10 Max=3.42D-09 NDo=     1
 LinEq1:  Iter= 13 NonCon=     0 RMS=5.95D-11 Max=8.47D-10 NDo=     1
 Linear equations converged to 1.000D-10 1.000D-09 after    13 iterations.
 End of Minotr F.D. properties file   721 does not exist.
 End of Minotr F.D. properties file   722 does not exist.
 End of Minotr F.D. properties file   788 does not exist.
 Calling FoFJK, ICntrl=  10002127 FMM=F ISym2X=0 I1Cent= 0 IOpClX= 0 NMat=1 NMatS=1 NMatT=0.
 ***** Axes restored to original set *****
 -------------------------------------------------------------------
 Center     Atomic                   Forces (Hartrees/Bohr)
 Number     Number              X              Y              Z
 -------------------------------------------------------------------
[...]
 1.6770725901,-0.887333267,1.5796318945\H,1.6781600181,0.8823439808,1.5
 81483939\H,2.573619117,-0.0017328413,0.3264253262\\Version=ES64L-G16Re
 vA.03\State=1-A\HF=-229.556315\MP2=-230.569367\RMSD=8.535e-09\RMSF=8.4
 44e-06\Dipole=0.4312337,-0.0007635,0.3534878\PG=C01 [X(C3H12N2)]\\@


 AND ALL THIS SCIENCE I DON'T UNDERSTAND
 IT'S JUST MY JOB FIVE DAYS A WEEK

                           -- ELTON JOHN, "ROCKET MAN"
 Job cpu time:       1 days  9 hours 56 minutes 21.5 seconds.
 Elapsed time:       0 days  1 hours 14 minutes  4.3 seconds.
 File lengths (MBytes):  RWF=  42172 Int=      0 D2E=      0 Chk=     32 Scr=      8
 Normal termination of Gaussian 16 at Mon Jan  3 12:32:46 2022.
 Link1:  Proceeding to internal job step number  2.
 ----------------------------------------------------------------------
 #N Geom=AllCheck Guess=TCheck SCRF=Check GenChk RMP2(FC)/Aug-CC-pVTZ F
 req
 ----------------------------------------------------------------------
 1/10=4,29=7,30=1,38=1,40=1/1,3;
 2/12=2,40=1/2;
 3/5=16,6=1,7=10,11=1,14=-4,25=1,30=1,70=2,71=2,116=1,140=1/1,2,3;
 4/5=101/1;
 5/5=2,38=6,98=1/2;
 8/6=3,8=1,10=1,19=11,30=-1/1;
 9/15=3,16=-3/6;
 11/6=1,8=1,15=11,17=12,24=-1,27=1,28=-2,29=300,32=6,42=3/1,2,10;
 10/6=2,21=1/2;
 8/6=4,8=1,10=1,19=11,30=-1/11,4;
 10/5=1,20=4/2;
 11/12=2,14=11,16=1,17=2,28=-2,42=3/2,10,12;
 6/7=2,8=2,9=2,10=2/1;
 7/8=1,10=1,12=2,25=1,44=2/1,2,3,16;
 1/10=4,30=1/3;
 99//99;
 Structure from the checkpoint file:  "/gscratch/scrubbed/gds001/Gau-7529.chk"
 ----
 bleh
 ----
 Charge =  0 Multiplicity = 1
 Redundant internal coordinates found in file.  (old form).
 N,0,-2.6529682507,0.0006770193,0.2757929936
 H,0,-1.6737291098,0.0000176937,0.5595135712
 H,0,-3.088113917,0.8108162028,0.6997667433
 H,0,-3.0885556808,-0.8104575078,0.6973969642
 N,0,0.4556309901,-0.0002305299,0.1343448538
 C,0,0.4133043105,-1.1888025599,-0.7043602461
 C,0,0.4147172827,1.1901742211,-0.7018229509
 C,0,1.661834575,-0.0018199543,0.9452440563
 H,0,-0.5082848954,1.1941124171,-1.2804148609
 H,0,1.2687833898,1.2310905194,-1.396454156
 H,0,0.4391363955,2.0803505569,-0.0736747041
 H,0,-0.509678016,-1.190391964,-1.2829941421
 H,0,0.4366227076,-2.0803449403,-0.0781083882
 H,0,1.2673484934,-1.2292740465,-1.3990438939
 H,0,1.6770725901,-0.887333267,1.5796318945
 H,0,1.6781600181,0.8823439808,1.581483939
 H,0,2.573619117,-0.0017328413,0.3264253262
 Recover connectivity data from disk.

 GradGradGradGradGradGradGradGradGradGradGradGradGradGradGradGradGradGrad
 Berny optimization.
 Initialization pass.
                           ----------------------------
                           !    Initial Parameters    !
                           ! (Angstroms and Degrees)  !
 --------------------------                            --------------------------
 ! Name  Definition              Value          Derivative Info.                !
 --------------------------------------------------------------------------------
 ! R1    R(1,2)                  1.0195         calculate D2E/DX2 analytically  !
 ! R2    R(1,3)                  1.0126         calculate D2E/DX2 analytically  !
 ! R3    R(1,4)                  1.0126         calculate D2E/DX2 analytically  !
 ! R4    R(2,5)                  2.1714         calculate D2E/DX2 analytically  !
 ! R5    R(5,6)                  1.4553         calculate D2E/DX2 analytically  !
 ! R6    R(5,7)                  1.4553         calculate D2E/DX2 analytically  !
 ! R7    R(5,8)                  1.4534         calculate D2E/DX2 analytically  !
 ! R8    R(6,12)                 1.0894         calculate D2E/DX2 analytically  !
 ! R9    R(6,13)                 1.0898         calculate D2E/DX2 analytically  !
 ! R10   R(6,14)                 1.1016         calculate D2E/DX2 analytically  !
 ! R11   R(7,9)                  1.0894         calculate D2E/DX2 analytically  !
 ! R12   R(7,10)                 1.1016         calculate D2E/DX2 analytically  !
 ! R13   R(7,11)                 1.0898         calculate D2E/DX2 analytically  !
 ! R14   R(8,15)                 1.0894         calculate D2E/DX2 analytically  !
 ! R15   R(8,16)                 1.0894         calculate D2E/DX2 analytically  !
 ! R16   R(8,17)                 1.1019         calculate D2E/DX2 analytically  !
 ! A1    A(2,1,3)              107.2621         calculate D2E/DX2 analytically  !
 ! A2    A(2,1,4)              107.2642         calculate D2E/DX2 analytically  !
 ! A3    A(3,1,4)              106.3603         calculate D2E/DX2 analytically  !
 ! A4    A(1,2,5)              152.5501         calculate D2E/DX2 analytically  !
 ! A5    A(2,5,6)               94.8424         calculate D2E/DX2 analytically  !
 ! A6    A(2,5,7)               94.8668         calculate D2E/DX2 analytically  !
 ! A7    A(2,5,8)              134.7963         calculate D2E/DX2 analytically  !
 ! A8    A(6,5,7)              109.64           calculate D2E/DX2 analytically  !
 ! A9    A(6,5,8)              110.1681         calculate D2E/DX2 analytically  !
 ! A10   A(7,5,8)              110.1687         calculate D2E/DX2 analytically  !
 ! A11   A(5,6,12)             109.3871         calculate D2E/DX2 analytically  !
 ! A12   A(5,6,13)             109.6548         calculate D2E/DX2 analytically  !
 ! A13   A(5,6,14)             111.7693         calculate D2E/DX2 analytically  !
 ! A14   A(12,6,13)            108.7948         calculate D2E/DX2 analytically  !
 ! A15   A(12,6,14)            108.7742         calculate D2E/DX2 analytically  !
 ! A16   A(13,6,14)            108.4052         calculate D2E/DX2 analytically  !
 ! A17   A(5,7,9)              109.3868         calculate D2E/DX2 analytically  !
 ! A18   A(5,7,10)             111.7694         calculate D2E/DX2 analytically  !
 ! A19   A(5,7,11)             109.6548         calculate D2E/DX2 analytically  !
 ! A20   A(9,7,10)             108.7742         calculate D2E/DX2 analytically  !
 ! A21   A(9,7,11)             108.7948         calculate D2E/DX2 analytically  !
 ! A22   A(10,7,11)            108.4054         calculate D2E/DX2 analytically  !
 ! A23   A(5,8,15)             109.7176         calculate D2E/DX2 analytically  !
 ! A24   A(5,8,16)             109.7176         calculate D2E/DX2 analytically  !
 ! A25   A(5,8,17)             111.9237         calculate D2E/DX2 analytically  !
 ! A26   A(15,8,16)            108.6266         calculate D2E/DX2 analytically  !
 ! A27   A(15,8,17)            108.3913         calculate D2E/DX2 analytically  !
 ! A28   A(16,8,17)            108.3913         calculate D2E/DX2 analytically  !
 ! D1    D(3,1,2,5)           -123.059          calculate D2E/DX2 analytically  !
 ! D2    D(4,1,2,5)            123.0216         calculate D2E/DX2 analytically  !
 ! D3    D(2,1,3,4)           -114.5264         calculate D2E/DX2 analytically  !
 ! D4    D(1,2,5,6)            -55.1157         calculate D2E/DX2 analytically  !
 ! D5    D(1,2,5,7)             55.1118         calculate D2E/DX2 analytically  !
 ! D6    D(1,2,5,8)           -179.986          calculate D2E/DX2 analytically  !
 ! D7    D(2,5,6,12)            36.5703         calculate D2E/DX2 analytically  !
 ! D8    D(2,5,6,13)           -82.6628         calculate D2E/DX2 analytically  !
 ! D9    D(2,5,6,14)           157.0956         calculate D2E/DX2 analytically  !
 ! D10   D(7,5,6,12)           -60.3585         calculate D2E/DX2 analytically  !
 ! D11   D(7,5,6,13)          -179.5916         calculate D2E/DX2 analytically  !
 ! D12   D(7,5,6,14)            60.1667         calculate D2E/DX2 analytically  !
 ! D13   D(8,5,6,12)           178.2372         calculate D2E/DX2 analytically  !
 ! D14   D(8,5,6,13)            59.0041         calculate D2E/DX2 analytically  !
 ! D15   D(8,5,6,14)           -61.2376         calculate D2E/DX2 analytically  !
 ! D16   D(2,5,7,9)            -36.5507         calculate D2E/DX2 analytically  !
 ! D17   D(2,5,7,10)          -157.0758         calculate D2E/DX2 analytically  !
 ! D18   D(2,5,7,11)            82.6822         calculate D2E/DX2 analytically  !
 ! D19   D(6,5,7,9)             60.3611         calculate D2E/DX2 analytically  !
 ! D20   D(6,5,7,10)           -60.164          calculate D2E/DX2 analytically  !
 ! D21   D(6,5,7,11)           179.594          calculate D2E/DX2 analytically  !
 ! D22   D(8,5,7,9)           -178.235          calculate D2E/DX2 analytically  !
 ! D23   D(8,5,7,10)            61.2399         calculate D2E/DX2 analytically  !
 ! D24   D(8,5,7,11)           -59.0021         calculate D2E/DX2 analytically  !
 ! D25   D(2,5,8,15)            59.6105         calculate D2E/DX2 analytically  !
 ! D26   D(2,5,8,16)           -59.6562         calculate D2E/DX2 analytically  !
 ! D27   D(2,5,8,17)           179.9771         calculate D2E/DX2 analytically  !
 ! D28   D(6,5,8,15)           -59.8238         calculate D2E/DX2 analytically  !
 ! D29   D(6,5,8,16)          -179.0905         calculate D2E/DX2 analytically  !
 ! D30   D(6,5,8,17)            60.5428         calculate D2E/DX2 analytically  !
 ! D31   D(7,5,8,15)           179.0875         calculate D2E/DX2 analytically  !
 ! D32   D(7,5,8,16)            59.8207         calculate D2E/DX2 analytically  !
 ! D33   D(7,5,8,17)           -60.5459         calculate D2E/DX2 analytically  !
 --------------------------------------------------------------------------------
 Trust Radius=3.00D-01 FncErr=1.00D-07 GrdErr=1.00D-07 EigMax=2.50D+02 EigMin=1.00D-04
 Number of steps in this run=      2 maximum allowed number of steps=      2.
 GradGradGradGradGradGradGradGradGradGradGradGradGradGradGradGradGradGrad

                          Input orientation:                          
 ---------------------------------------------------------------------
 Center     Atomic      Atomic             Coordinates (Angstroms)
 Number     Number       Type             X           Y           Z
 ---------------------------------------------------------------------
      1          7           0       -2.652968    0.000677    0.275793
      2          1           0       -1.673729    0.000018    0.559514
      3          1           0       -3.088114    0.810816    0.699767
      4          1           0       -3.088556   -0.810458    0.697397
      5          7           0        0.455631   -0.000231    0.134345
      6          6           0        0.413304   -1.188803   -0.704360
      7          6           0        0.414717    1.190174   -0.701823
      8          6           0        1.661835   -0.001820    0.945244
      9          1           0       -0.508285    1.194112   -1.280415
     10          1           0        1.268783    1.231091   -1.396454
     11          1           0        0.439136    2.080351   -0.073675
     12          1           0       -0.509678   -1.190392   -1.282994
     13          1           0        0.436623   -2.080345   -0.078108
     14          1           0        1.267348   -1.229274   -1.399044
     15          1           0        1.677073   -0.887333    1.579632
     16          1           0        1.678160    0.882344    1.581484
     17          1           0        2.573619   -0.001733    0.326425
 ---------------------------------------------------------------------
                    Distance matrix (angstroms):
                    1          2          3          4          5
     1  N    0.000000
     2  H    1.019513   0.000000
     3  H    1.012636   1.636322   0.000000
     4  H    1.012633   1.636342   1.621276   0.000000
     5  N    3.111816   2.171392   3.679080   3.678961   0.000000
     6  C    3.431849   2.714107   4.269658   3.790922   1.455308
     7  C    3.432394   2.714600   3.791859   4.270043   1.455305
     8  C    4.366428   3.357793   4.825210   4.825094   1.453440
     9  H    2.906155   2.483840   3.274684   3.819403   2.087375
    10  H    4.437394   3.741621   4.853177   5.247717   2.126197
    11  H    3.742764   3.031982   3.827718   4.625574   2.091019
    12  H    2.905539   2.483329   3.818967   3.273669   2.087380
    13  H    3.741854   3.031181   4.624681   3.826344   2.091022
    14  H    4.436974   3.741262   5.247573   4.852254   2.126197
    15  H    4.608450   3.613296   5.134674   4.847212   2.089910
    16  H    4.608778   3.613597   4.847670   5.135053   2.089911
    17  H    5.226833   4.253740   5.731914   5.731656   2.126681
                    6          7          8          9         10
     6  C    0.000000
     7  C    2.378979   0.000000
     8  C    2.385152   2.385159   0.000000
     9  H    2.619055   1.089365   3.330650   0.000000
    10  H    2.658330   1.101642   2.675464   1.781237   0.000000
    11  H    3.329534   1.089762   2.620805   1.771792   1.777443
    12  H    1.089365   2.619038   3.330648   2.384506   3.006555
    13  H    1.089763   3.329534   2.620813   3.613926   3.660073
    14  H    1.101642   2.658350   2.675434   3.006617   2.460366
    15  H    2.627663   3.333859   1.089410   4.157893   3.675800
    16  H    3.333855   2.627649   1.089410   3.614997   3.026108
    17  H    2.671818   2.671852   1.101947   3.675611   2.488124
                   11         12         13         14         15
    11  H    0.000000
    12  H    3.613926   0.000000
    13  H    4.160699   1.771793   0.000000
    14  H    3.660076   1.781236   1.777441   0.000000
    15  H    3.615668   3.615017   2.389581   3.026104   0.000000
    16  H    2.389550   4.157897   3.615686   3.675764   1.769679
    17  H    3.008516   3.675577   3.008493   2.488060   1.777248
                   16         17
    16  H    0.000000
    17  H    1.777248   0.000000
 Stoichiometry    C3H12N2
 Framework group  C1[X(C3H12N2)]
 Deg. of freedom    45
 Full point group                 C1      NOp   1
 Largest Abelian subgroup         C1      NOp   1
 Largest concise Abelian subgroup C1      NOp   1
                         Standard orientation:                         
 ---------------------------------------------------------------------
 Center     Atomic      Atomic             Coordinates (Angstroms)
 Number     Number       Type             X           Y           Z
 ---------------------------------------------------------------------
      1          7           0       -2.654237    0.000105    0.269217
      2          1           0       -1.675609   -0.000053    0.555038
      3          1           0       -3.090530    0.810431    0.691652
      4          1           0       -3.090489   -0.810844    0.690491
      5          7           0        0.454658    0.000012    0.134437
      6          6           0        0.414481   -1.189197   -0.703470
      7          6           0        0.415188    1.189781   -0.702704
      8          6           0        1.659120   -0.000616    0.947923
      9          1           0       -0.506572    1.193015   -1.283277
     10          1           0        1.270730    1.230433   -1.395532
     11          1           0        0.437997    2.080432   -0.075169
     12          1           0       -0.507258   -1.191491   -1.284081
     13          1           0        0.436718   -2.080266   -0.076505
     14          1           0        1.270025   -1.229933   -1.396290
     15          1           0        1.673258   -0.885652    1.583002
     16          1           0        1.673821    0.884026    1.583536
     17          1           0        2.572230   -0.000720    0.331061
 ---------------------------------------------------------------------
 Rotational constants (GHZ):           5.6722087           2.3520398           2.2091252
 Standard basis: Aug-CC-pVTZ (5D, 7F)
 There are   575 symmetry adapted cartesian basis functions of A   symmetry.
 There are   506 symmetry adapted basis functions of A   symmetry.
   506 basis functions,   684 primitive gaussians,   575 cartesian basis functions
    22 alpha electrons       22 beta electrons
       nuclear repulsion energy       201.0031788000 Hartrees.
 NAtoms=   17 NActive=   17 NUniq=   17 SFac= 1.00D+00 NAtFMM=   60 NAOKFM=F Big=F
 Integral buffers will be    131072 words long.
 Raffenetti 1 integral format.
 Two-electron integral symmetry is turned on.
 One-electron integrals computed using PRISM.
 NBasis=   506 RedAO= T EigKep=  6.57D-06  NBF=   506
 NBsUse=   506 1.00D-06 EigRej= -1.00D+00 NBFU=   506
 Initial guess from the checkpoint file:  "/gscratch/scrubbed/gds001/Gau-7529.chk"
 B after Tr=    -0.000000   -0.000000   -0.000000
         Rot=    1.000000   -0.000000    0.000000    0.000000 Ang=   0.00 deg.
 Requested convergence on RMS density matrix=1.00D-08 within 128 cycles.
 Requested convergence on MAX density matrix=1.00D-06.
 Requested convergence on             energy=1.00D-06.
 No special actions if energy rises.
 SCF Done:  E(RHF) =  -229.556314954     A.U. after    1 cycles
            NFock=  1  Conv=0.19D-08     -V/T= 2.0012
 ExpMin= 2.53D-02 ExpMax= 1.14D+04 ExpMxC= 3.89D+02 IAcc=3 IRadAn=         5 AccDes= 0.00D+00
 HarFok:  IExCor=  205 AccDes= 0.00D+00 IRadAn=         5 IDoV=-2 UseB2=F ITyADJ=14
 ICtDFT= 12500011 ScaDFX=  1.000000  1.000000  1.000000  1.000000
 Range of M.O.s used for correlation:     6   506
 NBasis=   506 NAE=    22 NBE=    22 NFC=     5 NFV=     0
 NROrb=    501 NOA=    17 NOB=    17 NVA=   484 NVB=   484

 **** Warning!!: The largest alpha MO coefficient is  0.95836802D+02

 Disk-based method using ON**2 memory for 17 occupieds at a time.
 Permanent disk used for amplitudes=   140380570 words.
 Estimated scratch disk usage=  5682261956 words.
 Actual    scratch disk usage=  5549617092 words.
 JobTyp=1 Pass  1:  I=   6 to  22 NPSUse= 28 ParTrn=T ParDer=T DoDerP=T.
 Spin components of T(2) and E(2):
     alpha-alpha T2 =       0.3563889827D-01 E2=     -0.1127481843D+00
     alpha-beta  T2 =       0.2263136885D+00 E2=     -0.7875556479D+00
     beta-beta   T2 =       0.3563889827D-01 E2=     -0.1127481843D+00
 ANorm=    0.1139118732D+01
 E2 =    -0.1013052017D+01 EUMP2 =    -0.23056936697092D+03
 G2DrvN: will do    18 centers at a time, making    1 passes.
 Calling FoFCou, ICntrl=  3107 FMM=F I1Cent=   0 AccDes= 0.00D+00.
 End of G2Drv F.D. properties file   721 does not exist.
 End of G2Drv F.D. properties file   722 does not exist.
 End of G2Drv F.D. properties file   788 does not exist.
          IDoAtm=11111111111111111
          Differentiating once with respect to electric field.
                with respect to dipole field.
          Differentiating once with respect to nuclear coordinates.
          There are    54 degrees of freedom in the 1st order CPHF.  IDoFFX=6 NUNeed=    54.
     51 vectors produced by pass  0 Test12= 1.97D-14 1.85D-09 XBig12= 1.52D+01 6.73D-01.
 AX will form    51 AO Fock derivatives at one time.
     51 vectors produced by pass  1 Test12= 1.97D-14 1.85D-09 XBig12= 5.10D-01 9.93D-02.
     51 vectors produced by pass  2 Test12= 1.97D-14 1.85D-09 XBig12= 9.52D-03 1.75D-02.
     51 vectors produced by pass  3 Test12= 1.97D-14 1.85D-09 XBig12= 1.18D-04 1.35D-03.
     51 vectors produced by pass  4 Test12= 1.97D-14 1.85D-09 XBig12= 9.16D-07 1.23D-04.
     51 vectors produced by pass  5 Test12= 1.97D-14 1.85D-09 XBig12= 6.88D-09 9.52D-06.
     49 vectors produced by pass  6 Test12= 1.97D-14 1.85D-09 XBig12= 4.41D-11 6.52D-07.
      6 vectors produced by pass  7 Test12= 1.97D-14 1.85D-09 XBig12= 2.77D-13 5.66D-08.
      3 vectors produced by pass  8 Test12= 1.97D-14 1.85D-09 XBig12= 1.51D-15 3.94D-09.
 InvSVY:  IOpt=1 It=  1 EMax= 2.22D-15
 Solved reduced A of dimension   364 with    54 vectors.
 End of Minotr F.D. properties file   721 does not exist.
 End of Minotr F.D. properties file   722 does not exist.
 End of Minotr F.D. properties file   788 does not exist.
 MDV=  5502926848.
 Form MO integral derivatives with frozen-active canonical formalism.
 Discarding MO integrals.
 Reordered first order wavefunction length =    226759808
 In DefCFB: NBatch=  1 ICI= 22 ICA=484 LFMax= 61
            Large arrays: LIAPS= 12392142400 LIARS=  2357201000 words.
