 Entering Gaussian System, Link 0=g16
 Input=nh3_nh3_mp2_avdz_opt_anharm.gjf
 Output=nh3_nh3_mp2_avdz_opt_anharm.log
 Initial command:
 /sw/contrib/gaussian/g16/A03/g16/l1.exe "/gscratch/scrubbed/gds001/Gau-16231.inp" -scrdir="/gscratch/scrubbed/gds001/"
 Entering Link 1 = /sw/contrib/gaussian/g16/A03/g16/l1.exe PID=     16232.
  
 Copyright (c) 1988,1990,1992,1993,1995,1998,2003,2009,2016,
            Gaussian, Inc.  All Rights Reserved.
  
 This is part of the Gaussian(R) 16 program.  It is based on
 the Gaussian(R) 09 system (copyright 2009, Gaussian, Inc.),
 the Gaussian(R) 03 system (copyright 2003, Gaussian, Inc.),
 the Gaussian(R) 98 system (copyright 1998, Gaussian, Inc.),
 the Gaussian(R) 94 system (copyright 1995, Gaussian, Inc.),
 the Gaussian 92(TM) system (copyright 1992, Gaussian, Inc.),
 the Gaussian 90(TM) system (copyright 1990, Gaussian, Inc.),
 the Gaussian 88(TM) system (copyright 1988, Gaussian, Inc.),
 the Gaussian 86(TM) system (copyright 1986, Carnegie Mellon
 University), and the Gaussian 82(TM) system (copyright 1983,
 Carnegie Mellon University). Gaussian is a federally registered
 trademark of Gaussian, Inc.
  
 This software contains proprietary and confidential information,
 including trade secrets, belonging to Gaussian, Inc.
  
 This software is provided under written license and may be
 used, copied, transmitted, or stored only in accord with that
 written license.
  
 The following legend is applicable only to US Government
 contracts under FAR:
  
                    RESTRICTED RIGHTS LEGEND
  
 Use, reproduction and disclosure by the US Government is
 subject to restrictions as set forth in subparagraphs (a)
 and (c) of the Commercial Computer Software - Restricted
 Rights clause in FAR 52.227-19.
  
 Gaussian, Inc.
 340 Quinnipiac St., Bldg. 40, Wallingford CT 06492
  
  
 ---------------------------------------------------------------
 Warning -- This program may not be used in any manner that
 competes with the business of Gaussian, Inc. or will provide
 assistance to any competitor of Gaussian, Inc.  The licensee
 of this program is prohibited from giving any competitor of
 Gaussian, Inc. access to this program.  By using this program,
 the user acknowledges that Gaussian, Inc. is engaged in the
 business of creating and licensing software in the field of
 computational chemistry and represents and warrants to the
 licensee that it is not a competitor of Gaussian, Inc. and that
 it will not use this program in any manner prohibited above.
 ---------------------------------------------------------------
  

 Cite this work as:
 Gaussian 16, Revision A.03,
 M. J. Frisch, G. W. Trucks, H. B. Schlegel, G. E. Scuseria, 
 M. A. Robb, J. R. Cheeseman, G. Scalmani, V. Barone, 
 G. A. Petersson, H. Nakatsuji, X. Li, M. Caricato, A. V. Marenich, 
 J. Bloino, B. G. Janesko, R. Gomperts, B. Mennucci, H. P. Hratchian, 
 J. V. Ortiz, A. F. Izmaylov, J. L. Sonnenberg, D. Williams-Young, 
 F. Ding, F. Lipparini, F. Egidi, J. Goings, B. Peng, A. Petrone, 
 T. Henderson, D. Ranasinghe, V. G. Zakrzewski, J. Gao, N. Rega, 
 G. Zheng, W. Liang, M. Hada, M. Ehara, K. Toyota, R. Fukuda, 
 J. Hasegawa, M. Ishida, T. Nakajima, Y. Honda, O. Kitao, H. Nakai, 
 T. Vreven, K. Throssell, J. A. Montgomery, Jr., J. E. Peralta, 
 F. Ogliaro, M. J. Bearpark, J. J. Heyd, E. N. Brothers, K. N. Kudin, 
 V. N. Staroverov, T. A. Keith, R. Kobayashi, J. Normand, 
 K. Raghavachari, A. P. Rendell, J. C. Burant, S. S. Iyengar, 
 J. Tomasi, M. Cossi, J. M. Millam, M. Klene, C. Adamo, R. Cammi, 
 J. W. Ochterski, R. L. Martin, K. Morokuma, O. Farkas, 
 J. B. Foresman, and D. J. Fox, Gaussian, Inc., Wallingford CT, 2016.
 
 ******************************************
 Gaussian 16:  ES64L-G16RevA.03 25-Dec-2016
                26-Nov-2021 
 ******************************************
 %nprocshared=28
 Will use up to   28 processors via shared memory.
 %mem=41GB
 ----------------------------------------------
 # mp2/aug-cc-pVDZ opt freq=(vibrot,anharmonic)
 ----------------------------------------------
 1/18=20,19=15,38=1,80=1/1,3;
 2/9=110,12=2,17=6,18=5,40=1/2;
 3/5=16,7=10,11=9,25=1,30=1,71=1/1,2,3;
 4//1;
 5/5=2,38=5/2;
 8/6=4,10=1/1;
 9/15=2,16=-3/6;
 10/5=1/2;
 6/7=2,8=2,9=2,10=2/1;
 7/12=2/1,2,3,16;
 1/18=20,19=15,80=1/3(2);
 2/9=110/2;
 99//99;
 2/9=110/2;
 3/5=16,7=10,11=9,25=1,30=1,71=1/1,2,3;
 4/5=5,16=3,69=1/1;
 5/5=2,38=5/2;
 8/6=4,10=1/1;
 9/15=2,16=-3/6;
 10/5=1/2;
 7/12=2/1,2,3,16;
 1/18=20,19=15,80=1/3(-8);
 2/9=110/2;
 6/7=2,8=2,9=2,10=2/1;
 99//99;
 ----
 bleh
 ----
 Symbolic Z-matrix:
 Charge =  0 Multiplicity = 1
 N                    -0.02323   1.66788   0. 
 N                    -0.02323  -1.56628   0. 
 H                     0.27507   0.69627   0. 
 H                    -1.00762  -1.32667   0. 
 H                     0.39248   2.10867   0.81084 
 H                     0.39248   2.10867  -0.81084 
 H                     0.13641  -2.14909   0.81234 
 H                     0.13641  -2.14909  -0.81234 
 
 Add virtual bond connecting atoms H3         and N2         Dist= 4.31D+00.
 Add virtual bond connecting atoms H3         and H4         Dist= 4.53D+00.

 GradGradGradGradGradGradGradGradGradGradGradGradGradGradGradGradGradGrad
 Berny optimization.
 Initialization pass.
                           ----------------------------
                           !    Initial Parameters    !
                           ! (Angstroms and Degrees)  !
 --------------------------                            --------------------------
 ! Name  Definition              Value          Derivative Info.                !
 --------------------------------------------------------------------------------
 ! R1    R(1,3)                  1.0164         estimate D2E/DX2                !
 ! R2    R(1,5)                  1.0122         estimate D2E/DX2                !
 ! R3    R(1,6)                  1.0122         estimate D2E/DX2                !
 ! R4    R(2,3)                  2.2821         estimate D2E/DX2                !
 ! R5    R(2,4)                  1.0131         estimate D2E/DX2                !
 ! R6    R(2,7)                  1.0125         estimate D2E/DX2                !
 ! R7    R(2,8)                  1.0125         estimate D2E/DX2                !
 ! R8    R(3,4)                  2.3953         estimate D2E/DX2                !
 ! A1    A(3,1,5)              107.2028         estimate D2E/DX2                !
 ! A2    A(3,1,6)              107.2028         estimate D2E/DX2                !
 ! A3    A(5,1,6)              106.4626         estimate D2E/DX2                !
 ! A4    A(3,2,7)              123.3737         estimate D2E/DX2                !
 ! A5    A(3,2,8)              123.3737         estimate D2E/DX2                !
 ! A6    A(4,2,7)              106.8187         estimate D2E/DX2                !
 ! A7    A(4,2,8)              106.8187         estimate D2E/DX2                !
 ! A8    A(7,2,8)              106.7106         estimate D2E/DX2                !
 ! A9    A(1,3,2)              155.4221         estimate D2E/DX2                !
 ! A10   A(1,3,4)              130.5553         estimate D2E/DX2                !
 ! D1    D(5,1,3,2)            123.0103         estimate D2E/DX2                !
 ! D2    D(5,1,3,4)            123.0103         estimate D2E/DX2                !
 ! D3    D(6,1,3,2)           -123.0103         estimate D2E/DX2                !
 ! D4    D(6,1,3,4)           -123.0103         estimate D2E/DX2                !
 ! D5    D(7,2,3,1)           -106.0988         estimate D2E/DX2                !
 ! D6    D(8,2,3,1)            106.0988         estimate D2E/DX2                !
 --------------------------------------------------------------------------------
 Trust Radius=3.00D-01 FncErr=1.00D-07 GrdErr=1.00D-07 EigMax=2.50D+02 EigMin=1.00D-04
 Number of steps in this run=     34 maximum allowed number of steps=    100.
 GradGradGradGradGradGradGradGradGradGradGradGradGradGradGradGradGradGrad

                          Input orientation:                          
 ---------------------------------------------------------------------
 Center     Atomic      Atomic             Coordinates (Angstroms)
 Number     Number       Type             X           Y           Z
 ---------------------------------------------------------------------
      1          7           0       -0.023231    1.667884    0.000000
      2          7           0       -0.023231   -1.566277    0.000000
      3          1           0        0.275068    0.696268    0.000000
      4          1           0       -1.007619   -1.326674    0.000000
      5          1           0        0.392481    2.108669    0.810839
      6          1           0        0.392481    2.108669   -0.810839
      7          1           0        0.136411   -2.149091    0.812343
      8          1           0        0.136411   -2.149091   -0.812343
 ---------------------------------------------------------------------
                    Distance matrix (angstroms):
                    1          2          3          4          5
     1  N    0.000000
     2  N    3.234161   0.000000
     3  H    1.016376   2.282124   0.000000
     4  H    3.152205   1.013128   2.395325   0.000000
     5  H    1.012209   3.786226   1.632826   3.797278   0.000000
     6  H    1.012209   3.786226   1.632826   3.797278   1.621678
     7  H    3.905725   1.012452   2.962296   1.626369   4.265454
     8  H    3.905725   1.012452   2.962296   1.626369   4.563859
                    6          7          8
     6  H    0.000000
     7  H    4.563859   0.000000
     8  H    4.265454   1.624686   0.000000
 Stoichiometry    H6N2
 Framework group  CS[SG(H2N2),X(H4)]
 Deg. of freedom    11
 Full point group                 CS      NOp   2
 Largest Abelian subgroup         CS      NOp   2
 Largest concise Abelian subgroup CS      NOp   2
                         Standard orientation:                         
 ---------------------------------------------------------------------
 Center     Atomic      Atomic             Coordinates (Angstroms)
 Number     Number       Type             X           Y           Z
 ---------------------------------------------------------------------
      1          7           0       -0.023231    1.667884   -0.000000
      2          7           0       -0.023231   -1.566277    0.000000
      3          1           0        0.275068    0.696268    0.000000
      4          1           0       -1.007619   -1.326674   -0.000000
      5          1           0        0.392481    2.108669    0.810839
      6          1           0        0.392481    2.108669   -0.810839
      7          1           0        0.136411   -2.149091    0.812343
      8          1           0        0.136411   -2.149091   -0.812343
 ---------------------------------------------------------------------
 Rotational constants (GHZ):         125.0240113           5.3037952           5.2341202
 Standard basis: Aug-CC-pVDZ (5D, 7F)
 There are    68 symmetry adapted cartesian basis functions of A'  symmetry.
 There are    36 symmetry adapted cartesian basis functions of A"  symmetry.
 There are    64 symmetry adapted basis functions of A'  symmetry.
 There are    36 symmetry adapted basis functions of A"  symmetry.
   100 basis functions,   152 primitive gaussians,   104 cartesian basis functions
    10 alpha electrons       10 beta electrons
       nuclear repulsion energy        39.8943963843 Hartrees.
 NAtoms=    8 NActive=    8 NUniq=    6 SFac= 1.78D+00 NAtFMM=   60 NAOKFM=F Big=F
 Integral buffers will be    131072 words long.
 Raffenetti 1 integral format.
 Two-electron integral symmetry is turned on.
 One-electron integrals computed using PRISM.
 NBasis=   100 RedAO= T EigKep=  1.15D-03  NBF=    64    36
 NBsUse=   100 1.00D-06 EigRej= -1.00D+00 NBFU=    64    36
 ExpMin= 2.97D-02 ExpMax= 9.05D+03 ExpMxC= 3.09D+02 IAcc=3 IRadAn=         5 AccDes= 0.00D+00
 Harris functional with IExCor=  205 and IRadAn=       5 diagonalized for initial guess.
 HarFok:  IExCor=  205 AccDes= 0.00D+00 IRadAn=         5 IDoV= 1 UseB2=F ITyADJ=14
 ICtDFT=  3500011 ScaDFX=  1.000000  1.000000  1.000000  1.000000
 FoFCou: FMM=F IPFlag=           0 FMFlag=      100000 FMFlg1=           0
         NFxFlg=           0 DoJE=T BraDBF=F KetDBF=T FulRan=T
         wScrn=  0.000000 ICntrl=       500 IOpCl=  0 I1Cent=   200000004 NGrid=           0
         NMat0=    1 NMatS0=      1 NMatT0=    0 NMatD0=    1 NMtDS0=    0 NMtDT0=    0
 Petite list used in FoFCou.
 Initial guess orbital symmetries:
       Occupied  (A') (A') (A') (A') (A') (A") (A") (A') (A') (A')
       Virtual   (A') (A') (A") (A') (A") (A') (A") (A') (A') (A')
                 (A') (A') (A") (A") (A') (A') (A') (A") (A') (A")
                 (A') (A") (A') (A') (A') (A") (A') (A') (A") (A")
                 (A') (A") (A') (A') (A") (A') (A") (A") (A') (A')
                 (A") (A') (A') (A") (A') (A') (A") (A') (A') (A")
                 (A') (A') (A') (A") (A') (A') (A") (A') (A') (A")
                 (A") (A") (A') (A") (A') (A') (A") (A') (A") (A')
                 (A") (A') (A") (A') (A') (A') (A") (A') (A') (A')
                 (A") (A") (A') (A') (A') (A') (A") (A') (A") (A')
 The electronic state of the initial guess is 1-A'.
 Keep R1 ints in memory in symmetry-blocked form, NReq=19192989.
 Requested convergence on RMS density matrix=1.00D-08 within 128 cycles.
 Requested convergence on MAX density matrix=1.00D-06.
 Requested convergence on             energy=1.00D-06.
 No special actions if energy rises.
 SCF Done:  E(RHF) =  -112.413683117     A.U. after   11 cycles
            NFock= 11  Conv=0.35D-08     -V/T= 2.0021
 ExpMin= 2.97D-02 ExpMax= 9.05D+03 ExpMxC= 3.09D+02 IAcc=3 IRadAn=         5 AccDes= 0.00D+00
 HarFok:  IExCor=  205 AccDes= 0.00D+00 IRadAn=         5 IDoV=-2 UseB2=F ITyADJ=14
 ICtDFT= 12500011 ScaDFX=  1.000000  1.000000  1.000000  1.000000
 Range of M.O.s used for correlation:     3   100
 NBasis=   100 NAE=    10 NBE=    10 NFC=     2 NFV=     0
 NROrb=     98 NOA=     8 NOB=     8 NVA=    90 NVB=    90
 Fully direct method using O(ONN) memory.
 JobTyp=1 Pass  1:  I=   3 to  10 NPSUse= 28 ParTrn=T ParDer=T DoDerP=T.
 Spin components of T(2) and E(2):
     alpha-alpha T2 =       0.1517204784D-01 E2=     -0.4679660011D-01
     alpha-beta  T2 =       0.9476801440D-01 E2=     -0.3079763361D+00
     beta-beta   T2 =       0.1517204784D-01 E2=     -0.4679660011D-01
 ANorm=    0.1060713020D+01
 E2 =    -0.4015695363D+00 EUMP2 =    -0.11281525265312D+03
          IDoAtm=11111111
          Differentiating once with respect to electric field.
                with respect to dipole field.
          Differentiating once with respect to nuclear coordinates.
 Keep R1 ints in memory in symmetry-blocked form, NReq=19194107.
          There are     1 degrees of freedom in the 1st order CPHF.  IDoFFX=0 NUNeed=     1.
 LinEq1:  Iter=  0 NonCon=     1 RMS=4.15D-03 Max=3.82D-02 NDo=     1
 AX will form     1 AO Fock derivatives at one time.
 LinEq1:  Iter=  1 NonCon=     1 RMS=5.22D-04 Max=4.17D-03 NDo=     1
 LinEq1:  Iter=  2 NonCon=     1 RMS=5.62D-05 Max=3.41D-04 NDo=     1
 LinEq1:  Iter=  3 NonCon=     1 RMS=1.49D-05 Max=8.72D-05 NDo=     1
 LinEq1:  Iter=  4 NonCon=     1 RMS=4.60D-06 Max=3.73D-05 NDo=     1
 LinEq1:  Iter=  5 NonCon=     1 RMS=1.11D-06 Max=6.82D-06 NDo=     1
 LinEq1:  Iter=  6 NonCon=     1 RMS=1.94D-07 Max=1.35D-06 NDo=     1
 LinEq1:  Iter=  7 NonCon=     1 RMS=2.77D-08 Max=1.91D-07 NDo=     1
 LinEq1:  Iter=  8 NonCon=     1 RMS=7.08D-09 Max=4.49D-08 NDo=     1
 LinEq1:  Iter=  9 NonCon=     1 RMS=2.27D-09 Max=1.32D-08 NDo=     1
 LinEq1:  Iter= 10 NonCon=     1 RMS=4.97D-10 Max=3.37D-09 NDo=     1
 LinEq1:  Iter= 11 NonCon=     0 RMS=7.38D-11 Max=5.73D-10 NDo=     1
 Linear equations converged to 1.000D-10 1.000D-09 after    11 iterations.
 End of Minotr F.D. properties file   721 does not exist.
 End of Minotr F.D. properties file   722 does not exist.
 End of Minotr F.D. properties file   788 does not exist.

 **********************************************************************

            Population analysis using the SCF density.

 **********************************************************************

 Orbital symmetries:
       Occupied  (A') (A') (A') (A') (A') (A") (A") (A') (A') (A')
       Virtual   (A') (A') (A") (A') (A") (A') (A') (A') (A") (A')
                 (A') (A') (A") (A') (A") (A') (A") (A') (A") (A')
                 (A') (A") (A') (A') (A') (A") (A') (A") (A') (A")
                 (A") (A') (A') (A") (A') (A") (A') (A') (A") (A')
                 (A") (A') (A') (A") (A') (A") (A') (A') (A') (A')
                 (A') (A") (A') (A") (A') (A') (A') (A") (A') (A")
                 (A") (A") (A") (A') (A') (A') (A") (A') (A") (A')
                 (A') (A") (A') (A') (A") (A') (A") (A') (A') (A')
                 (A") (A') (A") (A') (A') (A') (A') (A") (A") (A')
 The electronic state is 1-A'.
 Alpha  occ. eigenvalues --  -15.55897 -15.52800  -1.15305  -1.12103  -0.63973
 Alpha  occ. eigenvalues --   -0.63699  -0.60755  -0.60587  -0.43886  -0.40684
 Alpha virt. eigenvalues --    0.03275   0.05245   0.05434   0.06551   0.07427
 Alpha virt. eigenvalues --    0.09045   0.16762   0.18178   0.18967   0.19651
 Alpha virt. eigenvalues --    0.20280   0.22664   0.23206   0.25019   0.28798
 Alpha virt. eigenvalues --    0.29125   0.32713   0.33262   0.33301   0.34331
 Alpha virt. eigenvalues --    0.40304   0.40527   0.44424   0.47257   0.51118
 Alpha virt. eigenvalues --    0.52227   0.53208   0.53527   0.55849   0.56108
 Alpha virt. eigenvalues --    0.58090   0.58243   0.62602   0.65322   0.65837
 Alpha virt. eigenvalues --    0.67408   0.69220   0.71558   0.73906   0.74737
 Alpha virt. eigenvalues --    0.78611   0.82734   0.91150   0.91699   0.95679
 Alpha virt. eigenvalues --    0.98563   0.99232   0.99532   1.18211   1.21807
 Alpha virt. eigenvalues --    1.24070   1.25183   1.28633   1.35405   1.47954
 Alpha virt. eigenvalues --    1.68125   1.81754   1.82998   1.83378   1.88191
 Alpha virt. eigenvalues --    1.94194   1.99592   2.05138   2.05653   2.09553
 Alpha virt. eigenvalues --    2.11656   2.18025   2.21414   2.32736   2.36078
 Alpha virt. eigenvalues --    2.38591   2.39661   2.40119   2.41603   2.41959
 Alpha virt. eigenvalues --    2.43679   2.44478   2.58801   2.67586   2.82279
 Alpha virt. eigenvalues --    2.89939   2.93313   2.94489   2.98410   3.12684
 Alpha virt. eigenvalues --    3.18569   3.54435   3.55726   3.57315   3.60973
          Condensed to atoms (all electrons):
               1          2          3          4          5          6
     1  N    5.971241  -0.006277   0.362946  -0.005101   0.379730   0.379730
     2  N   -0.006277   6.040002  -0.029922   0.407844   0.003379   0.003379
     3  H    0.362946  -0.029922   0.777690   0.002717  -0.100230  -0.100230
     4  H   -0.005101   0.407844   0.002717   0.726958  -0.000167  -0.000167
     5  H    0.379730   0.003379  -0.100230  -0.000167   0.773024  -0.075479
     6  H    0.379730   0.003379  -0.100230  -0.000167  -0.075479   0.773024
     7  H    0.001192   0.385747  -0.002084  -0.073395   0.000471  -0.000338
     8  H    0.001192   0.385747  -0.002084  -0.073395  -0.000338   0.000471
               7          8
     1  N    0.001192   0.001192
     2  N    0.385747   0.385747
     3  H   -0.002084  -0.002084
     4  H   -0.073395  -0.073395
     5  H    0.000471  -0.000338
     6  H   -0.000338   0.000471
     7  H    0.706939  -0.083246
     8  H   -0.083246   0.706939
 Mulliken charges:
               1
     1  N   -0.084655
     2  N   -0.189900
     3  H    0.091198
     4  H    0.014708
     5  H    0.019610
     6  H    0.019610
     7  H    0.064714
     8  H    0.064714
 Sum of Mulliken charges =  -0.00000
 Mulliken charges with hydrogens summed into heavy atoms:
               1
     1  N    0.045763
     2  N   -0.045763
 Electronic spatial extent (au):  <R**2>=            247.7572
 Charge=             -0.0000 electrons
 Dipole moment (field-independent basis, Debye):
    X=              0.6612    Y=             -1.8487    Z=             -0.0000  Tot=              1.9634
 Quadrupole moment (field-independent basis, Debye-Ang):
   XX=            -16.1142   YY=            -11.1328   ZZ=            -12.5240
   XY=              3.3404   XZ=             -0.0000   YZ=              0.0000
 Traceless Quadrupole moment (field-independent basis, Debye-Ang):
   XX=             -2.8572   YY=              2.1242   ZZ=              0.7330
   XY=              3.3404   XZ=             -0.0000   YZ=              0.0000
 Octapole moment (field-independent basis, Debye-Ang**2):
  XXX=             -0.9245  YYY=             -7.4098  ZZZ=             -0.0000  XYY=              7.6677
  XXY=             -3.3061  XXZ=             -0.0000  XZZ=              1.2149  YZZ=             -0.8475
  YYZ=             -0.0000  XYZ=              0.0000
 Hexadecapole moment (field-independent basis, Debye-Ang**3):
 XXXX=            -22.8424 YYYY=           -242.3543 ZZZZ=            -20.0974 XXXY=             -2.0621
 XXXZ=             -0.0000 YYYX=              1.8624 YYYZ=              0.0000 ZZZX=             -0.0000
 ZZZY=              0.0000 XXYY=            -53.0465 XXZZ=             -7.7198 YYZZ=            -34.3924
 XXYZ=              0.0000 YYXZ=             -0.0000 ZZXY=             -0.3951
 N-N= 3.989439638435D+01 E-N=-3.434053709658D+02  KE= 1.121829986497D+02
 Symmetry A'   KE= 1.070160575662D+02
 Symmetry A"   KE= 5.166941083436D+00
 Calling FoFJK, ICntrl=  10002127 FMM=F ISym2X=1 I1Cent= 0 IOpClX= 0 NMat=1 NMatS=1 NMatT=0.
 ***** Axes restored to original set *****
 -------------------------------------------------------------------
 Center     Atomic                   Forces (Hartrees/Bohr)
 Number     Number              X              Y              Z
 -------------------------------------------------------------------
      1        7          -0.007074172    0.000070780   -0.000000000
      2        7           0.004192002    0.005841517   -0.000000000
      3        1           0.001750004   -0.005652500   -0.000000000
      4        1          -0.006019166    0.001169467   -0.000000000
      5        1           0.002692614    0.002860281    0.005158347
      6        1           0.002692614    0.002860281   -0.005158347
      7        1           0.000883052   -0.003574913    0.004932183
      8        1           0.000883052   -0.003574913   -0.004932183
 -------------------------------------------------------------------
 Cartesian Forces:  Max     0.007074172 RMS     0.003731670

 GradGradGradGradGradGradGradGradGradGradGradGradGradGradGradGradGradGrad
 Berny optimization.
 FormGI is forming the generalized inverse of G from B-inverse, IUseBI=4.
 Internal  Forces:  Max     0.006483550 RMS     0.003108458
 Search for a local minimum.
 Step number   1 out of a maximum of   34
 All quantities printed in internal units (Hartrees-Bohrs-Radians)
 Mixed Optimization -- RFO/linear search
 Second derivative matrix not updated -- first step.
 ITU=  0
     Eigenvalues ---    0.00307   0.00812   0.01697   0.02646   0.06281
     Eigenvalues ---    0.08897   0.13541   0.16000   0.16000   0.16000
     Eigenvalues ---    0.16000   0.20481   0.44510   0.44921   0.45564
     Eigenvalues ---    0.45564   0.45605   0.45605
 RFO step:  Lambda=-5.14505199D-04 EMin= 3.06794310D-03
 Linear search not attempted -- first point.
 Iteration  1 RMS(Cart)=  0.00834237 RMS(Int)=  0.00000547
 Iteration  2 RMS(Cart)=  0.00000355 RMS(Int)=  0.00000350
 Iteration  3 RMS(Cart)=  0.00000000 RMS(Int)=  0.00000350
 ClnCor:  largest displacement from symmetrization is 6.31D-13 for atom     6.
 Variable       Old X    -DE/DX   Delta X   Delta X   Delta X     New X
                                 (Linear)    (Quad)   (Total)
    R1        1.92067   0.00603   0.00000   0.01341   0.01341   1.93408
    R2        1.91280   0.00648   0.00000   0.01420   0.01420   1.92700
    R3        1.91280   0.00648   0.00000   0.01420   0.01420   1.92700
    R4        4.31259  -0.00020   0.00000  -0.00043  -0.00043   4.31216
    R5        1.91454   0.00586   0.00000   0.01325   0.01325   1.92779
    R6        1.91326   0.00615   0.00000   0.01349   0.01349   1.92675
    R7        1.91326   0.00615   0.00000   0.01349   0.01349   1.92675
    R8        4.52651   0.00044   0.00000   0.01154   0.01154   4.53805
    A1        1.87104   0.00003   0.00000   0.00006   0.00006   1.87111
    A2        1.87104   0.00003   0.00000   0.00006   0.00006   1.87111
    A3        1.85812  -0.00006   0.00000  -0.00064  -0.00064   1.85748
    A4        2.15328   0.00011   0.00000  -0.00012  -0.00011   2.15316
    A5        2.15328   0.00011   0.00000  -0.00012  -0.00011   2.15316
    A6        1.86434   0.00016   0.00000  -0.00129  -0.00129   1.86305
    A7        1.86434   0.00016   0.00000  -0.00129  -0.00129   1.86305
    A8        1.86245   0.00000   0.00000  -0.00073  -0.00073   1.86172
    A9        2.71263   0.00075   0.00000   0.00125   0.00125   2.71388
   A10        2.27862  -0.00059   0.00000  -0.00099  -0.00098   2.27764
    D1        2.14693   0.00002   0.00000   0.00034   0.00034   2.14727
    D2        2.14693   0.00002   0.00000   0.00034   0.00034   2.14727
    D3       -2.14693  -0.00002   0.00000  -0.00034  -0.00034  -2.14727
    D4       -2.14693  -0.00002   0.00000  -0.00034  -0.00034  -2.14727
    D5       -1.85177   0.00025   0.00000  -0.00121  -0.00120  -1.85298
    D6        1.85177  -0.00025   0.00000   0.00121   0.00120   1.85298
         Item               Value     Threshold  Converged?
 Maximum Force            0.006484     0.000450     NO 
 RMS     Force            0.003108     0.000300     NO 
 Maximum Displacement     0.014986     0.001800     NO 
 RMS     Displacement     0.008343     0.001200     NO 
 Predicted change in Energy=-2.575864D-04
 GradGradGradGradGradGradGradGradGradGradGradGradGradGradGradGradGradGrad

                          Input orientation:                          
 ---------------------------------------------------------------------
 Center     Atomic      Atomic             Coordinates (Angstroms)
 Number     Number       Type             X           Y           Z
 ---------------------------------------------------------------------
      1          7           0       -0.024571    1.672864    0.000000
      2          7           0       -0.023194   -1.568228   -0.000000
      3          1           0        0.274736    0.694134    0.000000
      4          1           0       -1.015437   -1.331287   -0.000000
      5          1           0        0.394950    2.116599    0.816663
      6          1           0        0.394950    2.116599   -0.816663
      7          1           0        0.138668   -2.155162    0.817848
      8          1           0        0.138668   -2.155162   -0.817848
 ---------------------------------------------------------------------
                    Distance matrix (angstroms):
                    1          2          3          4          5
     1  N    0.000000
     2  N    3.241092   0.000000
     3  H    1.023473   2.281895   0.000000
     4  H    3.163343   1.020142   2.401432   0.000000
     5  H    1.019724   3.797333   1.644627   3.813666   0.000000
     6  H    1.019724   3.797333   1.644627   3.813666   1.633325
     7  H    3.917819   1.019592   2.967470   1.636950   4.279442
     8  H    3.917819   1.019592   2.967470   1.636950   4.580966
                    6          7          8
     6  H    0.000000
     7  H    4.580966   0.000000
     8  H    4.279442   1.635697   0.000000
 Stoichiometry    H6N2
 Framework group  CS[SG(H2N2),X(H4)]
 Deg. of freedom    11
 Full point group                 CS      NOp   2
 Largest Abelian subgroup         CS      NOp   2
 Largest concise Abelian subgroup CS      NOp   2
                         Standard orientation:                         
 ---------------------------------------------------------------------
 Center     Atomic      Atomic             Coordinates (Angstroms)
 Number     Number       Type             X           Y           Z
 ---------------------------------------------------------------------
      1          7           0       -0.023470    1.671965    0.000000
      2          7           0       -0.023470   -1.569127   -0.000000
      3          1           0        0.275422    0.693108    0.000000
      4          1           0       -1.015613   -1.331764   -0.000000
      5          1           0        0.396240    2.115522    0.816663
      6          1           0        0.396240    2.115522   -0.816663
      7          1           0        0.138143   -2.156130    0.817848
      8          1           0        0.138143   -2.156130   -0.817848
 ---------------------------------------------------------------------
 Rotational constants (GHZ):         123.2041413           5.2778743           5.2080862
 Standard basis: Aug-CC-pVDZ (5D, 7F)
 There are    68 symmetry adapted cartesian basis functions of A'  symmetry.
 There are    36 symmetry adapted cartesian basis functions of A"  symmetry.
 There are    64 symmetry adapted basis functions of A'  symmetry.
 There are    36 symmetry adapted basis functions of A"  symmetry.
   100 basis functions,   152 primitive gaussians,   104 cartesian basis functions
    10 alpha electrons       10 beta electrons
       nuclear repulsion energy        39.6886744181 Hartrees.
 NAtoms=    8 NActive=    8 NUniq=    6 SFac= 1.78D+00 NAtFMM=   60 NAOKFM=F Big=F
 Integral buffers will be    131072 words long.
 Raffenetti 1 integral format.
 Two-electron integral symmetry is turned on.
 One-electron integrals computed using PRISM.
 NBasis=   100 RedAO= T EigKep=  1.18D-03  NBF=    64    36
 NBsUse=   100 1.00D-06 EigRej= -1.00D+00 NBFU=    64    36
 Initial guess from the checkpoint file:  "/gscratch/scrubbed/gds001/Gau-16232.chk"
 B after Tr=     0.000000   -0.000000   -0.000000
         Rot=    1.000000   -0.000000   -0.000000    0.000099 Ang=   0.01 deg.
 Initial guess orbital symmetries:
       Occupied  (A') (A') (A') (A') (A') (A") (A") (A') (A') (A')
       Virtual   (A') (A') (A") (A') (A") (A') (A') (A') (A") (A')
                 (A') (A') (A") (A') (A") (A') (A") (A') (A") (A')
                 (A') (A") (A') (A') (A') (A") (A') (A") (A') (A")
                 (A") (A') (A') (A") (A') (A") (A') (A') (A") (A')
                 (A") (A') (A') (A") (A') (A") (A') (A') (A') (A')
                 (A') (A") (A') (A") (A') (A') (A') (A") (A') (A")
                 (A") (A") (A") (A') (A') (A') (A") (A') (A") (A')
                 (A') (A") (A') (A') (A") (A') (A") (A') (A') (A')
                 (A") (A') (A") (A') (A') (A') (A') (A") (A") (A')
 Keep R1 ints in memory in symmetry-blocked form, NReq=19192989.
 Requested convergence on RMS density matrix=1.00D-08 within 128 cycles.
 Requested convergence on MAX density matrix=1.00D-06.
 Requested convergence on             energy=1.00D-06.
 No special actions if energy rises.
 SCF Done:  E(RHF) =  -112.412811684     A.U. after    9 cycles
            NFock=  9  Conv=0.43D-08     -V/T= 2.0027
 ExpMin= 2.97D-02 ExpMax= 9.05D+03 ExpMxC= 3.09D+02 IAcc=3 IRadAn=         5 AccDes= 0.00D+00
 HarFok:  IExCor=  205 AccDes= 0.00D+00 IRadAn=         5 IDoV=-2 UseB2=F ITyADJ=14
 ICtDFT= 12500011 ScaDFX=  1.000000  1.000000  1.000000  1.000000
 Range of M.O.s used for correlation:     3   100
 NBasis=   100 NAE=    10 NBE=    10 NFC=     2 NFV=     0
 NROrb=     98 NOA=     8 NOB=     8 NVA=    90 NVB=    90
 Fully direct method using O(ONN) memory.
 JobTyp=1 Pass  1:  I=   3 to  10 NPSUse= 28 ParTrn=T ParDer=T DoDerP=T.
 Spin components of T(2) and E(2):
     alpha-alpha T2 =       0.1529159694D-01 E2=     -0.4689277352D-01
     alpha-beta  T2 =       0.9567054106D-01 E2=     -0.3089126865D+00
     beta-beta   T2 =       0.1529159694D-01 E2=     -0.4689277352D-01
 ANorm=    0.1061251024D+01
 E2 =    -0.4026982336D+00 EUMP2 =    -0.11281550991793D+03
          IDoAtm=11111111
          Differentiating once with respect to electric field.
                with respect to dipole field.
          Differentiating once with respect to nuclear coordinates.
 Keep R1 ints in memory in symmetry-blocked form, NReq=19194107.
          There are     1 degrees of freedom in the 1st order CPHF.  IDoFFX=0 NUNeed=     1.
 LinEq1:  Iter=  0 NonCon=     1 RMS=4.19D-03 Max=3.82D-02 NDo=     1
 AX will form     1 AO Fock derivatives at one time.
 LinEq1:  Iter=  1 NonCon=     1 RMS=5.29D-04 Max=4.20D-03 NDo=     1
 LinEq1:  Iter=  2 NonCon=     1 RMS=5.44D-05 Max=3.06D-04 NDo=     1
 LinEq1:  Iter=  3 NonCon=     1 RMS=9.62D-06 Max=5.34D-05 NDo=     1
 LinEq1:  Iter=  4 NonCon=     1 RMS=3.38D-06 Max=2.32D-05 NDo=     1
 LinEq1:  Iter=  5 NonCon=     1 RMS=1.07D-06 Max=6.02D-06 NDo=     1
 LinEq1:  Iter=  6 NonCon=     1 RMS=2.01D-07 Max=1.39D-06 NDo=     1
 LinEq1:  Iter=  7 NonCon=     1 RMS=2.80D-08 Max=2.07D-07 NDo=     1
 LinEq1:  Iter=  8 NonCon=     1 RMS=5.41D-09 Max=3.47D-08 NDo=     1
 LinEq1:  Iter=  9 NonCon=     1 RMS=1.17D-09 Max=7.31D-09 NDo=     1
 LinEq1:  Iter= 10 NonCon=     1 RMS=4.49D-10 Max=2.96D-09 NDo=     1
 LinEq1:  Iter= 11 NonCon=     0 RMS=7.90D-11 Max=6.27D-10 NDo=     1
 Linear equations converged to 1.000D-10 1.000D-09 after    11 iterations.
 End of Minotr F.D. properties file   721 does not exist.
 End of Minotr F.D. properties file   722 does not exist.
 End of Minotr F.D. properties file   788 does not exist.
 Calling FoFJK, ICntrl=  10002127 FMM=F ISym2X=1 I1Cent= 0 IOpClX= 0 NMat=1 NMatS=1 NMatT=0.
 ***** Axes restored to original set *****
 -------------------------------------------------------------------
 Center     Atomic                   Forces (Hartrees/Bohr)
 Number     Number              X              Y              Z
 -------------------------------------------------------------------
      1        7          -0.001181015    0.000128991   -0.000000000
      2        7           0.000829859    0.001112934    0.000000000
      3        1           0.000436433    0.000147914    0.000000000
      4        1          -0.000257057   -0.000591027   -0.000000000
      5        1           0.000402923   -0.000118591   -0.000223446
      6        1           0.000402923   -0.000118591    0.000223446
      7        1          -0.000317033   -0.000280815   -0.000152364
      8        1          -0.000317033   -0.000280815    0.000152364
 -------------------------------------------------------------------
 Cartesian Forces:  Max     0.001181015 RMS     0.000448345

 GradGradGradGradGradGradGradGradGradGradGradGradGradGradGradGradGradGrad
 Berny optimization.
 Using GEDIIS/GDIIS optimizer.
 FormGI is forming the generalized inverse of G from B-inverse, IUseBI=4.
 Internal  Forces:  Max     0.000489185 RMS     0.000291451
 Search for a local minimum.
 Step number   2 out of a maximum of   34
 All quantities printed in internal units (Hartrees-Bohrs-Radians)
 Mixed Optimization -- En-DIIS/RFO-DIIS
 Update second derivatives using D2CorX and points    1    2
 DE= -2.57D-04 DEPred=-2.58D-04 R= 9.99D-01
 TightC=F SS=  1.41D+00  RLast= 3.56D-02 DXNew= 5.0454D-01 1.0676D-01
 Trust test= 9.99D-01 RLast= 3.56D-02 DXMaxT set to 3.00D-01
 ITU=  1  0
 Use linear search instead of GDIIS.
     Eigenvalues ---    0.00307   0.00812   0.01682   0.02649   0.06245
     Eigenvalues ---    0.08766   0.13525   0.15918   0.16000   0.16000
     Eigenvalues ---    0.16003   0.20483   0.44585   0.44972   0.45562
     Eigenvalues ---    0.45564   0.45605   0.46818
 RFO step:  Lambda=-2.58138072D-05 EMin= 3.07319705D-03
 Quartic linear search produced a step of  0.00823.
 Iteration  1 RMS(Cart)=  0.00477865 RMS(Int)=  0.00003298
 Iteration  2 RMS(Cart)=  0.00002512 RMS(Int)=  0.00001302
 Iteration  3 RMS(Cart)=  0.00000000 RMS(Int)=  0.00001302
 ClnCor:  largest displacement from symmetrization is 1.52D-12 for atom     6.
 Variable       Old X    -DE/DX   Delta X   Delta X   Delta X     New X
                                 (Linear)    (Quad)   (Total)
    R1        1.93408   0.00001   0.00011   0.00058   0.00069   1.93477
    R2        1.92700  -0.00006   0.00012   0.00045   0.00057   1.92757
    R3        1.92700  -0.00006   0.00012   0.00045   0.00057   1.92757
    R4        4.31216  -0.00034  -0.00000  -0.00641  -0.00641   4.30575
    R5        1.92779  -0.00001   0.00011   0.00070   0.00081   1.92860
    R6        1.92675  -0.00001   0.00011   0.00054   0.00065   1.92740
    R7        1.92675  -0.00001   0.00011   0.00054   0.00065   1.92740
    R8        4.53805   0.00042   0.00009   0.01528   0.01537   4.55341
    A1        1.87111  -0.00049   0.00000  -0.00474  -0.00475   1.86635
    A2        1.87111  -0.00049   0.00000  -0.00474  -0.00475   1.86635
    A3        1.85748  -0.00015  -0.00001  -0.00498  -0.00501   1.85247
    A4        2.15316   0.00033  -0.00000   0.00116   0.00115   2.15431
    A5        2.15316   0.00033  -0.00000   0.00116   0.00115   2.15431
    A6        1.86305  -0.00041  -0.00001  -0.00454  -0.00457   1.85848
    A7        1.86305  -0.00041  -0.00001  -0.00454  -0.00457   1.85848
    A8        1.86172  -0.00044  -0.00001  -0.00372  -0.00373   1.85799
    A9        2.71388   0.00004   0.00001  -0.00005  -0.00005   2.71383
   A10        2.27764   0.00007  -0.00001   0.00080   0.00080   2.27844
    D1        2.14727   0.00032   0.00000   0.00512   0.00511   2.15238
    D2        2.14727   0.00032   0.00000   0.00512   0.00511   2.15238
    D3       -2.14727  -0.00032  -0.00000  -0.00512  -0.00511  -2.15238
    D4       -2.14727  -0.00032  -0.00000  -0.00512  -0.00511  -2.15238
    D5       -1.85298   0.00019  -0.00001  -0.00215  -0.00217  -1.85515
    D6        1.85298  -0.00019   0.00001   0.00215   0.00217   1.85515
         Item               Value     Threshold  Converged?
 Maximum Force            0.000489     0.000450     NO 
 RMS     Force            0.000291     0.000300     YES
 Maximum Displacement     0.014816     0.001800     NO 
 RMS     Displacement     0.004782     0.001200     NO 
 Predicted change in Energy=-1.283988D-05
 GradGradGradGradGradGradGradGradGradGradGradGradGradGradGradGradGradGrad

                          Input orientation:                          
 ---------------------------------------------------------------------
 Center     Atomic      Atomic             Coordinates (Angstroms)
 Number     Number       Type             X           Y           Z
 ---------------------------------------------------------------------
      1          7           0       -0.027329    1.673828    0.000000
      2          7           0       -0.023689   -1.564234   -0.000000
      3          1           0        0.272636    0.694920    0.000000
      4          1           0       -1.019126   -1.339127   -0.000000
      5          1           0        0.398155    2.114947    0.815370
      6          1           0        0.398155    2.114947   -0.815370
      7          1           0        0.139985   -2.152462    0.816987
      8          1           0        0.139985   -2.152462   -0.816987
 ---------------------------------------------------------------------
                    Distance matrix (angstroms):
                    1          2          3          4          5
     1  N    0.000000
     2  N    3.238064   0.000000
     3  H    1.023836   2.278505   0.000000
     4  H    3.171996   1.020572   2.409563   0.000000
     5  H    1.020025   3.791986   1.642273   3.821537   0.000000
     6  H    1.020025   3.791986   1.642273   3.821537   1.630739
     7  H    3.916115   1.019936   2.965240   1.634785   4.275212
     8  H    3.916115   1.019936   2.965240   1.634785   4.576246
                    6          7          8
     6  H    0.000000
     7  H    4.576246   0.000000
     8  H    4.275212   1.633975   0.000000
 Stoichiometry    H6N2
 Framework group  CS[SG(H2N2),X(H4)]
 Deg. of freedom    11
 Full point group                 CS      NOp   2
 Largest Abelian subgroup         CS      NOp   2
 Largest concise Abelian subgroup CS      NOp   2
                         Standard orientation:                         
 ---------------------------------------------------------------------
 Center     Atomic      Atomic             Coordinates (Angstroms)
 Number     Number       Type             X           Y           Z
 ---------------------------------------------------------------------
      1          7           0       -0.024083    1.671460   -0.000000
      2          7           0       -0.024083   -1.566604    0.000000
      3          1           0        0.274782    0.692215   -0.000000
      4          1           0       -1.019266   -1.340378    0.000000
      5          1           0        0.401896    2.112101    0.815370
      6          1           0        0.401896    2.112101   -0.815370
      7          1           0        0.138930   -2.155016    0.816987
      8          1           0        0.138930   -2.155016   -0.816987
 ---------------------------------------------------------------------
 Rotational constants (GHZ):         122.9524692           5.2853028           5.2165349
 Standard basis: Aug-CC-pVDZ (5D, 7F)
 There are    68 symmetry adapted cartesian basis functions of A'  symmetry.
 There are    36 symmetry adapted cartesian basis functions of A"  symmetry.
 There are    64 symmetry adapted basis functions of A'  symmetry.
 There are    36 symmetry adapted basis functions of A"  symmetry.
   100 basis functions,   152 primitive gaussians,   104 cartesian basis functions
    10 alpha electrons       10 beta electrons
       nuclear repulsion energy        39.6936084329 Hartrees.
 NAtoms=    8 NActive=    8 NUniq=    6 SFac= 1.78D+00 NAtFMM=   60 NAOKFM=F Big=F
 Integral buffers will be    131072 words long.
 Raffenetti 1 integral format.
 Two-electron integral symmetry is turned on.
 One-electron integrals computed using PRISM.
 NBasis=   100 RedAO= T EigKep=  1.18D-03  NBF=    64    36
 NBsUse=   100 1.00D-06 EigRej= -1.00D+00 NBFU=    64    36
 Initial guess from the checkpoint file:  "/gscratch/scrubbed/gds001/Gau-16232.chk"
 B after Tr=    -0.000000    0.000000   -0.000000
         Rot=    1.000000    0.000000    0.000000    0.000160 Ang=   0.02 deg.
 Initial guess orbital symmetries:
       Occupied  (A') (A') (A') (A') (A') (A") (A") (A') (A') (A')
       Virtual   (A') (A') (A") (A') (A") (A') (A') (A') (A") (A')
                 (A') (A') (A") (A') (A") (A') (A") (A") (A') (A')
                 (A') (A") (A') (A') (A') (A") (A') (A") (A') (A")
                 (A") (A') (A') (A") (A') (A") (A') (A') (A") (A')
                 (A") (A') (A') (A") (A') (A") (A') (A') (A') (A')
                 (A') (A") (A') (A") (A') (A') (A') (A") (A') (A")
                 (A") (A") (A") (A') (A') (A') (A") (A') (A") (A')
                 (A') (A") (A') (A') (A") (A') (A") (A') (A') (A')
                 (A") (A') (A") (A') (A') (A') (A') (A") (A") (A')
 Keep R1 ints in memory in symmetry-blocked form, NReq=19192989.
 Requested convergence on RMS density matrix=1.00D-08 within 128 cycles.
 Requested convergence on MAX density matrix=1.00D-06.
 Requested convergence on             energy=1.00D-06.
 No special actions if energy rises.
 SCF Done:  E(RHF) =  -112.412737396     A.U. after    8 cycles
            NFock=  8  Conv=0.48D-08     -V/T= 2.0027
 ExpMin= 2.97D-02 ExpMax= 9.05D+03 ExpMxC= 3.09D+02 IAcc=3 IRadAn=         5 AccDes= 0.00D+00
 HarFok:  IExCor=  205 AccDes= 0.00D+00 IRadAn=         5 IDoV=-2 UseB2=F ITyADJ=14
 ICtDFT= 12500011 ScaDFX=  1.000000  1.000000  1.000000  1.000000
 Range of M.O.s used for correlation:     3   100
 NBasis=   100 NAE=    10 NBE=    10 NFC=     2 NFV=     0
 NROrb=     98 NOA=     8 NOB=     8 NVA=    90 NVB=    90
 Fully direct method using O(ONN) memory.
 JobTyp=1 Pass  1:  I=   3 to  10 NPSUse= 28 ParTrn=T ParDer=T DoDerP=T.
 Spin components of T(2) and E(2):
     alpha-alpha T2 =       0.1529980608D-01 E2=     -0.4690200631D-01
     alpha-beta  T2 =       0.9572859589D-01 E2=     -0.3089869808D+00
     beta-beta   T2 =       0.1529980608D-01 E2=     -0.4690200631D-01
 ANorm=    0.1061286110D+01
 E2 =    -0.4027909934D+00 EUMP2 =    -0.11281552838919D+03
          IDoAtm=11111111
          Differentiating once with respect to electric field.
                with respect to dipole field.
          Differentiating once with respect to nuclear coordinates.
 Keep R1 ints in memory in symmetry-blocked form, NReq=19194107.
          There are     1 degrees of freedom in the 1st order CPHF.  IDoFFX=0 NUNeed=     1.
 LinEq1:  Iter=  0 NonCon=     1 RMS=4.19D-03 Max=3.82D-02 NDo=     1
 AX will form     1 AO Fock derivatives at one time.
 LinEq1:  Iter=  1 NonCon=     1 RMS=5.29D-04 Max=4.22D-03 NDo=     1
 LinEq1:  Iter=  2 NonCon=     1 RMS=5.43D-05 Max=3.05D-04 NDo=     1
 LinEq1:  Iter=  3 NonCon=     1 RMS=9.20D-06 Max=5.40D-05 NDo=     1
 LinEq1:  Iter=  4 NonCon=     1 RMS=3.05D-06 Max=2.13D-05 NDo=     1
 LinEq1:  Iter=  5 NonCon=     1 RMS=1.02D-06 Max=5.57D-06 NDo=     1
 LinEq1:  Iter=  6 NonCon=     1 RMS=2.01D-07 Max=1.38D-06 NDo=     1
 LinEq1:  Iter=  7 NonCon=     1 RMS=2.80D-08 Max=2.08D-07 NDo=     1
 LinEq1:  Iter=  8 NonCon=     1 RMS=5.51D-09 Max=3.47D-08 NDo=     1
 LinEq1:  Iter=  9 NonCon=     1 RMS=1.32D-09 Max=8.38D-09 NDo=     1
 LinEq1:  Iter= 10 NonCon=     1 RMS=4.76D-10 Max=3.26D-09 NDo=     1
 LinEq1:  Iter= 11 NonCon=     0 RMS=7.93D-11 Max=6.24D-10 NDo=     1
 Linear equations converged to 1.000D-10 1.000D-09 after    11 iterations.
 End of Minotr F.D. properties file   721 does not exist.
 End of Minotr F.D. properties file   722 does not exist.
 End of Minotr F.D. properties file   788 does not exist.
 Calling FoFJK, ICntrl=  10002127 FMM=F ISym2X=1 I1Cent= 0 IOpClX= 0 NMat=1 NMatS=1 NMatT=0.
 ***** Axes restored to original set *****
 -------------------------------------------------------------------
 Center     Atomic                   Forces (Hartrees/Bohr)
 Number     Number              X              Y              Z
 -------------------------------------------------------------------
      1        7          -0.000368621    0.000075838   -0.000000000
      2        7           0.000260348    0.000465930    0.000000000
      3        1           0.000089646    0.000092409    0.000000000
      4        1          -0.000051571   -0.000303979   -0.000000000
      5        1           0.000152188   -0.000040176   -0.000082140
      6        1           0.000152188   -0.000040176    0.000082140
      7        1          -0.000117089   -0.000124923   -0.000134438
      8        1          -0.000117089   -0.000124923    0.000134438
 -------------------------------------------------------------------
 Cartesian Forces:  Max     0.000465930 RMS     0.000170290

 GradGradGradGradGradGradGradGradGradGradGradGradGradGradGradGradGradGrad
 Berny optimization.
 Using GEDIIS/GDIIS optimizer.
 FormGI is forming the generalized inverse of G from B-inverse, IUseBI=4.
 Internal  Forces:  Max     0.000244091 RMS     0.000127275
 Search for a local minimum.
 Step number   3 out of a maximum of   34
 All quantities printed in internal units (Hartrees-Bohrs-Radians)
 Mixed Optimization -- En-DIIS/RFO-DIIS
 Swapping is turned off.
 Update second derivatives using D2CorX and points    1    2    3
 DE= -1.85D-05 DEPred=-1.28D-05 R= 1.44D+00
 TightC=F SS=  1.41D+00  RLast= 2.29D-02 DXNew= 5.0454D-01 6.8607D-02
 Trust test= 1.44D+00 RLast= 2.29D-02 DXMaxT set to 3.00D-01
 ITU=  1  1  0
     Eigenvalues ---    0.00307   0.00812   0.01323   0.02641   0.05207
     Eigenvalues ---    0.08240   0.13519   0.14858   0.16000   0.16000
     Eigenvalues ---    0.16052   0.20544   0.44610   0.44983   0.45564
     Eigenvalues ---    0.45605   0.45629   0.47487
 En-DIIS/RFO-DIIS/Sim-DIIS IScMMF=       -3 using points:     3    2
 RFO step:  Lambda=-9.32632007D-06.
 DidBck=F Rises=F RFO-DIIS coefs:    1.90529   -0.90529
 Iteration  1 RMS(Cart)=  0.00450134 RMS(Int)=  0.00003311
 Iteration  2 RMS(Cart)=  0.00002129 RMS(Int)=  0.00002065
 Iteration  3 RMS(Cart)=  0.00000000 RMS(Int)=  0.00002065
 ClnCor:  largest displacement from symmetrization is 3.35D-13 for atom     6.
 Variable       Old X    -DE/DX   Delta X   Delta X   Delta X     New X
                                 (Linear)    (Quad)   (Total)
    R1        1.93477   0.00001   0.00062  -0.00002   0.00060   1.93537
    R2        1.92757  -0.00002   0.00051  -0.00002   0.00050   1.92806
    R3        1.92757  -0.00002   0.00051  -0.00002   0.00050   1.92806
    R4        4.30575  -0.00012  -0.00580   0.00203  -0.00375   4.30200
    R5        1.92860  -0.00007   0.00074  -0.00033   0.00042   1.92902
    R6        1.92740  -0.00005   0.00059  -0.00025   0.00034   1.92774
    R7        1.92740  -0.00005   0.00059  -0.00025   0.00034   1.92774
    R8        4.55341   0.00022   0.01391   0.00323   0.01712   4.57053
    A1        1.86635  -0.00018  -0.00430   0.00105  -0.00327   1.86308
    A2        1.86635  -0.00018  -0.00430   0.00105  -0.00327   1.86308
    A3        1.85247  -0.00006  -0.00454   0.00104  -0.00355   1.84892
    A4        2.15431   0.00016   0.00104  -0.00032   0.00071   2.15502
    A5        2.15431   0.00016   0.00104  -0.00032   0.00071   2.15502
    A6        1.85848  -0.00016  -0.00414   0.00082  -0.00336   1.85512
    A7        1.85848  -0.00016  -0.00414   0.00082  -0.00336   1.85512
    A8        1.85799  -0.00024  -0.00338  -0.00060  -0.00399   1.85400
    A9        2.71383   0.00008  -0.00004   0.00046   0.00039   2.71422
   A10        2.27844   0.00011   0.00073   0.00083   0.00158   2.28002
    D1        2.15238   0.00012   0.00462  -0.00108   0.00352   2.15591
    D2        2.15238   0.00012   0.00462  -0.00108   0.00352   2.15591
    D3       -2.15238  -0.00012  -0.00462   0.00108  -0.00352  -2.15591
    D4       -2.15238  -0.00012  -0.00462   0.00108  -0.00352  -2.15591
    D5       -1.85515   0.00005  -0.00197  -0.00150  -0.00349  -1.85864
    D6        1.85515  -0.00005   0.00197   0.00150   0.00349   1.85864
         Item               Value     Threshold  Converged?
 Maximum Force            0.000244     0.000450     YES
 RMS     Force            0.000127     0.000300     YES
 Maximum Displacement     0.015641     0.001800     NO 
 RMS     Displacement     0.004503     0.001200     NO 
 Predicted change in Energy=-4.666550D-06
 GradGradGradGradGradGradGradGradGradGradGradGradGradGradGradGradGradGrad

                          Input orientation:                          
 ---------------------------------------------------------------------
 Center     Atomic      Atomic             Coordinates (Angstroms)
 Number     Number       Type             X           Y           Z
 ---------------------------------------------------------------------
      1          7           0       -0.028946    1.675287    0.000000
      2          7           0       -0.024931   -1.561230   -0.000000
      3          1           0        0.270852    0.695993    0.000000
      4          1           0       -1.023079   -1.347404   -0.000000
      5          1           0        0.400956    2.114351    0.814490
      6          1           0        0.400956    2.114351   -0.814490
      7          1           0        0.141482   -2.150495    0.815911
      8          1           0        0.141482   -2.150495   -0.815911
 ---------------------------------------------------------------------
                    Distance matrix (angstroms):
                    1          2          3          4          5
     1  N    0.000000
     2  N    3.236519   0.000000
     3  H    1.024155   2.276520   0.000000
     4  H    3.181974   1.020794   2.418621   0.000000
     5  H    1.020288   3.788755   1.640750   3.830798   0.000000
     6  H    1.020288   3.788755   1.640750   3.830798   1.628981
     7  H    3.915528   1.020116   2.963940   1.633054   4.272732
     8  H    3.915528   1.020116   2.963940   1.633054   4.573231
                    6          7          8
     6  H    0.000000
     7  H    4.573231   0.000000
     8  H    4.272732   1.631821   0.000000
 Stoichiometry    H6N2
 Framework group  CS[SG(H2N2),X(H4)]
 Deg. of freedom    11
 Full point group                 CS      NOp   2
 Largest Abelian subgroup         CS      NOp   2
 Largest concise Abelian subgroup CS      NOp   2
                         Standard orientation:                         
 ---------------------------------------------------------------------
 Center     Atomic      Atomic             Coordinates (Angstroms)
 Number     Number       Type             X           Y           Z
 ---------------------------------------------------------------------
      1          7           0       -0.024648    1.671584   -0.000000
      2          7           0       -0.024648   -1.564935    0.000000
      3          1           0        0.273935    0.691919   -0.000000
      4          1           0       -1.022529   -1.349872    0.000000
      5          1           0        0.405798    2.110114    0.814490
      6          1           0        0.405798    2.110114   -0.814490
      7          1           0        0.141035   -2.154406    0.815911
      8          1           0        0.141035   -2.154406   -0.815911
 ---------------------------------------------------------------------
 Rotational constants (GHZ):         122.7479165           5.2880904           5.2203132
 Standard basis: Aug-CC-pVDZ (5D, 7F)
 There are    68 symmetry adapted cartesian basis functions of A'  symmetry.
 There are    36 symmetry adapted cartesian basis functions of A"  symmetry.
 There are    64 symmetry adapted basis functions of A'  symmetry.
 There are    36 symmetry adapted basis functions of A"  symmetry.
   100 basis functions,   152 primitive gaussians,   104 cartesian basis functions
    10 alpha electrons       10 beta electrons
       nuclear repulsion energy        39.6930922082 Hartrees.
 NAtoms=    8 NActive=    8 NUniq=    6 SFac= 1.78D+00 NAtFMM=   60 NAOKFM=F Big=F
 Integral buffers will be    131072 words long.
 Raffenetti 1 integral format.
 Two-electron integral symmetry is turned on.
 One-electron integrals computed using PRISM.
 NBasis=   100 RedAO= T EigKep=  1.17D-03  NBF=    64    36
 NBsUse=   100 1.00D-06 EigRej= -1.00D+00 NBFU=    64    36
 Initial guess from the checkpoint file:  "/gscratch/scrubbed/gds001/Gau-16232.chk"
 B after Tr=    -0.000000   -0.000000   -0.000000
         Rot=    1.000000    0.000000    0.000000    0.000025 Ang=   0.00 deg.
 Initial guess orbital symmetries:
       Occupied  (A') (A') (A') (A') (A') (A") (A") (A') (A') (A')
       Virtual   (A') (A') (A") (A') (A") (A') (A') (A') (A") (A')
                 (A') (A') (A") (A') (A") (A') (A") (A") (A') (A')
                 (A') (A") (A') (A') (A') (A") (A') (A") (A') (A")
                 (A") (A') (A') (A") (A') (A") (A') (A') (A") (A')
                 (A") (A') (A') (A") (A') (A") (A') (A') (A') (A')
                 (A') (A") (A') (A") (A') (A') (A') (A") (A') (A")
                 (A") (A") (A") (A') (A') (A') (A") (A') (A") (A')
                 (A') (A") (A') (A') (A") (A') (A") (A') (A') (A')
                 (A") (A') (A") (A') (A') (A') (A') (A") (A") (A')
 Keep R1 ints in memory in symmetry-blocked form, NReq=19192989.
 Requested convergence on RMS density matrix=1.00D-08 within 128 cycles.
 Requested convergence on MAX density matrix=1.00D-06.
 Requested convergence on             energy=1.00D-06.
 No special actions if energy rises.
 SCF Done:  E(RHF) =  -112.412676803     A.U. after    8 cycles
            NFock=  8  Conv=0.46D-08     -V/T= 2.0027
 ExpMin= 2.97D-02 ExpMax= 9.05D+03 ExpMxC= 3.09D+02 IAcc=3 IRadAn=         5 AccDes= 0.00D+00
 HarFok:  IExCor=  205 AccDes= 0.00D+00 IRadAn=         5 IDoV=-2 UseB2=F ITyADJ=14
 ICtDFT= 12500011 ScaDFX=  1.000000  1.000000  1.000000  1.000000
 Range of M.O.s used for correlation:     3   100
 NBasis=   100 NAE=    10 NBE=    10 NFC=     2 NFV=     0
 NROrb=     98 NOA=     8 NOB=     8 NVA=    90 NVB=    90
 Fully direct method using O(ONN) memory.
 JobTyp=1 Pass  1:  I=   3 to  10 NPSUse= 28 ParTrn=T ParDer=T DoDerP=T.
 Spin components of T(2) and E(2):
     alpha-alpha T2 =       0.1530559833D-01 E2=     -0.4690828437D-01
     alpha-beta  T2 =       0.9577020088D-01 E2=     -0.3090399410D+00
     beta-beta   T2 =       0.1530559833D-01 E2=     -0.4690828437D-01
 ANorm=    0.1061311169D+01
 E2 =    -0.4028565098D+00 EUMP2 =    -0.11281553331295D+03
          IDoAtm=11111111
          Differentiating once with respect to electric field.
                with respect to dipole field.
          Differentiating once with respect to nuclear coordinates.
 Keep R1 ints in memory in symmetry-blocked form, NReq=19194107.
          There are     1 degrees of freedom in the 1st order CPHF.  IDoFFX=0 NUNeed=     1.
 LinEq1:  Iter=  0 NonCon=     1 RMS=4.19D-03 Max=3.83D-02 NDo=     1
 AX will form     1 AO Fock derivatives at one time.
 LinEq1:  Iter=  1 NonCon=     1 RMS=5.29D-04 Max=4.25D-03 NDo=     1
 LinEq1:  Iter=  2 NonCon=     1 RMS=5.43D-05 Max=3.04D-04 NDo=     1
 LinEq1:  Iter=  3 NonCon=     1 RMS=8.96D-06 Max=5.43D-05 NDo=     1
 LinEq1:  Iter=  4 NonCon=     1 RMS=2.79D-06 Max=1.98D-05 NDo=     1
 LinEq1:  Iter=  5 NonCon=     1 RMS=9.63D-07 Max=5.41D-06 NDo=     1
 LinEq1:  Iter=  6 NonCon=     1 RMS=2.01D-07 Max=1.37D-06 NDo=     1
 LinEq1:  Iter=  7 NonCon=     1 RMS=2.80D-08 Max=2.09D-07 NDo=     1
 LinEq1:  Iter=  8 NonCon=     1 RMS=5.62D-09 Max=3.47D-08 NDo=     1
 LinEq1:  Iter=  9 NonCon=     1 RMS=1.45D-09 Max=9.29D-09 NDo=     1
 LinEq1:  Iter= 10 NonCon=     1 RMS=4.92D-10 Max=3.46D-09 NDo=     1
 LinEq1:  Iter= 11 NonCon=     0 RMS=7.99D-11 Max=6.26D-10 NDo=     1
 Linear equations converged to 1.000D-10 1.000D-09 after    11 iterations.
 End of Minotr F.D. properties file   721 does not exist.
 End of Minotr F.D. properties file   722 does not exist.
 End of Minotr F.D. properties file   788 does not exist.
 Calling FoFJK, ICntrl=  10002127 FMM=F ISym2X=1 I1Cent= 0 IOpClX= 0 NMat=1 NMatS=1 NMatT=0.
 ***** Axes restored to original set *****
 -------------------------------------------------------------------
 Center     Atomic                   Forces (Hartrees/Bohr)
 Number     Number              X              Y              Z
 -------------------------------------------------------------------
      1        7           0.000253853    0.000032372   -0.000000000
      2        7          -0.000053359   -0.000072436   -0.000000000
      3        1          -0.000182767    0.000098675   -0.000000000
      4        1           0.000019436   -0.000064742    0.000000000
      5        1          -0.000040360   -0.000007419   -0.000014777
      6        1          -0.000040360   -0.000007419    0.000014777
      7        1           0.000021779    0.000010485    0.000015557
      8        1           0.000021779    0.000010485   -0.000015557
 -------------------------------------------------------------------
 Cartesian Forces:  Max     0.000253853 RMS     0.000072672

 GradGradGradGradGradGradGradGradGradGradGradGradGradGradGradGradGradGrad
 Berny optimization.
 Using GEDIIS/GDIIS optimizer.
 FormGI is forming the generalized inverse of G from B-inverse, IUseBI=4.
 Internal  Forces:  Max     0.000143310 RMS     0.000047504
 Search for a local minimum.
 Step number   4 out of a maximum of   34
 All quantities printed in internal units (Hartrees-Bohrs-Radians)
 Mixed Optimization -- En-DIIS/RFO-DIIS
 Swapping is turned off.
 Update second derivatives using D2CorX and points    1    2    3    4
 DE= -4.92D-06 DEPred=-4.67D-06 R= 1.06D+00
 TightC=F SS=  1.41D+00  RLast= 2.14D-02 DXNew= 5.0454D-01 6.4234D-02
 Trust test= 1.06D+00 RLast= 2.14D-02 DXMaxT set to 3.00D-01
 ITU=  1  1  1  0
     Eigenvalues ---    0.00307   0.00812   0.01073   0.02692   0.05930
     Eigenvalues ---    0.08389   0.13512   0.15078   0.16000   0.16000
     Eigenvalues ---    0.16055   0.20972   0.44536   0.45003   0.45564
     Eigenvalues ---    0.45598   0.45605   0.46644
 En-DIIS/RFO-DIIS/Sim-DIIS IScMMF=       -3 using points:     4    3    2
 RFO step:  Lambda=-6.50924733D-07.
 DidBck=F Rises=F RFO-DIIS coefs:    2.13527   -1.89203    0.75676
 Iteration  1 RMS(Cart)=  0.00204489 RMS(Int)=  0.00001600
 Iteration  2 RMS(Cart)=  0.00000251 RMS(Int)=  0.00001576
 Iteration  3 RMS(Cart)=  0.00000000 RMS(Int)=  0.00001576
 ClnCor:  largest displacement from symmetrization is 1.84D-12 for atom     6.
 Variable       Old X    -DE/DX   Delta X   Delta X   Delta X     New X
                                 (Linear)    (Quad)   (Total)
    R1        1.93537  -0.00003   0.00017  -0.00024  -0.00008   1.93530
    R2        1.92806  -0.00003   0.00013  -0.00021  -0.00008   1.92799
    R3        1.92806  -0.00003   0.00013  -0.00021  -0.00008   1.92799
    R4        4.30200   0.00005   0.00059   0.00212   0.00270   4.30470
    R5        1.92902  -0.00002  -0.00014   0.00012  -0.00003   1.92899
    R6        1.92774   0.00001  -0.00011   0.00022   0.00011   1.92785
    R7        1.92774   0.00001  -0.00011   0.00022   0.00011   1.92785
    R8        4.57053   0.00006   0.00780   0.00132   0.00914   4.57967
    A1        1.86308   0.00003  -0.00011   0.00031   0.00022   1.86330
    A2        1.86308   0.00003  -0.00011   0.00031   0.00022   1.86330
    A3        1.84892   0.00001  -0.00024   0.00040   0.00020   1.84912
    A4        2.15502  -0.00002  -0.00007  -0.00059  -0.00066   2.15437
    A5        2.15502  -0.00002  -0.00007  -0.00059  -0.00066   2.15437
    A6        1.85512   0.00001  -0.00035   0.00016  -0.00017   1.85496
    A7        1.85512   0.00001  -0.00035   0.00016  -0.00017   1.85496
    A8        1.85400   0.00002  -0.00171   0.00113  -0.00058   1.85341
    A9        2.71422   0.00013   0.00048   0.00057   0.00107   2.71529
   A10        2.28002   0.00014   0.00119   0.00069   0.00186   2.28189
    D1        2.15591  -0.00002   0.00014  -0.00037  -0.00021   2.15569
    D2        2.15591  -0.00002   0.00014  -0.00037  -0.00021   2.15569
    D3       -2.15591   0.00002  -0.00014   0.00037   0.00021  -2.15569
    D4       -2.15591   0.00002  -0.00014   0.00037   0.00021  -2.15569
    D5       -1.85864  -0.00002  -0.00232   0.00011  -0.00219  -1.86083
    D6        1.85864   0.00002   0.00232  -0.00011   0.00219   1.86083
         Item               Value     Threshold  Converged?
 Maximum Force            0.000143     0.000450     YES
 RMS     Force            0.000048     0.000300     YES
 Maximum Displacement     0.007354     0.001800     NO 
 RMS     Displacement     0.002045     0.001200     NO 
 Predicted change in Energy=-4.388584D-08
 GradGradGradGradGradGradGradGradGradGradGradGradGradGradGradGradGradGrad

                          Input orientation:                          
 ---------------------------------------------------------------------
 Center     Atomic      Atomic             Coordinates (Angstroms)
 Number     Number       Type             X           Y           Z
 ---------------------------------------------------------------------
      1          7           0       -0.028391    1.676657    0.000000
      2          7           0       -0.026066   -1.561557   -0.000000
      3          1           0        0.270215    0.697041    0.000000
      4          1           0       -1.024955   -1.351296   -0.000000
      5          1           0        0.401760    2.115327    0.814521
      6          1           0        0.401760    2.115327   -0.814521
      7          1           0        0.142224   -2.150571    0.815779
      8          1           0        0.142224   -2.150571   -0.815779
 ---------------------------------------------------------------------
                    Distance matrix (angstroms):
                    1          2          3          4          5
     1  N    0.000000
     2  N    3.238215   0.000000
     3  H    1.024115   2.277949   0.000000
     4  H    3.187732   1.020779   2.423458   0.000000
     5  H    1.020248   3.790245   1.640818   3.836201   0.000000
     6  H    1.020248   3.790245   1.640818   3.836201   1.629042
     7  H    3.916922   1.020174   2.964924   1.632987   4.273787
     8  H    3.916922   1.020174   2.964924   1.632987   4.574181
                    6          7          8
     6  H    0.000000
     7  H    4.574181   0.000000
     8  H    4.273787   1.631558   0.000000
 Stoichiometry    H6N2
 Framework group  CS[SG(H2N2),X(H4)]
 Deg. of freedom    11
 Full point group                 CS      NOp   2
 Largest Abelian subgroup         CS      NOp   2
 Largest concise Abelian subgroup CS      NOp   2
                         Standard orientation:                         
 ---------------------------------------------------------------------
 Center     Atomic      Atomic             Coordinates (Angstroms)
 Number     Number       Type             X           Y           Z
 ---------------------------------------------------------------------
      1          7           0       -0.024791    1.672627    0.000000
      2          7           0       -0.024791   -1.565588   -0.000000
      3          1           0        0.273111    0.692798    0.000000
      4          1           0       -1.023530   -1.354609   -0.000000
      5          1           0        0.405674    2.110989    0.814521
      6          1           0        0.405674    2.110989   -0.814521
      7          1           0        0.143076   -2.154722    0.815779
      8          1           0        0.143076   -2.154722   -0.815779
 ---------------------------------------------------------------------
 Rotational constants (GHZ):         122.6685883           5.2823203           5.2148691
 Standard basis: Aug-CC-pVDZ (5D, 7F)
 There are    68 symmetry adapted cartesian basis functions of A'  symmetry.
 There are    36 symmetry adapted cartesian basis functions of A"  symmetry.
 There are    64 symmetry adapted basis functions of A'  symmetry.
 There are    36 symmetry adapted basis functions of A"  symmetry.
   100 basis functions,   152 primitive gaussians,   104 cartesian basis functions
    10 alpha electrons       10 beta electrons
       nuclear repulsion energy        39.6833859065 Hartrees.
 NAtoms=    8 NActive=    8 NUniq=    6 SFac= 1.78D+00 NAtFMM=   60 NAOKFM=F Big=F
 Integral buffers will be    131072 words long.
 Raffenetti 1 integral format.
 Two-electron integral symmetry is turned on.
 One-electron integrals computed using PRISM.
 NBasis=   100 RedAO= T EigKep=  1.17D-03  NBF=    64    36
 NBsUse=   100 1.00D-06 EigRej= -1.00D+00 NBFU=    64    36
 Initial guess from the checkpoint file:  "/gscratch/scrubbed/gds001/Gau-16232.chk"
 B after Tr=     0.000000    0.000000   -0.000000
         Rot=    1.000000    0.000000    0.000000   -0.000122 Ang=  -0.01 deg.
 Initial guess orbital symmetries:
       Occupied  (A') (A') (A') (A') (A') (A") (A") (A') (A') (A')
       Virtual   (A') (A') (A") (A') (A") (A') (A') (A') (A") (A')
                 (A') (A') (A") (A') (A") (A') (A") (A") (A') (A')
                 (A') (A") (A') (A') (A') (A") (A') (A") (A') (A")
                 (A") (A') (A') (A") (A') (A") (A') (A') (A") (A')
                 (A") (A') (A') (A") (A') (A") (A') (A') (A') (A')
                 (A') (A") (A') (A") (A') (A') (A') (A") (A') (A")
                 (A") (A") (A") (A') (A') (A') (A") (A') (A") (A')
                 (A') (A") (A') (A') (A") (A') (A") (A') (A') (A')
                 (A") (A') (A") (A') (A') (A') (A') (A") (A") (A')
 Keep R1 ints in memory in symmetry-blocked form, NReq=19192989.
 Requested convergence on RMS density matrix=1.00D-08 within 128 cycles.
 Requested convergence on MAX density matrix=1.00D-06.
 Requested convergence on             energy=1.00D-06.
 No special actions if energy rises.
 SCF Done:  E(RHF) =  -112.412684488     A.U. after    7 cycles
            NFock=  7  Conv=0.67D-08     -V/T= 2.0027
 ExpMin= 2.97D-02 ExpMax= 9.05D+03 ExpMxC= 3.09D+02 IAcc=3 IRadAn=         5 AccDes= 0.00D+00
 HarFok:  IExCor=  205 AccDes= 0.00D+00 IRadAn=         5 IDoV=-2 UseB2=F ITyADJ=14
 ICtDFT= 12500011 ScaDFX=  1.000000  1.000000  1.000000  1.000000
 Range of M.O.s used for correlation:     3   100
 NBasis=   100 NAE=    10 NBE=    10 NFC=     2 NFV=     0
 NROrb=     98 NOA=     8 NOB=     8 NVA=    90 NVB=    90
 Fully direct method using O(ONN) memory.
 JobTyp=1 Pass  1:  I=   3 to  10 NPSUse= 28 ParTrn=T ParDer=T DoDerP=T.
 Spin components of T(2) and E(2):
     alpha-alpha T2 =       0.1530505137D-01 E2=     -0.4690647320D-01
     alpha-beta  T2 =       0.9576988708D-01 E2=     -0.3090370127D+00
     beta-beta   T2 =       0.1530505137D-01 E2=     -0.4690647320D-01
 ANorm=    0.1061310506D+01
 E2 =    -0.4028499591D+00 EUMP2 =    -0.11281553444672D+03
          IDoAtm=11111111
          Differentiating once with respect to electric field.
                with respect to dipole field.
          Differentiating once with respect to nuclear coordinates.
 Keep R1 ints in memory in symmetry-blocked form, NReq=19194107.
          There are     1 degrees of freedom in the 1st order CPHF.  IDoFFX=0 NUNeed=     1.
 LinEq1:  Iter=  0 NonCon=     1 RMS=4.19D-03 Max=3.83D-02 NDo=     1
 AX will form     1 AO Fock derivatives at one time.
 LinEq1:  Iter=  1 NonCon=     1 RMS=5.29D-04 Max=4.24D-03 NDo=     1
 LinEq1:  Iter=  2 NonCon=     1 RMS=5.43D-05 Max=3.05D-04 NDo=     1
 LinEq1:  Iter=  3 NonCon=     1 RMS=8.93D-06 Max=5.44D-05 NDo=     1
 LinEq1:  Iter=  4 NonCon=     1 RMS=2.76D-06 Max=1.96D-05 NDo=     1
 LinEq1:  Iter=  5 NonCon=     1 RMS=9.55D-07 Max=5.35D-06 NDo=     1
 LinEq1:  Iter=  6 NonCon=     1 RMS=2.01D-07 Max=1.37D-06 NDo=     1
 LinEq1:  Iter=  7 NonCon=     1 RMS=2.79D-08 Max=2.08D-07 NDo=     1
 LinEq1:  Iter=  8 NonCon=     1 RMS=5.43D-09 Max=3.46D-08 NDo=     1
 LinEq1:  Iter=  9 NonCon=     1 RMS=1.25D-09 Max=7.90D-09 NDo=     1
 LinEq1:  Iter= 10 NonCon=     1 RMS=4.64D-10 Max=3.21D-09 NDo=     1
 LinEq1:  Iter= 11 NonCon=     0 RMS=7.98D-11 Max=6.26D-10 NDo=     1
 Linear equations converged to 1.000D-10 1.000D-09 after    11 iterations.
 End of Minotr F.D. properties file   721 does not exist.
 End of Minotr F.D. properties file   722 does not exist.
 End of Minotr F.D. properties file   788 does not exist.
 Calling FoFJK, ICntrl=  10002127 FMM=F ISym2X=1 I1Cent= 0 IOpClX= 0 NMat=1 NMatS=1 NMatT=0.
 ***** Axes restored to original set *****
 -------------------------------------------------------------------
 Center     Atomic                   Forces (Hartrees/Bohr)
 Number     Number              X              Y              Z
 -------------------------------------------------------------------
      1        7           0.000204409    0.000035621   -0.000000000
      2        7          -0.000013309   -0.000165062    0.000000000
      3        1          -0.000184351    0.000067155    0.000000000
      4        1           0.000008190   -0.000043851    0.000000000
      5        1          -0.000020605   -0.000002341   -0.000001409
      6        1          -0.000020605   -0.000002341    0.000001409
      7        1           0.000013135    0.000055410    0.000012785
      8        1           0.000013135    0.000055410   -0.000012785
 -------------------------------------------------------------------
 Cartesian Forces:  Max     0.000204409 RMS     0.000070308

 GradGradGradGradGradGradGradGradGradGradGradGradGradGradGradGradGradGrad
 Berny optimization.
 Using GEDIIS/GDIIS optimizer.
 FormGI is forming the generalized inverse of G from B-inverse, IUseBI=4.
 Internal  Forces:  Max     0.000146900 RMS     0.000048994
 Search for a local minimum.
 Step number   5 out of a maximum of   34
 All quantities printed in internal units (Hartrees-Bohrs-Radians)
 Mixed Optimization -- En-DIIS/RFO-DIIS
 Swapping is turned off.
 Update second derivatives using D2CorX and points    1    2    3    4    5
 DE= -1.13D-06 DEPred=-4.39D-08 R= 2.58D+01
 TightC=F SS=  1.41D+00  RLast= 1.03D-02 DXNew= 5.0454D-01 3.0984D-02
 Trust test= 2.58D+01 RLast= 1.03D-02 DXMaxT set to 3.00D-01
 ITU=  1  1  1  1  0
     Eigenvalues ---    0.00160   0.00307   0.00812   0.02411   0.04960
     Eigenvalues ---    0.08404   0.13511   0.14666   0.15639   0.16000
     Eigenvalues ---    0.16000   0.17619   0.44622   0.45003   0.45564
     Eigenvalues ---    0.45605   0.46573   0.47105
 En-DIIS/RFO-DIIS/Sim-DIIS IScMMF=       -3 using points:     5    4    3    2
 RFO step:  Lambda=-6.93961322D-06.
 DIIS inversion failure, remove point   4.
 RFO-DIIS uses    3 points instead of    4
 DidBck=F Rises=F RFO-DIIS coefs:    2.96791   -2.00000    0.03209    0.00000
 Iteration  1 RMS(Cart)=  0.01286015 RMS(Int)=  0.00010968
 Iteration  2 RMS(Cart)=  0.00009713 RMS(Int)=  0.00003792
 Iteration  3 RMS(Cart)=  0.00000000 RMS(Int)=  0.00003792
 ClnCor:  largest displacement from symmetrization is 6.94D-12 for atom     6.
 Variable       Old X    -DE/DX   Delta X   Delta X   Delta X     New X
                                 (Linear)    (Quad)   (Total)
    R1        1.93530  -0.00002  -0.00017  -0.00023  -0.00040   1.93489
    R2        1.92799  -0.00001  -0.00016  -0.00016  -0.00032   1.92767
    R3        1.92799  -0.00001  -0.00016  -0.00016  -0.00032   1.92767
    R4        4.30470   0.00004   0.00543   0.01285   0.01828   4.32298
    R5        1.92899  -0.00000  -0.00007   0.00006   0.00000   1.92899
    R6        1.92785  -0.00002   0.00020   0.00009   0.00029   1.92814
    R7        1.92785  -0.00002   0.00020   0.00009   0.00029   1.92814
    R8        4.57967   0.00004   0.01744   0.03864   0.05607   4.63575
    A1        1.86330   0.00002   0.00053   0.00046   0.00100   1.86430
    A2        1.86330   0.00002   0.00053   0.00046   0.00100   1.86430
    A3        1.84912   0.00001   0.00051   0.00054   0.00105   1.85017
    A4        2.15437  -0.00005  -0.00131  -0.00371  -0.00512   2.14924
    A5        2.15437  -0.00005  -0.00131  -0.00371  -0.00512   2.14924
    A6        1.85496   0.00002  -0.00022  -0.00051  -0.00073   1.85422
    A7        1.85496   0.00002  -0.00022  -0.00051  -0.00073   1.85422
    A8        1.85341   0.00007  -0.00101  -0.00053  -0.00165   1.85176
    A9        2.71529   0.00014   0.00209   0.00575   0.00782   2.72310
   A10        2.28189   0.00015   0.00362   0.00911   0.01275   2.29463
    D1        2.15569  -0.00001  -0.00053  -0.00052  -0.00105   2.15464
    D2        2.15569  -0.00001  -0.00053  -0.00052  -0.00105   2.15464
    D3       -2.15569   0.00001   0.00053   0.00052   0.00105  -2.15464
    D4       -2.15569   0.00001   0.00053   0.00052   0.00105  -2.15464
    D5       -1.86083  -0.00002  -0.00420  -0.00888  -0.01304  -1.87387
    D6        1.86083   0.00002   0.00420   0.00888   0.01304   1.87387
         Item               Value     Threshold  Converged?
 Maximum Force            0.000147     0.000450     YES
 RMS     Force            0.000049     0.000300     YES
 Maximum Displacement     0.045983     0.001800     NO 
 RMS     Displacement     0.012853     0.001200     NO 
 Predicted change in Energy=-3.493228D-06
 GradGradGradGradGradGradGradGradGradGradGradGradGradGradGradGradGradGrad

                          Input orientation:                          
 ---------------------------------------------------------------------
 Center     Atomic      Atomic             Coordinates (Angstroms)
 Number     Number       Type             X           Y           Z
 ---------------------------------------------------------------------
      1          7           0       -0.025212    1.685543    0.000000
      2          7           0       -0.033145   -1.564360   -0.000000
      3          1           0        0.265282    0.703715    0.000000
      4          1           0       -1.036326   -1.375629   -0.000000
      5          1           0        0.407201    2.121239    0.814707
      6          1           0        0.407201    2.121239   -0.814707
      7          1           0        0.146885   -2.150695    0.815397
      8          1           0        0.146885   -2.150695   -0.815397
 ---------------------------------------------------------------------
                    Distance matrix (angstroms):
                    1          2          3          4          5
     1  N    0.000000
     2  N    3.249913   0.000000
     3  H    1.023901   2.287623   0.000000
     4  H    3.223837   1.020780   2.453131   0.000000
     5  H    1.020079   3.800170   1.641117   3.869833   0.000000
     6  H    1.020079   3.800170   1.641117   3.869833   1.629415
     7  H    3.925712   1.020329   2.970950   1.632663   4.279859
     8  H    3.925712   1.020329   2.970950   1.632663   4.579785
                    6          7          8
     6  H    0.000000
     7  H    4.579785   0.000000
     8  H    4.279859   1.630793   0.000000
 Stoichiometry    H6N2
 Framework group  CS[SG(H2N2),X(H4)]
 Deg. of freedom    11
 Full point group                 CS      NOp   2
 Largest Abelian subgroup         CS      NOp   2
 Largest concise Abelian subgroup CS      NOp   2
                         Standard orientation:                         
 ---------------------------------------------------------------------
 Center     Atomic      Atomic             Coordinates (Angstroms)
 Number     Number       Type             X           Y           Z
 ---------------------------------------------------------------------
      1          7           0       -0.025743    1.679612   -0.000000
      2          7           0       -0.025743   -1.570300    0.000000
      3          1           0        0.267146    0.698496   -0.000000
      4          1           0       -1.029382   -1.384018    0.000000
      5          1           0        0.405605    2.116363    0.814707
      6          1           0        0.405605    2.116363   -0.814707
      7          1           0        0.155717   -2.156195    0.815397
      8          1           0        0.155717   -2.156195   -0.815397
 ---------------------------------------------------------------------
 Rotational constants (GHZ):         122.1257602           5.2439891           5.1785470
 Standard basis: Aug-CC-pVDZ (5D, 7F)
 There are    68 symmetry adapted cartesian basis functions of A'  symmetry.
 There are    36 symmetry adapted cartesian basis functions of A"  symmetry.
 There are    64 symmetry adapted basis functions of A'  symmetry.
 There are    36 symmetry adapted basis functions of A"  symmetry.
   100 basis functions,   152 primitive gaussians,   104 cartesian basis functions
    10 alpha electrons       10 beta electrons
       nuclear repulsion energy        39.6198720123 Hartrees.
 NAtoms=    8 NActive=    8 NUniq=    6 SFac= 1.78D+00 NAtFMM=   60 NAOKFM=F Big=F
 Integral buffers will be    131072 words long.
 Raffenetti 1 integral format.
 Two-electron integral symmetry is turned on.
 One-electron integrals computed using PRISM.
 NBasis=   100 RedAO= T EigKep=  1.17D-03  NBF=    64    36
 NBsUse=   100 1.00D-06 EigRej= -1.00D+00 NBFU=    64    36
 Initial guess from the checkpoint file:  "/gscratch/scrubbed/gds001/Gau-16232.chk"
 B after Tr=     0.000000   -0.000000    0.000000
         Rot=    1.000000    0.000000    0.000000   -0.000737 Ang=  -0.08 deg.
 Initial guess orbital symmetries:
       Occupied  (A') (A') (A') (A') (A') (A") (A") (A') (A') (A')
       Virtual   (A') (A') (A") (A') (A") (A') (A') (A') (A") (A')
                 (A') (A') (A") (A') (A") (A') (A") (A") (A') (A')
                 (A') (A") (A') (A') (A') (A") (A') (A") (A') (A")
                 (A") (A') (A') (A") (A') (A") (A') (A') (A") (A')
                 (A") (A') (A') (A") (A') (A") (A') (A') (A') (A')
                 (A') (A") (A') (A") (A') (A') (A') (A") (A') (A")
                 (A") (A") (A") (A') (A') (A') (A") (A') (A") (A')
[...]
 865,-0.00045576,0.,0.00865154,0.00052802,-0.00016622,0.,0.00197344,-0.
 00072034,0.,-0.00190753,0.00058620,0.,-0.00013732,-0.00024241,0.,0.,-0
 .00013436,0.,0.,0.00171793,0.,0.,0.00001730,0.,0.,-0.00176220,-0.05622
 580,-0.23802426,-0.44928767,0.00004747,0.00058837,-0.00007918,0.013166
 61,0.00503785,0.00115971,-0.00003702,-0.00005013,0.00000238,0.03192299
 ,-0.21182501,-0.02535472,-0.37601949,0.00022991,-0.00066918,0.00008583
 ,-0.02052015,-0.00064387,-0.03824507,-0.00001318,-0.00001023,0.0000067
 6,0.23131203,0.01705072,-0.42247827,-0.39321419,-0.57089610,0.00013312
 ,0.00009805,-0.00002774,-0.00487978,0.00374257,0.00391748,0.00006024,0
 .00019794,0.00003221,0.43770991,0.40176593,0.57497191,-0.05622579,-0.2
 3802425,0.44928765,0.00004747,0.00058837,0.00007918,0.01316660,0.00503
 785,-0.00115971,-0.00003702,-0.00005013,-0.00000238,0.01114592,0.00100
 574,-0.01047701,0.03192298,-0.21182500,-0.02535471,0.37601947,0.000229
 91,-0.00066917,-0.00008583,-0.02052015,-0.00064387,0.03824507,-0.00001
 318,-0.00001023,-0.00000676,0.00100574,0.00993247,-0.01244054,0.231312
 02,0.01705070,0.42247825,0.39321416,-0.57089605,-0.00013312,-0.0000980
 5,-0.00002774,0.00487978,-0.00374257,0.00391748,-0.00006024,-0.0001979
 4,0.00003221,0.01047701,0.01244054,-0.00801018,-0.43770988,-0.40176590
 ,0.57497186,-0.00001241,-0.00042952,-0.00000572,0.00021471,-0.00036076
 ,-0.00272759,0.00020545,0.00159515,0.00060238,0.00020030,-0.00017818,-
 0.00018627,-0.00001610,-0.00008105,-0.00002876,-0.00000407,-0.00010828
 ,0.00003945,-0.00074602,-0.00020290,-0.00062853,-0.00007903,-0.0005304
 9,-0.00301094,0.00203942,0.00070316,0.00235220,0.00071161,0.00033718,0
 .00028161,-0.00002402,0.00006991,-0.00010724,-0.00004791,0.00006049,-0
 .00019795,0.00010185,-0.00046411,0.00102254,0.00009323,-0.00048801,-0.
 00006115,-0.00214647,0.00251402,-0.00468319,0.00033213,0.00157410,0.00
 030137,-0.00004274,-0.00013554,0.00004845,-0.00000980,-0.00005602,-0.0
 0001194,-0.00002764,-0.00002153,0.00002436,0.00205390,-0.00304447,0.00
 412665,-0.00001241,-0.00042952,0.00000572,0.00021471,-0.00036077,0.002
 72758,0.00020545,0.00159515,-0.00060238,0.00020030,-0.00017818,0.00018
 627,-0.00000407,-0.00010828,-0.00003945,-0.00001610,-0.00008105,0.0000
 2876,0.00015813,0.00002676,-0.00025261,-0.00074602,-0.00020290,-0.0006
 2853,0.00007903,-0.00053050,-0.00301093,-0.00203938,0.00070316,0.00235
 221,-0.00071161,0.00033719,0.00028161,0.00002402,0.00006049,-0.0001979
 5,-0.00010185,0.00006991,-0.00010724,0.00004791,0.00002676,0.00028830,
 -0.00034255,-0.00046411,0.00102252,-0.00009323,0.00048801,-0.00006116,
 0.00214645,-0.00251397,-0.00468313,-0.00033213,-0.00157410,0.00030137,
 0.00004274,0.00013554,0.00004845,0.00002764,0.00002153,0.00002436,0.00
 000980,0.00005602,-0.00001194,0.00025261,0.00034255,0.00025546,-0.0020
 5389,0.00304442,0.00412659,-0.00052670,0.00120393,0.00699733,0.,0.,0.0
 0655913,0.00000009,0.00007447,0.,1.26481305,-0.00030610,0.00060169,0.,
 -0.66022361,0.25508279,0.,0.,-0.00015733,0.,-0.00000002,1.45518291,0.0
 0109368,0.00183984,0.,-0.00082577,0.00049029,0.,-0.00098180,0.00156226
 ,-0.00731328,0.,-0.00026886,-0.00024852,0.,-0.00206436,0.00812444,0.,0
 .,0.00154444,0.,0.,-0.00086670,0.,0.,-0.00203812,-0.00009007,-0.000058
 02,0.,-1.64194438,0.20938486,0.,0.00072575,0.00106615,0.,1.64215336,0.
 00023505,-0.00011951,0.,0.16357986,0.30365941,0.,-0.00055898,-0.000301
 39,0.,-0.20738026,-0.32146032,0.,0.,-0.00001140,0.,0.,0.29719601,0.,0.
 ,-0.00001074,0.,0.,-0.31283115,-0.00024915,-0.00152134,-0.00305310,0.0
 0005615,-0.00004776,0.00001124,-0.00004290,0.00011862,-0.00001729,-0.0
 0005574,0.00002460,0.00002508,0.00023362,-0.00136740,-0.00000652,-0.00
 235438,0.00000050,0.00004165,-0.00011022,0.00003392,-0.00034240,-0.000
 08145,-0.00005039,0.00005876,-0.00001487,0.00138689,0.00015040,-0.0029
 2710,-0.00258875,-0.00392038,-0.00005722,0.00001483,-0.00000651,0.0000
 5033,0.00013589,0.00016707,0.00007564,-0.00001879,0.00000091,0.0029631
 7,0.00248490,0.00385938,-0.00024915,-0.00152134,0.00305311,0.00005615,
 -0.00004776,-0.00001124,-0.00004290,0.00011862,0.00001729,-0.00005574,
 0.00002460,-0.00002508,0.00004794,0.00001435,-0.00007044,0.00023363,-0
 .00136740,-0.00000653,0.00235438,0.00000050,0.00004165,0.00011022,0.00
 003392,-0.00034240,0.00008145,-0.00005039,0.00005876,0.00001487,0.0000
 1435,0.00008042,-0.00004175,0.00138690,0.00015041,0.00292711,0.0025887
 5,-0.00392039,0.00005722,-0.00001483,-0.00000651,-0.00005032,-0.000135
 90,0.00016707,-0.00007564,0.00001879,0.00000091,0.00007044,0.00004175,
 -0.00007740,-0.00296318,-0.00248490,0.00385939,0.00001065,-0.00000877,
 -0.00001882,0.18892236,0.22537504,-0.31051518,0.00003697,-0.00026621,0
 .00027986,-0.00036659,0.02203756,-0.03364796,-0.00001305,0.00000409,-0
 .00001925,0.00002312,-0.00002198,0.00001511,-0.20158920,0.00001983,-0.
 00007659,-0.00008815,0.24841857,-0.27958934,0.82723977,0.00011269,0.00
 021178,0.00006430,-0.00145598,0.00905215,0.00733899,0.00002847,-0.0000
 0460,0.00001491,-0.00000384,0.00002229,0.00000123,-0.24543801,0.252044
 22,0.00003422,-0.00006172,-0.00004703,-0.33070722,0.79407929,-0.875670
 96,-0.00010031,-0.00050020,0.00051849,0.00783824,0.00088518,0.00782773
 ,0.00001594,0.00006799,-0.00004593,0.00001548,0.00003372,0.00002286,0.
 33340495,-0.81453765,0.88083428,0.00001065,-0.00000877,0.00001882,0.18
 892236,0.22537504,0.31051517,0.00003697,-0.00026621,-0.00027986,-0.000
 36659,0.02203757,0.03364796,0.00002312,-0.00002198,-0.00001511,-0.0000
 1305,0.00000410,0.00001925,0.01297575,-0.00168173,-0.01050129,-0.20158
 921,0.00001983,-0.00007659,0.00008815,0.24841856,-0.27958932,-0.827239
 75,0.00011269,0.00021178,-0.00006430,-0.00145597,0.00905215,-0.0073389
 9,-0.00000384,0.00002229,-0.00000123,0.00002847,-0.00000460,-0.0000149
 1,-0.00168173,0.01834011,0.02003340,-0.24543801,0.25204419,-0.00003422
 ,0.00006172,-0.00004702,0.33070721,-0.79407927,-0.87567092,0.00010031,
 0.00050020,0.00051849,-0.00783824,-0.00088518,0.00782773,-0.00001548,-
 0.00003372,0.00002286,-0.00001594,-0.00006799,-0.00004593,0.01050129,-
 0.02003340,-0.01343944,-0.33340494,0.81453763,0.88083424,-0.19433647,-
 0.07029560,1.98366579,0.00000006,0.00000006,1.17662881,-0.00017158,0.0
 0036324,0.,0.00329192,-0.00045152,-0.00276051,0.,0.00168913,0.00104572
 ,0.,0.,0.00060298,0.,0.00000002,0.00455719,0.33199032,0.64212923,0.,-0
 .00220512,0.00011121,0.,-0.32552879,0.63133365,-2.10240657,0.,-0.00059
 070,0.00893428,0.,-0.63299079,2.07184582,0.,0.,0.47696018,0.,0.,-0.002
 81710,0.,0.,-0.46885808,0.00004170,-0.00000514,0.,-0.00025057,-0.00067
 625,0.,-0.00058981,-0.00031776,0.,0.00040749,0.00020168,-0.00000380,0.
 ,0.00100927,-0.00202561,0.,-0.00124304,0.00061605,0.,0.00051420,0.0011
 2122,0.,0.,-0.00010539,0.,0.,0.00012705,0.,0.,-0.00009542,0.,0.,-0.000
 04292,-0.06879306,-0.28582611,-0.64173095,0.00005390,0.00060313,-0.000
 14448,-0.00195685,0.00023801,0.00049823,0.00001167,-0.00005934,-0.0000
 1134,0.05843915,-0.28036946,0.06125830,-0.49905088,-0.00004281,-0.0009
 2222,0.00028096,-0.00441534,0.00891159,0.00060355,0.00002640,-0.000022
 97,0.00000622,0.28376639,-0.08183076,-0.60821722,-0.48763654,-0.826937
 75,-0.00008246,0.00105973,-0.00018114,-0.00347961,0.00472824,-0.002836
 97,-0.00005314,-0.00001673,0.00005992,0.62657260,0.48991456,0.84312275
 ,-0.06879305,-0.28582609,0.64173089,0.00005390,0.00060313,0.00014448,-
 0.00195685,0.00023800,-0.00049823,0.00001167,-0.00005934,0.00001134,0.
 01221366,0.00111536,-0.01480197,0.05843914,-0.28036944,0.06125829,0.49
 905082,-0.00004281,-0.00092222,-0.00028096,-0.00441534,0.00891160,-0.0
 0060354,0.00002640,-0.00002297,-0.00000622,0.00111536,0.01277103,-0.00
 826493,0.28376637,-0.08183075,0.60821716,0.48763648,-0.82693765,0.0000
 8246,-0.00105973,-0.00018114,0.00347961,-0.00472823,-0.00283697,0.0000
 5314,0.00001673,0.00005992,0.01480197,0.00826493,-0.01327584,-0.626572
 54,-0.48991450,0.84312264,0.00003106,-0.00026976,0.00000064,-0.0003862
 2,-0.00093943,-0.00119873,0.00012355,0.00104479,0.00047666,0.00018393,
 -0.00018171,-0.00006927,0.00003402,-0.00005575,0.00004893,-0.00000248,
 -0.00002478,-0.00001287,-0.00004117,-0.00002465,-0.00050575,-0.0000293
 9,-0.00119266,-0.00167471,-0.00054299,0.00041204,0.00159362,0.00048382
 ,0.00021608,0.00016904,-0.00004854,0.00011371,-0.00008437,0.00017303,0
 .00004886,-0.00008061,-0.00004265,0.00041659,0.00035439,0.00009479,-0.
 00041109,-0.00010559,-0.00063452,-0.00011971,-0.00105392,0.00015680,0.
 00110277,0.00024218,-0.00007297,-0.00010604,-0.00000158,0.00002039,0.0
 0001503,0.00004450,0.00000641,0.00003436,0.00000453,0.00059187,-0.0002
 5431,0.00068917,0.00003106,-0.00026976,-0.00000064,-0.00038621,-0.0009
 3941,0.00119874,0.00012355,0.00104480,-0.00047666,0.00018393,-0.000181
 71,0.00006927,-0.00000248,-0.00002478,0.00001287,0.00003402,-0.0000557
 5,-0.00004893,0.00005730,0.00001004,-0.00016277,-0.00004118,-0.0000246
 5,-0.00050575,0.00002940,-0.00119265,-0.00167473,0.00054297,0.00041204
 ,0.00159362,-0.00048382,0.00021608,0.00016904,0.00004854,0.00004886,-0
 .00008061,0.00004265,0.00011371,-0.00008437,-0.00017303,0.00001004,0.0
 0022839,-0.00026102,0.00041658,0.00035440,-0.00009479,0.00041110,-0.00
 010559,0.00063452,0.00011969,-0.00105392,-0.00015680,-0.00110278,0.000
 24217,0.00007298,0.00010603,-0.00000158,-0.00000641,-0.00003436,0.0000
 0453,-0.00002039,-0.00001503,0.00004450,0.00016278,0.00026103,0.000180
 70,-0.00059188,0.00025432,0.00068918,-0.00004248,-0.00019870,0.0009144
 5,0.00000002,0.00000001,-0.00006733,0.00083508,0.00021935,0.,3.0571048
 1,-0.00064867,0.00009333,0.,-0.53719143,-0.40631942,0.,0.,0.00028106,-
 0.00000002,0.00000005,0.37689144,-0.00031796,0.00023739,0.,-0.00219942
 ,0.00143850,0.,0.00117237,0.00019818,-0.00074551,0.,-0.00108794,0.0007
 4040,0.,-0.00064557,0.00050718,0.,0.,0.00008284,0.,0.,-0.00117210,0.,0
 .,0.00006564,-0.00062485,-0.00014709,0.,-3.33257924,0.33291618,0.,0.00
 142755,0.00153598,0.,3.30384170,0.00048649,-0.00033201,0.,0.31263029,0
 .69024595,0.,-0.00114993,-0.00000751,0.,-0.32176060,-0.68292773,0.,0.,
 0.00006648,0.,0.,0.69631391,0.,0.,0.00005075,0.,0.,-0.68269941,0.00007
 971,0.00002876,-0.00002016,0.00012057,-0.00010270,-0.00000863,-0.00013
 812,-0.00000933,-0.00006648,-0.00008374,0.00007034,0.00005761,0.000024
 31,0.00000149,-0.00000367,-0.00010963,0.00025375,-0.00021795,-0.000021
 30,0.00004234,0.00003409,0.00003646,-0.00019951,0.00010392,0.00004732,
 -0.00001457,-0.00003155,-0.00005365,-0.00008088,-0.00001897,-0.0001513
 3,0.00005626,-0.00000797,-0.00000906,0.00004094,0.00003975,0.00015115,
 -0.00006300,-0.00002587,0.00006160,0.00007931,-0.00000434,0.00007971,0
 .00002877,0.00002015,0.00012057,-0.00010271,0.00000863,-0.00013811,-0.
 00000934,0.00006648,-0.00008373,0.00007034,-0.00005761,-0.00001404,-0.
 00000279,0.00000914,0.00002430,0.00000150,-0.00000366,0.00010961,0.000
 25375,-0.00021795,0.00002130,0.00004234,0.00003409,-0.00003646,-0.0001
 9951,0.00010392,-0.00004732,-0.00000279,-0.00001611,0.00000141,-0.0000
 1458,-0.00003155,0.00005363,0.00008086,-0.00001894,0.00015133,-0.00005
 626,-0.00000797,0.00000906,-0.00004094,0.00003976,-0.00015115,0.000063
 00,-0.00002587,-0.00000913,-0.00000141,0.00001582,-0.00006158,-0.00007
 929,-0.00000437,-0.00000460,-0.00008425,0.00005402,0.13829881,0.101845
 41,-0.15570781,0.00009684,0.00000901,0.00002410,0.01405116,0.00482654,
 -0.00417086,-0.00001981,-0.00002150,0.00000172,0.00003112,-0.00005921,
 0.00000956,-0.16150024,0.00007986,0.00003853,0.00002807,0.11246110,-0.
 14216217,0.49041350,0.00001747,-0.00028137,0.00003814,-0.00607273,-0.0
 0359327,0.00285547,0.00001321,0.00005778,-0.00000823,0.00001708,0.0000
 7348,0.00002582,-0.10678026,0.13720188,-0.00014801,-0.00011588,-0.0001
 6258,-0.16448673,0.46846145,-0.53614916,0.00012316,-0.00025460,0.00044
 668,0.00603237,0.00389037,-0.00683999,-0.00000157,-0.00005296,-0.00002
 164,0.00001323,-0.00002221,0.00002321,0.15912841,-0.48262947,0.5510490
 7,-0.00000461,-0.00008425,-0.00005402,0.13829884,0.10184542,0.15570783
 ,0.00009684,0.00000901,-0.00002410,0.01405115,0.00482654,0.00417086,0.
 00003112,-0.00005921,-0.00000956,-0.00001982,-0.00002150,-0.00000172,0
 .00904672,0.00026426,-0.00066086,-0.16150026,0.00007985,0.00003854,-0.
 00002807,0.11246112,-0.14216218,-0.49041355,0.00001747,-0.00028137,-0.
 00003814,-0.00607273,-0.00359327,-0.00285547,0.00001708,0.00007348,-0.
 00002581,0.00001321,0.00005778,0.00000823,0.00026426,0.00866514,0.0107
 2330,-0.10678028,0.13720189,0.00014801,0.00011588,-0.00016257,0.164486
 75,-0.46846150,-0.53614920,-0.00012316,0.00025460,0.00044668,-0.006032
 37,-0.00389037,-0.00683999,-0.00001324,0.00002221,0.00002321,0.0000015
 7,0.00005296,-0.00002164,0.00066086,-0.01072330,-0.00834560,-0.1591284
 3,0.48262952,0.55104911,0.26780065,1.07748502,-0.06695970,0.00000014,-
 0.00000002,2.47654566,0.00008361,0.00008506,0.00000007,-0.08710169,-0.
 00055052,-0.00002264,0.00000001,-0.09241510,0.11254410,-0.00000006,-0.
 00000006,0.00041552,0.00000002,-0.00000005,0.31370625,-0.01342168,-0.0
 0240643,0.,-0.00017057,0.00004386,0.00000003,0.00031503,-0.02292328,0.
 01372484,0.00000003,-0.00000567,0.00039090,0.00000012,0.00559091,0.003
 21264,0.00000009,0.00000004,-0.01694660,0.00000003,-0.00000003,-0.0005
 6012,-0.00000003,-0.00000008,-0.00186734,0.00005041,-0.00002086,-0.000
 00004,0.00233816,0.00153867,-0.00000002,0.00003314,-0.00001720,0.,0.00
 011489,0.00023567,-0.00006014,0.,-0.00124687,-0.00252915,0.00000001,-0
 .00006549,-0.00010011,0.,-0.00060985,0.00060672,-0.00000002,0.,-0.0001
 4728,0.,0.,-0.00203175,0.,0.,-0.00001132,0.,0.,-0.00032518,-0.12729486
 ,-0.53755904,-1.03189463,-0.00003710,0.00028932,-0.00016458,0.00665705
 ,0.00867046,0.00648336,-0.00003813,-0.00010825,0.00004540,0.12291766,-
 0.52705602,0.02671707,-0.87341383,0.00003992,-0.00008399,-0.00014226,-
 0.00159403,-0.00872832,-0.00438371,0.00001700,0.00007398,0.00005447,0.
 52792392,-0.01338845,-1.01475069,-0.87716897,-1.22980548,0.00003624,0.
 00038103,-0.00014044,0.00031079,0.00447625,0.00951931,0.00000076,-0.00
 000344,0.00007836,1.01997280,0.87504903,1.21139083,-0.12729417,-0.5375
 5827,1.03189451,-0.00003706,0.00028886,0.00016461,0.00665664,0.0086689
 3,-0.00648341,-0.00003783,-0.00010839,-0.00004538,-0.00220069,0.000697
 90,-0.00552683,0.12291731,-0.52705581,0.02671717,0.87341386,0.00003999
 ,-0.00008404,0.00014218,-0.00159408,-0.00872846,0.00438377,0.00001698,
 0.00007397,-0.00005447,0.00069731,-0.00456951,-0.00277735,0.52792437,-
 0.01338835,1.01475049,0.87716895,-1.22980501,-0.00003633,-0.00038101,-
 0.00014044,-0.00031076,-0.00447621,0.00951937,-0.00000072,0.00000344,0
 .00007830,0.00552710,0.00277716,0.00891263,-1.01997291,-0.87504892,1.2
 1139034,0.00003806,-0.00001275,-0.00004131,0.04246235,0.04540247,-0.06
 133456,-0.00003480,0.00000794,0.00013118,-0.00123034,0.00095159,-0.000
 82703,0.00001365,0.00000709,-0.00001633,-0.00001776,-0.00003582,0.0000
 2691,-0.04064337,-0.00006762,-0.00005835,-0.00001979,0.04675131,-0.055
 10757,0.15838267,0.00001265,0.00011435,-0.00001935,-0.00046238,0.00096
 737,-0.00063315,0.00012418,0.00007027,0.00006181,-0.00003768,-0.000091
 11,0.00001828,-0.04634866,0.05427620,-0.00004354,-0.00004655,-0.000128
 38,-0.06250443,0.15663209,-0.15562455,0.00006076,-0.00005819,0.0001733
 4,0.00059174,-0.00023154,0.00117943,0.00002191,0.00003337,0.00003644,-
 0.00000883,-0.00002573,0.00000834,0.06197178,-0.15704696,0.15320775,0.
 00003797,-0.00001274,0.00004127,0.04246229,0.04540244,0.06133455,-0.00
 003480,0.00000790,-0.00013121,-0.00123031,0.00095159,0.00082704,-0.000
 01759,-0.00003578,-0.00002674,0.00001356,0.00000706,0.00001623,-0.0005
 8778,0.00002819,-0.00008939,-0.04064334,-0.00006743,-0.00005825,0.0000
 1974,0.04675135,-0.05510761,-0.15838260,0.00001260,0.00011416,0.000019
 36,-0.00046237,0.00096736,0.00063315,-0.00003790,-0.00009105,-0.000018
 37,0.00012427,0.00007034,-0.00006168,0.00002814,-0.00017115,0.00074351
 ,-0.04634866,0.05427619,0.00004360,0.00004661,-0.00012844,0.06250441,-
 0.15663203,-0.15562447,-0.00006079,0.00005808,0.00017336,-0.00059172,0
 .00023152,0.00117944,0.00000863,0.00002577,0.00000835,-0.00002175,-0.0
 0003333,0.00003646,0.00008936,-0.00074350,0.00114763,-0.06197175,0.157
 04689,0.15320767,0.03423058,0.13524185,-0.00824148,-0.00000003,0.,0.31
 130466,0.00016418,0.00027422,0.00000009,-0.69514343,-0.00032941,0.0003
 0989,-0.00000003,-0.73727944,0.89183026,-0.00000012,-0.00000016,0.0005
 6978,0.,-0.00000005,2.49754035,-0.00223843,-0.00050404,-0.00000004,-0.
 00046624,0.00002744,0.00000009,0.00104457,-0.00284996,0.00134869,-0.00
 000002,0.00010741,-0.00001254,0.00000011,0.00082439,0.00080235,0.00000
 009,0.00000013,-0.00223135,0.00000005,-0.00000005,-0.00177993,-0.00000
 008,-0.00000009,-0.00037610,-0.00008654,0.00001895,-0.00000007,0.01931
 258,0.01312082,0.,0.00019139,0.00001195,-0.00000002,0.00063299,0.00005
 696,0.00005443,0.,-0.00992832,-0.01861797,0.00000003,-0.00000137,-0.00
 030488,-0.00000002,-0.00531101,0.00377563,0.,0.,-0.00010444,0.,0.,-0.0
 1667482,0.,0.,0.00005268,0.,0.,-0.00222756,-0.01604969,-0.06742702,-0.
 12958141,-0.00001902,0.00011007,-0.00004550,0.00077959,0.00108369,0.00
 084138,-0.00003594,-0.00002952,0.00002887,0.01551749,-0.06613100,0.003
 42938,-0.10956285,0.00009485,0.00002469,0.00009701,-0.00013773,-0.0011
 1659,-0.00051863,-0.00001971,0.00000115,-0.00005205,0.06621041,-0.0017
 4399,-0.12751278,-0.11011073,-0.15451222,0.00002005,0.00005204,-0.0000
 4721,0.00010870,0.00058691,0.00130474,-0.00000781,-0.00002084,0.000027
 05,0.12809426,0.10977930,0.15213995,-0.01604815,-0.06742491,0.12958150
 ,-0.00001864,0.00010939,0.00004553,0.00077838,0.00108230,-0.00084140,-
 0.00003597,-0.00002986,-0.00002888,-0.00025746,0.00007756,-0.00066396,
 0.01551701,-0.06613085,0.00342961,0.10956285,0.00009498,0.00002459,-0.
 00009696,-0.00013789,-0.00111675,0.00051859,-0.00001978,0.00000111,0.0
 0005205,0.00007790,-0.00056975,-0.00032901,0.06621009,-0.00174406,0.12
 751273,0.11011061,-0.15451244,-0.00002017,-0.00005197,-0.00004719,-0.0
 0010859,-0.00058682,0.00130468,0.00000789,0.00002086,0.00002707,0.0006
 6399,0.00032913,0.00111395,-0.12809438,-0.10977939,0.15214022,0.000014
 01,-0.00008954,-0.00012153,0.33808532,0.36212057,-0.48784549,-0.000044
 63,-0.00012988,0.00044610,-0.00998928,0.00762156,-0.00681439,0.0000204
 0,-0.00005605,-0.00002209,0.00004454,-0.00003837,0.00001635,-0.3236034
 3,0.00007110,-0.00016541,0.00012257,0.37331811,-0.43677942,1.26087082,
 -0.00003530,0.00019996,-0.00032438,-0.00390059,0.00754529,-0.00492116,
 0.00003084,0.00003500,0.00005235,-0.00005589,-0.00005978,0.00001004,-0
 .36965635,0.43066158,-0.00008026,-0.00034967,-0.00025699,-0.49792790,1
 .24613513,-1.23978053,0.00029521,-0.00028634,0.00086261,0.00479342,-0.
 00172801,0.00945001,-0.00001778,-0.00007811,-0.00002138,-0.00001653,-0
 .00000626,-0.00000486,0.49364745,-1.24974849,1.22070494,0.00001403,-0.
 00008952,0.00012149,0.33808527,0.36212055,0.48784548,-0.00004463,-0.00
 012989,-0.00044612,-0.00998924,0.00762156,0.00681439,0.00004462,-0.000
 03835,-0.00001638,0.00002028,-0.00005608,0.00002218,-0.00452693,0.0002
 2809,-0.00069361,-0.32360341,0.00007130,-0.00016512,-0.00012252,0.3733
 1819,-0.43677949,-1.26087079,-0.00003549,0.00019976,0.00032445,-0.0039
 0064,0.00754524,0.00492116,-0.00005639,-0.00005990,-0.00001003,0.00003
 132,0.00003503,-0.00005247,0.00022807,-0.00143721,0.00606174,-0.369656
 36,0.43066169,0.00008037,0.00034982,-0.00025699,0.49792790,-1.24613507
 ,-1.23978044,-0.00029530,0.00028624,0.00086265,-0.00479342,0.00172798,
 0.00945002,0.00001618,0.00000620,-0.00000487,0.00001811,0.00007813,-0.
 00002141,0.00069359,-0.00606175,0.00904619,-0.49364742,1.24974846,1.22
 070485\\@


 At the touch of love, everyone becomves a poet.
                                -- Plato
 Job cpu time:       0 days  8 hours  8 minutes 40.7 seconds.
 Elapsed time:       0 days  0 hours 18 minutes  6.6 seconds.
 File lengths (MBytes):  RWF=    560 Int=      0 D2E=      0 Chk=     48 Scr=      8
 Normal termination of Gaussian 16 at Fri Nov 26 10:23:09 2021.
