 Entering Gaussian System, Link 0=g16
 Input=nh3_nh3_mp2_avtz_opt_anharm.gjf
 Output=nh3_nh3_mp2_avtz_opt_anharm.log
 Initial command:
 /sw/contrib/gaussian/g16/A03/g16/l1.exe "/gscratch/scrubbed/gds001/Gau-9888.inp" -scrdir="/gscratch/scrubbed/gds001/"
 Entering Link 1 = /sw/contrib/gaussian/g16/A03/g16/l1.exe PID=      9889.
  
 Copyright (c) 1988,1990,1992,1993,1995,1998,2003,2009,2016,
            Gaussian, Inc.  All Rights Reserved.
  
 This is part of the Gaussian(R) 16 program.  It is based on
 the Gaussian(R) 09 system (copyright 2009, Gaussian, Inc.),
 the Gaussian(R) 03 system (copyright 2003, Gaussian, Inc.),
 the Gaussian(R) 98 system (copyright 1998, Gaussian, Inc.),
 the Gaussian(R) 94 system (copyright 1995, Gaussian, Inc.),
 the Gaussian 92(TM) system (copyright 1992, Gaussian, Inc.),
 the Gaussian 90(TM) system (copyright 1990, Gaussian, Inc.),
 the Gaussian 88(TM) system (copyright 1988, Gaussian, Inc.),
 the Gaussian 86(TM) system (copyright 1986, Carnegie Mellon
 University), and the Gaussian 82(TM) system (copyright 1983,
 Carnegie Mellon University). Gaussian is a federally registered
 trademark of Gaussian, Inc.
  
 This software contains proprietary and confidential information,
 including trade secrets, belonging to Gaussian, Inc.
  
 This software is provided under written license and may be
 used, copied, transmitted, or stored only in accord with that
 written license.
  
 The following legend is applicable only to US Government
 contracts under FAR:
  
                    RESTRICTED RIGHTS LEGEND
  
 Use, reproduction and disclosure by the US Government is
 subject to restrictions as set forth in subparagraphs (a)
 and (c) of the Commercial Computer Software - Restricted
 Rights clause in FAR 52.227-19.
  
 Gaussian, Inc.
 340 Quinnipiac St., Bldg. 40, Wallingford CT 06492
  
  
 ---------------------------------------------------------------
 Warning -- This program may not be used in any manner that
 competes with the business of Gaussian, Inc. or will provide
 assistance to any competitor of Gaussian, Inc.  The licensee
 of this program is prohibited from giving any competitor of
 Gaussian, Inc. access to this program.  By using this program,
 the user acknowledges that Gaussian, Inc. is engaged in the
 business of creating and licensing software in the field of
 computational chemistry and represents and warrants to the
 licensee that it is not a competitor of Gaussian, Inc. and that
 it will not use this program in any manner prohibited above.
 ---------------------------------------------------------------
  

 Cite this work as:
 Gaussian 16, Revision A.03,
 M. J. Frisch, G. W. Trucks, H. B. Schlegel, G. E. Scuseria, 
 M. A. Robb, J. R. Cheeseman, G. Scalmani, V. Barone, 
 G. A. Petersson, H. Nakatsuji, X. Li, M. Caricato, A. V. Marenich, 
 J. Bloino, B. G. Janesko, R. Gomperts, B. Mennucci, H. P. Hratchian, 
 J. V. Ortiz, A. F. Izmaylov, J. L. Sonnenberg, D. Williams-Young, 
 F. Ding, F. Lipparini, F. Egidi, J. Goings, B. Peng, A. Petrone, 
 T. Henderson, D. Ranasinghe, V. G. Zakrzewski, J. Gao, N. Rega, 
 G. Zheng, W. Liang, M. Hada, M. Ehara, K. Toyota, R. Fukuda, 
 J. Hasegawa, M. Ishida, T. Nakajima, Y. Honda, O. Kitao, H. Nakai, 
 T. Vreven, K. Throssell, J. A. Montgomery, Jr., J. E. Peralta, 
 F. Ogliaro, M. J. Bearpark, J. J. Heyd, E. N. Brothers, K. N. Kudin, 
 V. N. Staroverov, T. A. Keith, R. Kobayashi, J. Normand, 
 K. Raghavachari, A. P. Rendell, J. C. Burant, S. S. Iyengar, 
 J. Tomasi, M. Cossi, J. M. Millam, M. Klene, C. Adamo, R. Cammi, 
 J. W. Ochterski, R. L. Martin, K. Morokuma, O. Farkas, 
 J. B. Foresman, and D. J. Fox, Gaussian, Inc., Wallingford CT, 2016.
 
 ******************************************
 Gaussian 16:  ES64L-G16RevA.03 25-Dec-2016
                25-Jun-2021 
 ******************************************
 %nprocshared=28
 Will use up to   28 processors via shared memory.
 %mem=41GB
 %chk=nh3_nh3_mp2_avtz_opt_anharm.chk
 ----------------------------------------------
 # mp2/aug-cc-pVTZ opt freq=(vibrot,anharmonic)
 ----------------------------------------------
 1/18=20,19=15,38=1,80=1/1,3;
 2/9=110,12=2,17=6,18=5,40=1/2;
 3/5=16,6=1,7=10,11=9,25=1,30=1,71=1/1,2,3;
 4//1;
 5/5=2,38=5/2;
 8/6=4,10=1/1;
 9/15=2,16=-3/6;
 10/5=1/2;
 6/7=2,8=2,9=2,10=2/1;
 7/12=2/1,2,3,16;
 1/18=20,19=15,80=1/3(2);
 2/9=110/2;
 99//99;
 2/9=110/2;
 3/5=16,6=1,7=10,11=9,25=1,30=1,71=1/1,2,3;
 4/5=5,16=3,69=1/1;
 5/5=2,38=5/2;
 8/6=4,10=1/1;
 9/15=2,16=-3/6;
 10/5=1/2;
 7/12=2/1,2,3,16;
 1/18=20,19=15,80=1/3(-8);
 2/9=110/2;
 6/7=2,8=2,9=2,10=2/1;
 99//99;
 -----------
 NH3 --- NH3
 -----------
 Symbolic Z-matrix:
 Charge =  0 Multiplicity = 1
 N                    -0.02323   1.66788   0. 
 N                    -0.02323  -1.56628   0. 
 H                     0.27507   0.69627   0. 
 H                    -1.00762  -1.32667   0. 
 H                     0.39248   2.10867   0.81084 
 H                     0.39248   2.10867  -0.81084 
 H                     0.13641  -2.14909   0.81234 
 H                     0.13641  -2.14909  -0.81234 
 
 Add virtual bond connecting atoms H3         and N2         Dist= 4.31D+00.
 Add virtual bond connecting atoms H3         and H4         Dist= 4.53D+00.

 GradGradGradGradGradGradGradGradGradGradGradGradGradGradGradGradGradGrad
 Berny optimization.
 Initialization pass.
                           ----------------------------
                           !    Initial Parameters    !
                           ! (Angstroms and Degrees)  !
 --------------------------                            --------------------------
 ! Name  Definition              Value          Derivative Info.                !
 --------------------------------------------------------------------------------
 ! R1    R(1,3)                  1.0164         estimate D2E/DX2                !
 ! R2    R(1,5)                  1.0122         estimate D2E/DX2                !
 ! R3    R(1,6)                  1.0122         estimate D2E/DX2                !
 ! R4    R(2,3)                  2.2821         estimate D2E/DX2                !
 ! R5    R(2,4)                  1.0131         estimate D2E/DX2                !
 ! R6    R(2,7)                  1.0125         estimate D2E/DX2                !
 ! R7    R(2,8)                  1.0125         estimate D2E/DX2                !
 ! R8    R(3,4)                  2.3953         estimate D2E/DX2                !
 ! A1    A(3,1,5)              107.2028         estimate D2E/DX2                !
 ! A2    A(3,1,6)              107.2028         estimate D2E/DX2                !
 ! A3    A(5,1,6)              106.4626         estimate D2E/DX2                !
 ! A4    A(3,2,7)              123.3737         estimate D2E/DX2                !
 ! A5    A(3,2,8)              123.3737         estimate D2E/DX2                !
 ! A6    A(4,2,7)              106.8187         estimate D2E/DX2                !
 ! A7    A(4,2,8)              106.8187         estimate D2E/DX2                !
 ! A8    A(7,2,8)              106.7106         estimate D2E/DX2                !
 ! A9    A(1,3,2)              155.4221         estimate D2E/DX2                !
 ! A10   A(1,3,4)              130.5553         estimate D2E/DX2                !
 ! D1    D(5,1,3,2)            123.0103         estimate D2E/DX2                !
 ! D2    D(5,1,3,4)            123.0103         estimate D2E/DX2                !
 ! D3    D(6,1,3,2)           -123.0103         estimate D2E/DX2                !
 ! D4    D(6,1,3,4)           -123.0103         estimate D2E/DX2                !
 ! D5    D(7,2,3,1)           -106.0988         estimate D2E/DX2                !
 ! D6    D(8,2,3,1)            106.0988         estimate D2E/DX2                !
 --------------------------------------------------------------------------------
 Trust Radius=3.00D-01 FncErr=1.00D-07 GrdErr=1.00D-07 EigMax=2.50D+02 EigMin=1.00D-04
 Number of steps in this run=     34 maximum allowed number of steps=    100.
 GradGradGradGradGradGradGradGradGradGradGradGradGradGradGradGradGradGrad

                          Input orientation:                          
 ---------------------------------------------------------------------
 Center     Atomic      Atomic             Coordinates (Angstroms)
 Number     Number       Type             X           Y           Z
 ---------------------------------------------------------------------
      1          7           0       -0.023231    1.667884    0.000000
      2          7           0       -0.023231   -1.566277    0.000000
      3          1           0        0.275068    0.696268    0.000000
      4          1           0       -1.007619   -1.326674    0.000000
      5          1           0        0.392481    2.108669    0.810839
      6          1           0        0.392481    2.108669   -0.810839
      7          1           0        0.136411   -2.149091    0.812343
      8          1           0        0.136411   -2.149091   -0.812343
 ---------------------------------------------------------------------
                    Distance matrix (angstroms):
                    1          2          3          4          5
     1  N    0.000000
     2  N    3.234161   0.000000
     3  H    1.016376   2.282124   0.000000
     4  H    3.152205   1.013128   2.395325   0.000000
     5  H    1.012209   3.786226   1.632826   3.797278   0.000000
     6  H    1.012209   3.786226   1.632826   3.797278   1.621678
     7  H    3.905725   1.012452   2.962296   1.626369   4.265454
     8  H    3.905725   1.012452   2.962296   1.626369   4.563859
                    6          7          8
     6  H    0.000000
     7  H    4.563859   0.000000
     8  H    4.265454   1.624686   0.000000
 Stoichiometry    H6N2
 Framework group  CS[SG(H2N2),X(H4)]
 Deg. of freedom    11
 Full point group                 CS      NOp   2
 Largest Abelian subgroup         CS      NOp   2
 Largest concise Abelian subgroup CS      NOp   2
                         Standard orientation:                         
 ---------------------------------------------------------------------
 Center     Atomic      Atomic             Coordinates (Angstroms)
 Number     Number       Type             X           Y           Z
 ---------------------------------------------------------------------
      1          7           0       -0.023231    1.667884   -0.000000
      2          7           0       -0.023231   -1.566277    0.000000
      3          1           0        0.275068    0.696268    0.000000
      4          1           0       -1.007619   -1.326674   -0.000000
      5          1           0        0.392481    2.108669    0.810839
      6          1           0        0.392481    2.108669   -0.810839
      7          1           0        0.136411   -2.149091    0.812343
      8          1           0        0.136411   -2.149091   -0.812343
 ---------------------------------------------------------------------
 Rotational constants (GHZ):         125.0240113           5.3037952           5.2341202
 Standard basis: Aug-CC-pVTZ (5D, 7F)
 There are   160 symmetry adapted cartesian basis functions of A'  symmetry.
 There are   100 symmetry adapted cartesian basis functions of A"  symmetry.
 There are   138 symmetry adapted basis functions of A'  symmetry.
 There are    92 symmetry adapted basis functions of A"  symmetry.
   230 basis functions,   306 primitive gaussians,   260 cartesian basis functions
    10 alpha electrons       10 beta electrons
       nuclear repulsion energy        39.8943963843 Hartrees.
 NAtoms=    8 NActive=    8 NUniq=    6 SFac= 1.78D+00 NAtFMM=   60 NAOKFM=F Big=F
 Integral buffers will be    131072 words long.
 Raffenetti 1 integral format.
 Two-electron integral symmetry is turned on.
 One-electron integrals computed using PRISM.
 NBasis=   230 RedAO= T EigKep=  1.43D-04  NBF=   138    92
 NBsUse=   230 1.00D-06 EigRej= -1.00D+00 NBFU=   138    92
 ExpMin= 2.53D-02 ExpMax= 1.14D+04 ExpMxC= 3.89D+02 IAcc=3 IRadAn=         5 AccDes= 0.00D+00
 Harris functional with IExCor=  205 and IRadAn=       5 diagonalized for initial guess.
 HarFok:  IExCor=  205 AccDes= 0.00D+00 IRadAn=         5 IDoV= 1 UseB2=F ITyADJ=14
 ICtDFT=  3500011 ScaDFX=  1.000000  1.000000  1.000000  1.000000
 FoFCou: FMM=F IPFlag=           0 FMFlag=      100000 FMFlg1=           0
         NFxFlg=           0 DoJE=T BraDBF=F KetDBF=T FulRan=T
         wScrn=  0.000000 ICntrl=       500 IOpCl=  0 I1Cent=   200000004 NGrid=           0
         NMat0=    1 NMatS0=      1 NMatT0=    0 NMatD0=    1 NMtDS0=    0 NMtDT0=    0
 Petite list used in FoFCou.
 Initial guess orbital symmetries:
       Occupied  (A') (A') (A') (A') (A') (A") (A") (A') (A') (A')
       Virtual   (A') (A') (A") (A') (A") (A') (A") (A') (A') (A')
                 (A') (A') (A") (A") (A') (A') (A") (A') (A') (A")
                 (A') (A") (A') (A') (A') (A") (A') (A") (A') (A")
                 (A') (A") (A') (A') (A") (A') (A") (A') (A") (A')
                 (A') (A") (A') (A") (A') (A') (A") (A') (A") (A')
                 (A') (A') (A') (A') (A") (A') (A") (A') (A") (A')
                 (A") (A") (A') (A") (A') (A") (A') (A') (A") (A')
                 (A") (A') (A') (A") (A') (A") (A") (A') (A') (A")
                 (A') (A") (A') (A') (A") (A') (A") (A') (A') (A")
                 (A") (A') (A') (A') (A") (A') (A') (A") (A') (A")
                 (A') (A") (A') (A') (A") (A") (A') (A') (A") (A')
                 (A") (A') (A') (A") (A") (A') (A") (A') (A') (A')
                 (A') (A") (A") (A') (A") (A') (A") (A') (A') (A')
                 (A") (A') (A") (A') (A') (A') (A") (A') (A") (A')
                 (A') (A') (A") (A') (A") (A') (A") (A") (A') (A")
                 (A") (A") (A') (A') (A") (A") (A') (A") (A") (A')
                 (A') (A") (A') (A') (A") (A') (A') (A") (A') (A')
                 (A') (A") (A") (A') (A') (A') (A') (A") (A") (A')
                 (A") (A') (A") (A') (A') (A") (A") (A') (A') (A')
                 (A") (A') (A") (A') (A') (A') (A") (A') (A') (A")
                 (A') (A') (A') (A") (A") (A') (A") (A") (A') (A')
                 (A") (A") (A') (A') (A") (A') (A") (A') (A') (A')
 The electronic state of the initial guess is 1-A'.
 Keep R1 ints in memory in symmetry-blocked form, NReq=529702499.
 Requested convergence on RMS density matrix=1.00D-08 within 128 cycles.
 Requested convergence on MAX density matrix=1.00D-06.
 Requested convergence on             energy=1.00D-06.
 No special actions if energy rises.
 SCF Done:  E(RHF) =  -112.443024231     A.U. after   10 cycles
            NFock= 10  Conv=0.65D-08     -V/T= 2.0016
 ExpMin= 2.53D-02 ExpMax= 1.14D+04 ExpMxC= 3.89D+02 IAcc=3 IRadAn=         5 AccDes= 0.00D+00
 HarFok:  IExCor=  205 AccDes= 0.00D+00 IRadAn=         5 IDoV=-2 UseB2=F ITyADJ=14
 ICtDFT= 12500011 ScaDFX=  1.000000  1.000000  1.000000  1.000000
 Range of M.O.s used for correlation:     3   230
 NBasis=   230 NAE=    10 NBE=    10 NFC=     2 NFV=     0
 NROrb=    228 NOA=     8 NOB=     8 NVA=   220 NVB=   220

 **** Warning!!: The largest alpha MO coefficient is  0.19950696D+02

 Fully direct method using O(ONN) memory.
 JobTyp=1 Pass  1:  I=   3 to  10 NPSUse= 28 ParTrn=T ParDer=T DoDerP=T.
 Spin components of T(2) and E(2):
     alpha-alpha T2 =       0.1605089041D-01 E2=     -0.5380569639D-01
     alpha-beta  T2 =       0.1024817204D+00 E2=     -0.3756828767D+00
     beta-beta   T2 =       0.1605089041D-01 E2=     -0.5380569639D-01
 ANorm=    0.1065168297D+01
 E2 =    -0.4832942695D+00 EUMP2 =    -0.11292631850045D+03
          IDoAtm=11111111
          Differentiating once with respect to electric field.
                with respect to dipole field.
          Differentiating once with respect to nuclear coordinates.
 Keep R1 ints in memory in symmetry-blocked form, NReq=529704007.
          There are     1 degrees of freedom in the 1st order CPHF.  IDoFFX=0 NUNeed=     1.
 LinEq1:  Iter=  0 NonCon=     1 RMS=2.46D-03 Max=3.13D-02 NDo=     1
 AX will form     1 AO Fock derivatives at one time.
 LinEq1:  Iter=  1 NonCon=     1 RMS=7.37D-04 Max=8.27D-03 NDo=     1
 LinEq1:  Iter=  2 NonCon=     1 RMS=2.83D-04 Max=3.56D-03 NDo=     1
 LinEq1:  Iter=  3 NonCon=     1 RMS=3.33D-05 Max=2.35D-04 NDo=     1
 LinEq1:  Iter=  4 NonCon=     1 RMS=5.94D-06 Max=5.55D-05 NDo=     1
 LinEq1:  Iter=  5 NonCon=     1 RMS=1.36D-06 Max=1.37D-05 NDo=     1
 LinEq1:  Iter=  6 NonCon=     1 RMS=4.74D-07 Max=4.19D-06 NDo=     1
 LinEq1:  Iter=  7 NonCon=     1 RMS=1.34D-07 Max=1.27D-06 NDo=     1
 LinEq1:  Iter=  8 NonCon=     1 RMS=2.30D-08 Max=2.03D-07 NDo=     1
 LinEq1:  Iter=  9 NonCon=     1 RMS=4.49D-09 Max=4.00D-08 NDo=     1
 LinEq1:  Iter= 10 NonCon=     1 RMS=6.20D-10 Max=4.63D-09 NDo=     1
 LinEq1:  Iter= 11 NonCon=     0 RMS=8.06D-11 Max=8.98D-10 NDo=     1
 Linear equations converged to 1.000D-10 1.000D-09 after    11 iterations.
 End of Minotr F.D. properties file   721 does not exist.
 End of Minotr F.D. properties file   722 does not exist.
 End of Minotr F.D. properties file   788 does not exist.

 **********************************************************************

            Population analysis using the SCF density.

 **********************************************************************

 Orbital symmetries:
       Occupied  (A') (A') (A') (A') (A') (A") (A") (A') (A') (A')
       Virtual   (A') (A') (A") (A') (A") (A') (A') (A') (A") (A')
                 (A') (A') (A") (A') (A') (A") (A") (A") (A') (A')
                 (A") (A') (A') (A") (A') (A") (A') (A") (A') (A')
                 (A") (A') (A') (A") (A') (A") (A') (A') (A') (A")
                 (A') (A") (A') (A") (A') (A') (A") (A') (A") (A')
                 (A') (A') (A') (A') (A") (A') (A") (A') (A") (A")
                 (A") (A') (A') (A") (A") (A") (A') (A') (A') (A')
                 (A") (A") (A") (A') (A') (A") (A') (A') (A") (A')
                 (A") (A') (A') (A") (A') (A") (A') (A') (A') (A")
                 (A") (A') (A') (A") (A') (A') (A') (A") (A') (A")
                 (A") (A') (A') (A") (A') (A") (A') (A') (A") (A')
                 (A') (A") (A') (A") (A") (A") (A') (A') (A') (A')
                 (A") (A') (A") (A') (A") (A") (A') (A') (A') (A")
                 (A') (A') (A") (A') (A') (A') (A") (A') (A") (A')
                 (A") (A') (A') (A") (A') (A") (A') (A") (A') (A")
                 (A") (A') (A") (A") (A") (A') (A') (A") (A') (A")
                 (A') (A") (A') (A') (A') (A") (A") (A') (A') (A')
                 (A') (A") (A') (A") (A') (A') (A') (A") (A") (A')
                 (A") (A") (A") (A') (A') (A') (A") (A') (A') (A')
                 (A") (A') (A") (A') (A') (A') (A") (A') (A') (A")
                 (A') (A') (A') (A") (A") (A') (A") (A") (A') (A')
                 (A") (A') (A") (A') (A") (A') (A") (A') (A') (A')
 The electronic state is 1-A'.
 Alpha  occ. eigenvalues --  -15.54919 -15.51822  -1.15135  -1.11937  -0.63983
 Alpha  occ. eigenvalues --   -0.63699  -0.60750  -0.60584  -0.43958  -0.40750
 Alpha virt. eigenvalues --    0.02687   0.04374   0.04413   0.05304   0.06212
 Alpha virt. eigenvalues --    0.07424   0.13300   0.14283   0.15420   0.15627
 Alpha virt. eigenvalues --    0.16128   0.17747   0.18583   0.20096   0.21683
 Alpha virt. eigenvalues --    0.21870   0.22357   0.24978   0.25177   0.26379
 Alpha virt. eigenvalues --    0.31087   0.32469   0.34192   0.35615   0.36970
 Alpha virt. eigenvalues --    0.38099   0.38120   0.39124   0.39321   0.41388
 Alpha virt. eigenvalues --    0.42506   0.42530   0.44103   0.45577   0.45707
 Alpha virt. eigenvalues --    0.48033   0.48262   0.50671   0.52699   0.53463
 Alpha virt. eigenvalues --    0.54478   0.56734   0.60723   0.61096   0.64095
 Alpha virt. eigenvalues --    0.65902   0.67365   0.71078   0.77473   0.77805
 Alpha virt. eigenvalues --    0.78810   0.83482   0.85752   0.89188   0.89438
 Alpha virt. eigenvalues --    0.90836   0.91402   0.92226   0.92235   0.94206
 Alpha virt. eigenvalues --    0.95123   0.95221   0.98668   0.99309   1.02878
 Alpha virt. eigenvalues --    1.02925   1.03005   1.04528   1.04972   1.06316
 Alpha virt. eigenvalues --    1.07093   1.11113   1.11372   1.11450   1.11873
 Alpha virt. eigenvalues --    1.15164   1.15414   1.17039   1.17188   1.19412
 Alpha virt. eigenvalues --    1.19986   1.21617   1.25555   1.28037   1.28918
 Alpha virt. eigenvalues --    1.30603   1.30667   1.33373   1.35010   1.39223
 Alpha virt. eigenvalues --    1.40371   1.41237   1.50602   1.51870   1.54379
 Alpha virt. eigenvalues --    1.63993   1.66516   1.75042   1.75703   1.76155
 Alpha virt. eigenvalues --    1.78818   1.80665   1.85909   1.86584   1.90361
 Alpha virt. eigenvalues --    1.91812   1.92123   1.95364   1.95589   1.97438
 Alpha virt. eigenvalues --    2.05015   2.05469   2.05565   2.08402   2.10110
 Alpha virt. eigenvalues --    2.13907   2.15272   2.19273   2.21395   2.30074
 Alpha virt. eigenvalues --    2.32693   2.35732   2.38246   2.42624   2.43291
 Alpha virt. eigenvalues --    2.44409   2.45324   2.46409   2.48814   2.52528
 Alpha virt. eigenvalues --    2.53783   2.57550   2.63477   2.73126   3.42466
 Alpha virt. eigenvalues --    3.52964   3.60586   3.61795   3.69882   3.74656
 Alpha virt. eigenvalues --    3.97624   3.98309   4.02788   4.05120   4.11234
 Alpha virt. eigenvalues --    4.15843   4.16891   4.18745   4.19576   4.20955
 Alpha virt. eigenvalues --    4.23543   4.25472   4.25886   4.26800   4.30105
 Alpha virt. eigenvalues --    4.31117   4.33564   4.37818   4.38568   4.39490
 Alpha virt. eigenvalues --    4.43168   4.46584   4.48399   4.49471   4.55033
 Alpha virt. eigenvalues --    4.57884   4.62231   4.62291   4.63998   4.72039
 Alpha virt. eigenvalues --    4.73446   4.74928   4.78292   4.79031   4.82525
 Alpha virt. eigenvalues --    4.85438   4.94811   4.95628   4.96428   5.00263
 Alpha virt. eigenvalues --    5.01809   5.03725   5.07514   5.09146   5.12021
 Alpha virt. eigenvalues --    5.13420   5.16056   5.20447   5.32971   5.43163
 Alpha virt. eigenvalues --    5.66813   5.68303   5.73895   5.76055   5.80434
 Alpha virt. eigenvalues --    5.87337   5.91366   5.91959   5.95036   5.95114
 Alpha virt. eigenvalues --    6.10339   6.13394   6.30894   6.32611   6.33417
 Alpha virt. eigenvalues --    6.41016   6.42156   6.46487   6.64423   6.74693
 Alpha virt. eigenvalues --    6.94025   6.95667   6.97532   7.03254   7.72654
 Alpha virt. eigenvalues --    7.73499   7.74111   7.79535  17.42879  17.75364
          Condensed to atoms (all electrons):
               1          2          3          4          5          6
     1  N    6.661283  -0.002803   0.286381   0.001264   0.344155   0.344155
     2  N   -0.002803   6.529294  -0.004437   0.333512   0.000675   0.000675
     3  H    0.286381  -0.004437   0.400703   0.006562   0.009474   0.009474
     4  H    0.001264   0.333512   0.006562   0.467662   0.000097   0.000097
     5  H    0.344155   0.000675   0.009474   0.000097   0.474833   0.000561
     6  H    0.344155   0.000675   0.009474   0.000097   0.000561   0.474833
     7  H    0.000283   0.349881  -0.001781   0.001775  -0.000209  -0.000325
     8  H    0.000283   0.349881  -0.001781   0.001775  -0.000325  -0.000209
               7          8
     1  N    0.000283   0.000283
     2  N    0.349881   0.349881
     3  H   -0.001781  -0.001781
     4  H    0.001775   0.001775
     5  H   -0.000209  -0.000325
     6  H   -0.000325  -0.000209
     7  H    0.475787  -0.009185
     8  H   -0.009185   0.475787
 Mulliken charges:
               1
     1  N   -0.635002
     2  N   -0.556679
     3  H    0.295405
     4  H    0.187257
     5  H    0.170738
     6  H    0.170738
     7  H    0.183773
     8  H    0.183773
 Sum of Mulliken charges =  -0.00000
 Mulliken charges with hydrogens summed into heavy atoms:
               1
     1  N    0.001877
     2  N   -0.001877
 Electronic spatial extent (au):  <R**2>=            247.6325
 Charge=             -0.0000 electrons
 Dipole moment (field-independent basis, Debye):
    X=              0.6565    Y=             -1.8451    Z=             -0.0000  Tot=              1.9584
 Quadrupole moment (field-independent basis, Debye-Ang):
   XX=            -16.0238   YY=            -11.0882   ZZ=            -12.4913
   XY=              3.3335   XZ=             -0.0000   YZ=             -0.0000
 Traceless Quadrupole moment (field-independent basis, Debye-Ang):
   XX=             -2.8227   YY=              2.1129   ZZ=              0.7098
   XY=              3.3335   XZ=             -0.0000   YZ=             -0.0000
 Octapole moment (field-independent basis, Debye-Ang**2):
  XXX=             -0.9754  YYY=             -7.4798  ZZZ=             -0.0000  XYY=              7.5852
  XXY=             -3.2127  XXZ=             -0.0000  XZZ=              1.2306  YZZ=             -0.8327
  YYZ=             -0.0000  XYZ=              0.0000
 Hexadecapole moment (field-independent basis, Debye-Ang**3):
 XXXX=            -22.3329 YYYY=           -241.6156 ZZZZ=            -20.0852 XXXY=             -2.1374
 XXXZ=             -0.0000 YYYX=              1.9088 YYYZ=             -0.0000 ZZZX=             -0.0000
 ZZZY=             -0.0000 XXYY=            -52.7011 XXZZ=             -7.6531 YYZZ=            -34.1330
 XXYZ=             -0.0000 YYXZ=             -0.0000 ZZXY=             -0.3828
 N-N= 3.989439638435D+01 E-N=-3.435919873901D+02  KE= 1.122678895280D+02
 Symmetry A'   KE= 1.070534938415D+02
 Symmetry A"   KE= 5.214395686542D+00
 Calling FoFJK, ICntrl=  10002127 FMM=F ISym2X=1 I1Cent= 0 IOpClX= 0 NMat=1 NMatS=1 NMatT=0.
 ***** Axes restored to original set *****
 -------------------------------------------------------------------
 Center     Atomic                   Forces (Hartrees/Bohr)
 Number     Number              X              Y              Z
 -------------------------------------------------------------------
      1        7          -0.000002086    0.000002929    0.000000000
      2        7           0.000001190    0.000002808    0.000000000
      3        1          -0.000000351   -0.000000551   -0.000000000
      4        1           0.000000541    0.000000073   -0.000000000
      5        1           0.000000701   -0.000001491    0.000001521
      6        1           0.000000701   -0.000001491   -0.000001521
      7        1          -0.000000347   -0.000001138    0.000000315
      8        1          -0.000000347   -0.000001138   -0.000000315
 -------------------------------------------------------------------
 Cartesian Forces:  Max     0.000002929 RMS     0.000001225

 GradGradGradGradGradGradGradGradGradGradGradGradGradGradGradGradGradGrad
 Berny optimization.
 FormGI is forming the generalized inverse of G from B-inverse, IUseBI=4.
 Internal  Forces:  Max     0.000002959 RMS     0.000001125
 Search for a local minimum.
 Step number   1 out of a maximum of   34
 All quantities printed in internal units (Hartrees-Bohrs-Radians)
 Mixed Optimization -- En-DIIS/RFO-DIIS
 Second derivative matrix not updated -- first step.
 ITU=  0
     Eigenvalues ---    0.00307   0.00812   0.01697   0.02646   0.06281
     Eigenvalues ---    0.08897   0.13541   0.16000   0.16000   0.16000
     Eigenvalues ---    0.16000   0.20481   0.44510   0.44921   0.45564
     Eigenvalues ---    0.45564   0.45605   0.45605
 RFO step:  Lambda= 0.00000000D+00 EMin= 3.06794310D-03
 Linear search not attempted -- first point.
 Iteration  1 RMS(Cart)=  0.00001224 RMS(Int)=  0.00000000
 Iteration  2 RMS(Cart)=  0.00000000 RMS(Int)=  0.00000000
 ClnCor:  largest displacement from symmetrization is 6.65D-13 for atom     6.
 Variable       Old X    -DE/DX   Delta X   Delta X   Delta X     New X
                                 (Linear)    (Quad)   (Total)
    R1        1.92067   0.00000   0.00000   0.00000   0.00000   1.92067
    R2        1.91280   0.00000   0.00000   0.00000   0.00000   1.91280
    R3        1.91280   0.00000   0.00000   0.00000   0.00000   1.91280
    R4        4.31259  -0.00000   0.00000  -0.00001  -0.00001   4.31258
    R5        1.91454  -0.00000   0.00000  -0.00000  -0.00000   1.91453
    R6        1.91326   0.00000   0.00000   0.00000   0.00000   1.91326
    R7        1.91326   0.00000   0.00000   0.00000   0.00000   1.91326
    R8        4.52651  -0.00000   0.00000  -0.00004  -0.00004   4.52647
    A1        1.87104  -0.00000   0.00000  -0.00002  -0.00002   1.87102
    A2        1.87104  -0.00000   0.00000  -0.00002  -0.00002   1.87102
    A3        1.85812   0.00000   0.00000   0.00001   0.00001   1.85813
    A4        2.15328   0.00000   0.00000   0.00001   0.00001   2.15328
    A5        2.15328   0.00000   0.00000   0.00001   0.00001   2.15328
    A6        1.86434  -0.00000   0.00000  -0.00000  -0.00000   1.86433
    A7        1.86434  -0.00000   0.00000  -0.00000  -0.00000   1.86433
    A8        1.86245  -0.00000   0.00000  -0.00000  -0.00000   1.86245
    A9        2.71263   0.00000   0.00000   0.00001   0.00001   2.71263
   A10        2.27862   0.00000   0.00000   0.00000   0.00000   2.27862
    D1        2.14693   0.00000   0.00000   0.00000   0.00000   2.14694
    D2        2.14693   0.00000   0.00000   0.00000   0.00000   2.14694
    D3       -2.14693  -0.00000   0.00000  -0.00000  -0.00000  -2.14694
    D4       -2.14693  -0.00000   0.00000  -0.00000  -0.00000  -2.14694
    D5       -1.85177   0.00000   0.00000   0.00002   0.00002  -1.85176
    D6        1.85177  -0.00000   0.00000  -0.00002  -0.00002   1.85176
         Item               Value     Threshold  Converged?
 Maximum Force            0.000003     0.000450     YES
 RMS     Force            0.000001     0.000300     YES
 Maximum Displacement     0.000029     0.001800     YES
 RMS     Displacement     0.000012     0.001200     YES
 Predicted change in Energy=-1.072218D-10
 Optimization completed.
    -- Stationary point found.
                           ----------------------------
                           !   Optimized Parameters   !
                           ! (Angstroms and Degrees)  !
 --------------------------                            --------------------------
 ! Name  Definition              Value          Derivative Info.                !
 --------------------------------------------------------------------------------
 ! R1    R(1,3)                  1.0164         -DE/DX =    0.0                 !
 ! R2    R(1,5)                  1.0122         -DE/DX =    0.0                 !
 ! R3    R(1,6)                  1.0122         -DE/DX =    0.0                 !
 ! R4    R(2,3)                  2.2821         -DE/DX =    0.0                 !
 ! R5    R(2,4)                  1.0131         -DE/DX =    0.0                 !
 ! R6    R(2,7)                  1.0125         -DE/DX =    0.0                 !
 ! R7    R(2,8)                  1.0125         -DE/DX =    0.0                 !
 ! R8    R(3,4)                  2.3953         -DE/DX =    0.0                 !
 ! A1    A(3,1,5)              107.2028         -DE/DX =    0.0                 !
 ! A2    A(3,1,6)              107.2028         -DE/DX =    0.0                 !
 ! A3    A(5,1,6)              106.4626         -DE/DX =    0.0                 !
 ! A4    A(3,2,7)              123.3737         -DE/DX =    0.0                 !
 ! A5    A(3,2,8)              123.3737         -DE/DX =    0.0                 !
 ! A6    A(4,2,7)              106.8187         -DE/DX =    0.0                 !
 ! A7    A(4,2,8)              106.8187         -DE/DX =    0.0                 !
 ! A8    A(7,2,8)              106.7106         -DE/DX =    0.0                 !
 ! A9    A(1,3,2)              155.4221         -DE/DX =    0.0                 !
 ! A10   A(1,3,4)              130.5553         -DE/DX =    0.0                 !
 ! D1    D(5,1,3,2)            123.0103         -DE/DX =    0.0                 !
 ! D2    D(5,1,3,4)            123.0103         -DE/DX =    0.0                 !
 ! D3    D(6,1,3,2)           -123.0103         -DE/DX =    0.0                 !
 ! D4    D(6,1,3,4)           -123.0103         -DE/DX =    0.0                 !
 ! D5    D(7,2,3,1)           -106.0988         -DE/DX =    0.0                 !
 ! D6    D(8,2,3,1)            106.0988         -DE/DX =    0.0                 !
 --------------------------------------------------------------------------------
 GradGradGradGradGradGradGradGradGradGradGradGradGradGradGradGradGradGrad

                          Input orientation:                          
 ---------------------------------------------------------------------
 Center     Atomic      Atomic             Coordinates (Angstroms)
 Number     Number       Type             X           Y           Z
 ---------------------------------------------------------------------
      1          7           0       -0.023231    1.667884    0.000000
      2          7           0       -0.023231   -1.566277   -0.000000
      3          1           0        0.275068    0.696268    0.000000
      4          1           0       -1.007619   -1.326674   -0.000000
      5          1           0        0.392481    2.108669    0.810839
      6          1           0        0.392481    2.108669   -0.810839
      7          1           0        0.136411   -2.149091    0.812343
      8          1           0        0.136411   -2.149091   -0.812343
 ---------------------------------------------------------------------
                    Distance matrix (angstroms):
                    1          2          3          4          5
     1  N    0.000000
     2  N    3.234161   0.000000
     3  H    1.016376   2.282124   0.000000
     4  H    3.152205   1.013128   2.395325   0.000000
     5  H    1.012209   3.786226   1.632826   3.797278   0.000000
     6  H    1.012209   3.786226   1.632826   3.797278   1.621678
     7  H    3.905725   1.012452   2.962296   1.626369   4.265454
     8  H    3.905725   1.012452   2.962296   1.626369   4.563859
                    6          7          8
     6  H    0.000000
     7  H    4.563859   0.000000
     8  H    4.265454   1.624686   0.000000
 Stoichiometry    H6N2
 Framework group  CS[SG(H2N2),X(H4)]
 Deg. of freedom    11
 Full point group                 CS      NOp   2
 Largest Abelian subgroup         CS      NOp   2
 Largest concise Abelian subgroup CS      NOp   2
                         Standard orientation:                         
 ---------------------------------------------------------------------
 Center     Atomic      Atomic             Coordinates (Angstroms)
 Number     Number       Type             X           Y           Z
 ---------------------------------------------------------------------
      1          7           0       -0.023231    1.667884    0.000000
      2          7           0       -0.023231   -1.566277   -0.000000
      3          1           0        0.275068    0.696268    0.000000
      4          1           0       -1.007619   -1.326674   -0.000000
      5          1           0        0.392481    2.108669    0.810839
      6          1           0        0.392481    2.108669   -0.810839
      7          1           0        0.136411   -2.149091    0.812343
      8          1           0        0.136411   -2.149091   -0.812343
 ---------------------------------------------------------------------
 Rotational constants (GHZ):         125.0240113           5.3037952           5.2341202
 1\1\GINC-N2289\FOpt\RMP2-FC\Aug-CC-pVTZ\H6N2\GDS001\25-Jun-2021\0\\# m
 p2/aug-cc-pVTZ opt freq=(vibrot,anharmonic)\\NH3 --- NH3\\0,1\N,-0.023
 231,1.667884,0.\N,-0.023231,-1.566277,0.\H,0.275068,0.696268,0.\H,-1.0
 07619,-1.326674,0.\H,0.392481,2.108669,0.810839\H,0.392481,2.108669,-0
 .810839\H,0.136411,-2.149091,0.812343\H,0.136411,-2.149091,-0.812343\\
 Version=ES64L-G16RevA.03\State=1-A'\HF=-112.4430242\MP2=-112.9263185\R
 MSD=6.515e-09\RMSF=1.225e-06\Dipole=0.2439634,-0.7029941,0.\PG=CS [SG(
 H2N2),X(H4)]\\@


 "PERFECTION IS NOT AN ACCIDENT"
         --  EAGLE ELECTRIC MANUFACTURING CO.,INC. NY
 Job cpu time:       0 days  0 hours 10 minutes  5.0 seconds.
 Elapsed time:       0 days  0 hours  0 minutes 28.0 seconds.
 File lengths (MBytes):  RWF=     80 Int=      0 D2E=      0 Chk=     12 Scr=      8
 Normal termination of Gaussian 16 at Fri Jun 25 15:08:36 2021.
 Link1:  Proceeding to internal job step number  2.
 ----------------------------------------------------------------------
 #N Geom=AllCheck Guess=TCheck SCRF=Check GenChk RMP2(FC)/Aug-CC-pVTZ F
 req
 ----------------------------------------------------------------------
 1/10=4,29=7,30=1,38=21,40=1,80=1/1,6,3;
 2/12=2,40=1/2;
 3/5=16,6=1,7=10,11=1,14=-4,25=1,30=1,70=2,71=2,116=1,140=1/1,2,3;
 4/5=101,69=2/1;
 5/5=2,38=6,98=1/2;
 8/6=3,8=1,10=1,19=11,30=-1/1;
 9/15=3,16=-3/6;
 11/6=1,8=1,15=11,17=12,24=-1,27=1,28=-2,29=300,32=6,42=3/1,2,10;
 10/6=2,21=1,60=-2/2;
 8/6=4,8=1,10=1,19=11,30=-1/11,4;
 10/5=1,20=4,60=-2/2;
 11/12=2,14=11,16=1,17=2,28=-2,42=3/2,10,12;
 6/7=2,8=2,9=2,10=2,22=-1/1;
 7/10=1,12=2,25=1,44=2,70=1,71=2/1,2,3,16;
 1/38=20,80=1/6(3);
 7/8=1,25=202,44=-1,70=1,71=1,92=10/16,17;
 1/10=4,30=1,38=20,80=1/3;
 99//99;
 3/5=16,6=1,7=10,11=1,14=-2,25=1,30=1,70=5,71=2,116=1,140=1/1,2,3;
 4/5=5,16=3,69=2/1;
 5/5=2,38=5,98=1/2;
 8/6=3,8=1,10=1,19=11,30=-1/1;
 9/15=3,16=-3/6;
 11/6=1,8=1,15=11,17=12,24=-1,27=1,28=-2,29=300,32=6,42=3/1,2,10;
 10/6=2,21=1,60=-2/2;
 8/6=4,8=1,10=1,19=11,30=-1/11,4;
 10/5=1,20=4,60=-2/2;
 11/12=2,14=11,16=1,17=2,28=-2,42=3/2,10,12;
 6/7=2,8=2,9=2,10=2,22=-1/1;
 7/7=1,10=1,12=2,25=1,44=2,70=1,71=1/1,2,3,16;
 1/38=20,80=1/6(-12);
 7/8=1,25=202,44=-1,70=1,71=1,92=10/16,17;
 1/10=4,30=1,38=20,80=1/3;
 99//99;
 Structure from the checkpoint file:  "nh3_nh3_mp2_avtz_opt_anharm.chk"
 -----------
 NH3 --- NH3
 -----------
 Charge =  0 Multiplicity = 1
 Redundant internal coordinates found in file.  (old form).
 N,0,-0.023231,1.667884,0.
 N,0,-0.023231,-1.566277,0.
 H,0,0.275068,0.696268,0.
 H,0,-1.007619,-1.326674,0.
 H,0,0.392481,2.108669,0.810839
 H,0,0.392481,2.108669,-0.810839
 H,0,0.136411,-2.149091,0.812343
 H,0,0.136411,-2.149091,-0.812343
 Recover connectivity data from disk.
 Numerical evaluation of third derivatives.
 Nuclear step= 0.010000 Angstroms, electric field step= 0.000333 atomic units, NStep=1.

 GradGradGradGradGradGradGradGradGradGradGradGradGradGradGradGradGradGrad
 Berny optimization.
 Initialization pass.
                           ----------------------------
                           !    Initial Parameters    !
                           ! (Angstroms and Degrees)  !
 --------------------------                            --------------------------
 ! Name  Definition              Value          Derivative Info.                !
 --------------------------------------------------------------------------------
 ! R1    R(1,3)                  1.0164         calculate D2E/DX2 analytically  !
 ! R2    R(1,5)                  1.0122         calculate D2E/DX2 analytically  !
 ! R3    R(1,6)                  1.0122         calculate D2E/DX2 analytically  !
 ! R4    R(2,3)                  2.2821         calculate D2E/DX2 analytically  !
 ! R5    R(2,4)                  1.0131         calculate D2E/DX2 analytically  !
 ! R6    R(2,7)                  1.0125         calculate D2E/DX2 analytically  !
 ! R7    R(2,8)                  1.0125         calculate D2E/DX2 analytically  !
 ! R8    R(3,4)                  2.3953         calculate D2E/DX2 analytically  !
 ! A1    A(3,1,5)              107.2028         calculate D2E/DX2 analytically  !
 ! A2    A(3,1,6)              107.2028         calculate D2E/DX2 analytically  !
 ! A3    A(5,1,6)              106.4626         calculate D2E/DX2 analytically  !
 ! A4    A(3,2,7)              123.3737         calculate D2E/DX2 analytically  !
 ! A5    A(3,2,8)              123.3737         calculate D2E/DX2 analytically  !
 ! A6    A(4,2,7)              106.8187         calculate D2E/DX2 analytically  !
 ! A7    A(4,2,8)              106.8187         calculate D2E/DX2 analytically  !
 ! A8    A(7,2,8)              106.7106         calculate D2E/DX2 analytically  !
 ! A9    A(1,3,2)              155.4221         calculate D2E/DX2 analytically  !
 ! A10   A(1,3,4)              130.5553         calculate D2E/DX2 analytically  !
 ! D1    D(5,1,3,2)            123.0103         calculate D2E/DX2 analytically  !
 ! D2    D(5,1,3,4)            123.0103         calculate D2E/DX2 analytically  !
 ! D3    D(6,1,3,2)           -123.0103         calculate D2E/DX2 analytically  !
 ! D4    D(6,1,3,4)           -123.0103         calculate D2E/DX2 analytically  !
 ! D5    D(7,2,3,1)           -106.0988         calculate D2E/DX2 analytically  !
 ! D6    D(8,2,3,1)            106.0988         calculate D2E/DX2 analytically  !
 --------------------------------------------------------------------------------
 Trust Radius=3.00D-01 FncErr=1.00D-07 GrdErr=1.00D-07 EigMax=2.50D+02 EigMin=1.00D-04
 Number of steps in this run=      2 maximum allowed number of steps=      2.
 GradGradGradGradGradGradGradGradGradGradGradGradGradGradGradGradGradGrad

                          Input orientation:                          
 ---------------------------------------------------------------------
 Center     Atomic      Atomic             Coordinates (Angstroms)
 Number     Number       Type             X           Y           Z
 ---------------------------------------------------------------------
      1          7           0       -0.023231    1.667884    0.000000
      2          7           0       -0.023231   -1.566277   -0.000000
      3          1           0        0.275068    0.696268    0.000000
      4          1           0       -1.007619   -1.326674   -0.000000
      5          1           0        0.392481    2.108669    0.810839
      6          1           0        0.392481    2.108669   -0.810839
      7          1           0        0.136411   -2.149091    0.812343
      8          1           0        0.136411   -2.149091   -0.812343
 ---------------------------------------------------------------------
                    Distance matrix (angstroms):
                    1          2          3          4          5
     1  N    0.000000
     2  N    3.234161   0.000000
     3  H    1.016376   2.282124   0.000000
     4  H    3.152205   1.013128   2.395325   0.000000
     5  H    1.012209   3.786226   1.632826   3.797278   0.000000
     6  H    1.012209   3.786226   1.632826   3.797278   1.621678
     7  H    3.905725   1.012452   2.962296   1.626369   4.265454
     8  H    3.905725   1.012452   2.962296   1.626369   4.563859
                    6          7          8
     6  H    0.000000
     7  H    4.563859   0.000000
     8  H    4.265454   1.624686   0.000000
 Stoichiometry    H6N2
 Framework group  CS[SG(H2N2),X(H4)]
 Deg. of freedom    11
 Full point group                 CS      NOp   2
 Largest Abelian subgroup         CS      NOp   2
 Largest concise Abelian subgroup CS      NOp   2
                         Standard orientation:                         
 ---------------------------------------------------------------------
 Center     Atomic      Atomic             Coordinates (Angstroms)
 Number     Number       Type             X           Y           Z
 ---------------------------------------------------------------------
      1          7           0       -0.023231    1.667884   -0.000000
      2          7           0       -0.023231   -1.566277    0.000000
      3          1           0        0.275068    0.696268   -0.000000
      4          1           0       -1.007619   -1.326674    0.000000
      5          1           0        0.392481    2.108669    0.810839
      6          1           0        0.392481    2.108669   -0.810839
      7          1           0        0.136411   -2.149091    0.812343
      8          1           0        0.136411   -2.149091   -0.812343
 ---------------------------------------------------------------------
 Rotational constants (GHZ):         125.0240113           5.3037952           5.2341202
 Standard basis: Aug-CC-pVTZ (5D, 7F)
 There are   160 symmetry adapted cartesian basis functions of A'  symmetry.
 There are   100 symmetry adapted cartesian basis functions of A"  symmetry.
 There are   138 symmetry adapted basis functions of A'  symmetry.
 There are    92 symmetry adapted basis functions of A"  symmetry.
   230 basis functions,   306 primitive gaussians,   260 cartesian basis functions
    10 alpha electrons       10 beta electrons
       nuclear repulsion energy        39.8943963843 Hartrees.
 NAtoms=    8 NActive=    8 NUniq=    6 SFac= 1.78D+00 NAtFMM=   60 NAOKFM=F Big=F
 Integral buffers will be    131072 words long.
 Raffenetti 1 integral format.
 Two-electron integral symmetry is turned on.
 One-electron integrals computed using PRISM.
 NBasis=   230 RedAO= T EigKep=  1.43D-04  NBF=   138    92
 NBsUse=   230 1.00D-06 EigRej= -1.00D+00 NBFU=   138    92
 Initial guess from the checkpoint file:  "nh3_nh3_mp2_avtz_opt_anharm.chk"
 B after Tr=     0.000000    0.000000   -0.000000
         Rot=    1.000000   -0.000000   -0.000000    0.000000 Ang=   0.00 deg.
 Initial guess orbital symmetries:
       Occupied  (A') (A') (A') (A') (A') (A") (A") (A') (A') (A')
       Virtual   (A') (A') (A") (A') (A") (A') (A') (A') (A") (A')
                 (A') (A') (A") (A') (A') (A") (A") (A") (A') (A')
                 (A") (A') (A') (A") (A') (A") (A') (A") (A') (A')
                 (A") (A') (A') (A") (A') (A") (A') (A') (A') (A")
                 (A') (A") (A') (A") (A') (A') (A") (A') (A") (A')
                 (A') (A') (A') (A') (A") (A') (A") (A') (A") (A")
                 (A") (A') (A') (A") (A") (A") (A') (A') (A') (A')
                 (A") (A") (A") (A') (A') (A") (A') (A') (A") (A')
                 (A") (A') (A') (A") (A') (A") (A') (A') (A') (A")
                 (A") (A') (A') (A") (A') (A') (A') (A") (A') (A")
                 (A") (A') (A') (A") (A') (A") (A') (A') (A") (A')
                 (A') (A") (A') (A") (A") (A") (A') (A') (A') (A')
                 (A") (A') (A") (A') (A") (A") (A') (A') (A') (A")
                 (A') (A') (A") (A') (A') (A') (A") (A') (A") (A')
                 (A") (A') (A') (A") (A') (A") (A') (A") (A') (A")
                 (A") (A') (A") (A") (A") (A') (A') (A") (A') (A")
                 (A') (A") (A') (A') (A') (A") (A") (A') (A') (A')
                 (A') (A") (A') (A") (A') (A') (A') (A") (A") (A')
                 (A") (A") (A") (A') (A') (A') (A") (A') (A') (A')
                 (A") (A') (A") (A') (A') (A') (A") (A') (A') (A")
                 (A') (A') (A') (A") (A") (A') (A") (A") (A') (A')
                 (A") (A') (A") (A') (A") (A') (A") (A') (A') (A')
 Keep R1 ints in memory in symmetry-blocked form, NReq=529702499.
 Requested convergence on RMS density matrix=1.00D-08 within 128 cycles.
 Requested convergence on MAX density matrix=1.00D-06.
 Requested convergence on             energy=1.00D-06.
 No special actions if energy rises.
 SCF Done:  E(RHF) =  -112.443024231     A.U. after    1 cycles
            NFock=  1  Conv=0.88D-09     -V/T= 2.0016
 ExpMin= 2.53D-02 ExpMax= 1.14D+04 ExpMxC= 3.89D+02 IAcc=3 IRadAn=         5 AccDes= 0.00D+00
 HarFok:  IExCor=  205 AccDes= 0.00D+00 IRadAn=         5 IDoV=-2 UseB2=F ITyADJ=14
 ICtDFT= 12500011 ScaDFX=  1.000000  1.000000  1.000000  1.000000
 Range of M.O.s used for correlation:     3   230
 NBasis=   230 NAE=    10 NBE=    10 NFC=     2 NFV=     0
 NROrb=    228 NOA=     8 NOB=     8 NVA=   220 NVB=   220

 **** Warning!!: The largest alpha MO coefficient is  0.19950706D+02

 Disk-based method using ON**2 memory for  8 occupieds at a time.
 Permanent disk used for amplitudes=     5924050 words.
 Estimated scratch disk usage=   172428720 words.
 Actual    scratch disk usage=   168758704 words.
 JobTyp=1 Pass  1:  I=   3 to  10 NPSUse= 28 ParTrn=T ParDer=T DoDerP=T.
 (rs|ai) integrals will be sorted in core.
 Spin components of T(2) and E(2):
     alpha-alpha T2 =       0.1605089097D-01 E2=     -0.5380569696D-01
     alpha-beta  T2 =       0.1024817241D+00 E2=     -0.3756828799D+00
     beta-beta   T2 =       0.1605089097D-01 E2=     -0.5380569696D-01
 ANorm=    0.1065168299D+01
 E2 =    -0.4832942738D+00 EUMP2 =    -0.11292631850472D+03
 G2DrvN: will do     9 centers at a time, making    1 passes.
 Calling FoFCou, ICntrl=  3107 FMM=F I1Cent=   0 AccDes= 0.00D+00.
 End of G2Drv F.D. properties file   721 does not exist.
 End of G2Drv F.D. properties file   722 does not exist.
 End of G2Drv F.D. properties file   788 does not exist.
          IDoAtm=11111111
          Differentiating once with respect to electric field.
                with respect to dipole field.
          Differentiating once with respect to nuclear coordinates.
 Keep R1 ints in memory in symmetry-blocked form, NReq=529704007.
          There are    27 degrees of freedom in the 1st order CPHF.  IDoFFX=6 NUNeed=    27.
     24 vectors produced by pass  0 Test12= 8.15D-15 3.70D-09 XBig12= 6.28D+00 6.52D-01.
 AX will form    24 AO Fock derivatives at one time.
     24 vectors produced by pass  1 Test12= 8.15D-15 3.70D-09 XBig12= 2.46D-01 1.25D-01.
     24 vectors produced by pass  2 Test12= 8.15D-15 3.70D-09 XBig12= 5.36D-03 1.81D-02.
     24 vectors produced by pass  3 Test12= 8.15D-15 3.70D-09 XBig12= 5.76D-05 1.01D-03.
     24 vectors produced by pass  4 Test12= 8.15D-15 3.70D-09 XBig12= 4.24D-07 1.23D-04.
     24 vectors produced by pass  5 Test12= 8.15D-15 3.70D-09 XBig12= 3.14D-09 8.40D-06.
     20 vectors produced by pass  6 Test12= 8.15D-15 3.70D-09 XBig12= 1.58D-11 7.59D-07.
      4 vectors produced by pass  7 Test12= 8.15D-15 3.70D-09 XBig12= 9.66D-14 6.44D-08.
      1 vectors produced by pass  8 Test12= 8.15D-15 3.70D-09 XBig12= 5.32D-16 3.78D-09.
 InvSVY:  IOpt=1 It=  1 EMax= 4.00D-15
 Solved reduced A of dimension   169 with    27 vectors.
 End of Minotr F.D. properties file   721 does not exist.
 End of Minotr F.D. properties file   722 does not exist.
 End of Minotr F.D. properties file   788 does not exist.
 MDV=  5502926848.
 Form MO integral derivatives with frozen-active canonical formalism.
 Discarding MO integrals.
 Reordered first order wavefunction length =      9680000
 In DefCFB: NBatch=  1 ICI= 10 ICA=220 LFMax= 74
            Large arrays: LIAPS=   526240000 LIARS=   220220000 words.
 Semi-Direct transformation.
 ModeAB=           4 MOrb=            10 LenV=    5501501599
 LASXX=     59022085 LTotXX=    59022085 LenRXX=   118805160
 LTotAB=    59783075 MaxLAS=    54250100 LenRXY=           0
 NonZer=   177827245 LenScr=   266862592 LnRSAI=    54250100
 LnScr1=    81788928 LExtra=           0 Total=    521706780
 MaxDsk=          -1 SrtSym=           T ITran=            4
 JobTyp=0 Pass  1:  I=   1 to  10.
 (rs|ai) integrals will be sorted in core.
 Spin components of T(2) and E(2):
     alpha-alpha T2 =       0.1605089097D-01 E2=     -0.5380569696D-01
     alpha-beta  T2 =       0.1024817241D+00 E2=     -0.3756828799D+00
     beta-beta   T2 =       0.1605089097D-01 E2=     -0.5380569696D-01
 ANorm=    0.1506375455D+01
 E2 =    -0.4832942738D+00 EUMP2 =    -0.11292631850472D+03
          IDoAtm=11111111
          Differentiating once with respect to electric field.
                with respect to dipole field.
          Differentiating once with respect to nuclear coordinates.
          There are     1 degrees of freedom in the 1st order CPHF.  IDoFFX=0 NUNeed=     1.
 LinEq1:  Iter=  0 NonCon=     1 RMS=2.46D-03 Max=3.13D-02 NDo=     1
 LinEq1:  Iter=  1 NonCon=     1 RMS=7.37D-04 Max=8.27D-03 NDo=     1
 LinEq1:  Iter=  2 NonCon=     1 RMS=2.83D-04 Max=3.56D-03 NDo=     1
 LinEq1:  Iter=  3 NonCon=     1 RMS=3.33D-05 Max=2.35D-04 NDo=     1
 LinEq1:  Iter=  4 NonCon=     1 RMS=5.94D-06 Max=5.55D-05 NDo=     1
 LinEq1:  Iter=  5 NonCon=     1 RMS=1.36D-06 Max=1.37D-05 NDo=     1
 LinEq1:  Iter=  6 NonCon=     1 RMS=4.74D-07 Max=4.19D-06 NDo=     1
 LinEq1:  Iter=  7 NonCon=     1 RMS=1.34D-07 Max=1.27D-06 NDo=     1
 LinEq1:  Iter=  8 NonCon=     1 RMS=2.30D-08 Max=2.03D-07 NDo=     1
 LinEq1:  Iter=  9 NonCon=     1 RMS=4.49D-09 Max=4.00D-08 NDo=     1
 LinEq1:  Iter= 10 NonCon=     1 RMS=6.20D-10 Max=4.63D-09 NDo=     1
 LinEq1:  Iter= 11 NonCon=     0 RMS=8.06D-11 Max=8.98D-10 NDo=     1
 Linear equations converged to 1.000D-10 1.000D-09 after    11 iterations.
 End of Minotr F.D. properties file   721 does not exist.
 End of Minotr F.D. properties file   722 does not exist.
 End of Minotr F.D. properties file   788 does not exist.
 Symmetrizing basis deriv contribution to polar:
 IMax=3 JMax=2 DiffMx= 0.00D+00
 G2DrvN: will do     9 centers at a time, making    1 passes.
 Calling FoFCou, ICntrl=  3107 FMM=F I1Cent=   0 AccDes= 0.00D+00.
 End of G2Drv F.D. properties file   721 does not exist.
 End of G2Drv F.D. properties file   722 does not exist.
 End of G2Drv F.D. properties file   788 does not exist.
 R2 and R3 integrals will be kept in memory, NReq=  1160168490.
 DD1Dir will call FoFMem   1 times, MxPair=       110
 NAB=    55 NAA=     0 NBB=     0.
 Discarding MO integrals.

 **********************************************************************

            Population analysis using the MP2 density.

 **********************************************************************

 Orbital symmetries:
       Occupied  (A') (A') (A') (A') (A') (A") (A") (A') (A') (A')
       Virtual   (A') (A') (A") (A') (A") (A') (A') (A') (A") (A')
                 (A') (A') (A") (A') (A') (A") (A") (A") (A') (A')
                 (A") (A') (A') (A") (A') (A") (A') (A") (A') (A')
                 (A") (A') (A') (A") (A') (A") (A') (A') (A') (A")
                 (A') (A") (A') (A") (A') (A') (A") (A') (A") (A')
                 (A') (A') (A') (A') (A") (A') (A") (A') (A") (A")
                 (A") (A') (A') (A") (A") (A") (A') (A') (A') (A')
                 (A") (A") (A") (A') (A') (A") (A') (A') (A") (A')
                 (A") (A') (A') (A") (A') (A") (A') (A') (A') (A")
                 (A") (A') (A') (A") (A') (A') (A') (A") (A') (A")
                 (A") (A') (A') (A") (A') (A") (A') (A') (A") (A')
                 (A') (A") (A') (A") (A") (A") (A') (A') (A') (A')
                 (A") (A') (A") (A') (A") (A") (A') (A') (A') (A")
                 (A') (A') (A") (A') (A') (A') (A") (A') (A") (A')
                 (A") (A') (A') (A") (A') (A") (A') (A") (A') (A")
                 (A") (A') (A") (A") (A") (A') (A') (A") (A') (A")
                 (A') (A") (A') (A') (A') (A") (A") (A') (A') (A')
                 (A') (A") (A') (A") (A') (A') (A') (A") (A") (A')
                 (A") (A") (A") (A') (A') (A') (A") (A') (A') (A')
                 (A") (A') (A") (A') (A') (A') (A") (A') (A') (A")
                 (A') (A') (A') (A") (A") (A') (A") (A") (A') (A')
                 (A") (A') (A") (A') (A") (A') (A") (A') (A') (A')
 The electronic state is 1-A'.
 Alpha  occ. eigenvalues --  -15.54919 -15.51822  -1.15135  -1.11937  -0.63983
 Alpha  occ. eigenvalues --   -0.63699  -0.60750  -0.60584  -0.43958  -0.40750
 Alpha virt. eigenvalues --    0.02687   0.04374   0.04413   0.05304   0.06212
 Alpha virt. eigenvalues --    0.07424   0.13300   0.14283   0.15420   0.15627
 Alpha virt. eigenvalues --    0.16128   0.17747   0.18583   0.20096   0.21683
 Alpha virt. eigenvalues --    0.21870   0.22357   0.24978   0.25177   0.26379
 Alpha virt. eigenvalues --    0.31087   0.32469   0.34192   0.35615   0.36970
 Alpha virt. eigenvalues --    0.38099   0.38120   0.39124   0.39321   0.41388
 Alpha virt. eigenvalues --    0.42506   0.42530   0.44103   0.45577   0.45707
 Alpha virt. eigenvalues --    0.48033   0.48262   0.50671   0.52699   0.53463
 Alpha virt. eigenvalues --    0.54478   0.56734   0.60723   0.61096   0.64095
 Alpha virt. eigenvalues --    0.65902   0.67365   0.71078   0.77473   0.77805
 Alpha virt. eigenvalues --    0.78810   0.83482   0.85752   0.89188   0.89438
 Alpha virt. eigenvalues --    0.90836   0.91402   0.92226   0.92235   0.94206
 Alpha virt. eigenvalues --    0.95123   0.95221   0.98668   0.99309   1.02878
 Alpha virt. eigenvalues --    1.02925   1.03005   1.04528   1.04972   1.06316
 Alpha virt. eigenvalues --    1.07093   1.11113   1.11372   1.11450   1.11873
 Alpha virt. eigenvalues --    1.15164   1.15414   1.17039   1.17188   1.19412
 Alpha virt. eigenvalues --    1.19986   1.21617   1.25555   1.28037   1.28918
 Alpha virt. eigenvalues --    1.30603   1.30667   1.33373   1.35010   1.39223
 Alpha virt. eigenvalues --    1.40371   1.41237   1.50602   1.51870   1.54379
 Alpha virt. eigenvalues --    1.63993   1.66516   1.75042   1.75703   1.76155
 Alpha virt. eigenvalues --    1.78818   1.80665   1.85909   1.86584   1.90361
 Alpha virt. eigenvalues --    1.91812   1.92123   1.95364   1.95589   1.97438
 Alpha virt. eigenvalues --    2.05015   2.05469   2.05565   2.08402   2.10110
 Alpha virt. eigenvalues --    2.13907   2.15272   2.19273   2.21395   2.30074
 Alpha virt. eigenvalues --    2.32693   2.35732   2.38246   2.42624   2.43291
 Alpha virt. eigenvalues --    2.44409   2.45324   2.46409   2.48814   2.52528
 Alpha virt. eigenvalues --    2.53783   2.57550   2.63477   2.73126   3.42466
 Alpha virt. eigenvalues --    3.52964   3.60586   3.61795   3.69882   3.74656
 Alpha virt. eigenvalues --    3.97624   3.98309   4.02788   4.05120   4.11234
 Alpha virt. eigenvalues --    4.15843   4.16891   4.18745   4.19576   4.20955
 Alpha virt. eigenvalues --    4.23543   4.25472   4.25886   4.26800   4.30105
 Alpha virt. eigenvalues --    4.31117   4.33564   4.37818   4.38568   4.39490
 Alpha virt. eigenvalues --    4.43168   4.46584   4.48399   4.49471   4.55033
 Alpha virt. eigenvalues --    4.57884   4.62231   4.62291   4.63998   4.72039
 Alpha virt. eigenvalues --    4.73446   4.74928   4.78292   4.79031   4.82525
 Alpha virt. eigenvalues --    4.85438   4.94811   4.95628   4.96428   5.00263
 Alpha virt. eigenvalues --    5.01809   5.03725   5.07514   5.09146   5.12021
 Alpha virt. eigenvalues --    5.13420   5.16056   5.20447   5.32971   5.43163
 Alpha virt. eigenvalues --    5.66813   5.68303   5.73895   5.76055   5.80434
 Alpha virt. eigenvalues --    5.87337   5.91366   5.91959   5.95036   5.95114
 Alpha virt. eigenvalues --    6.10339   6.13394   6.30894   6.32611   6.33417
 Alpha virt. eigenvalues --    6.41016   6.42156   6.46487   6.64423   6.74693
 Alpha virt. eigenvalues --    6.94025   6.95667   6.97532   7.03254   7.72654
 Alpha virt. eigenvalues --    7.73499   7.74111   7.79535  17.42879  17.75364
          Condensed to atoms (all electrons):
               1          2          3          4          5          6
     1  N    6.865603  -0.006752   0.197998   0.002230   0.290196   0.290196
     2  N   -0.006752   6.755848   0.003429   0.241106   0.001604   0.001604
     3  H    0.197998   0.003429   0.513785   0.004543   0.000586   0.000586
     4  H    0.002230   0.241106   0.004543   0.560162  -0.000010  -0.000010
     5  H    0.290196   0.001604   0.000586  -0.000010   0.541111  -0.006467
     6  H    0.290196   0.001604   0.000586  -0.000010  -0.006467   0.541111
     7  H    0.000984   0.282780  -0.002428  -0.001501  -0.000180  -0.000426
     8  H    0.000984   0.282780  -0.002428  -0.001501  -0.000426  -0.000180
               7          8
     1  N    0.000984   0.000984
     2  N    0.282780   0.282780
     3  H   -0.002428  -0.002428
     4  H   -0.001501  -0.001501
     5  H   -0.000180  -0.000426
     6  H   -0.000426  -0.000180
     7  H    0.555262  -0.023368
     8  H   -0.023368   0.555262
 Mulliken charges:
               1
     1  N   -0.641438
     2  N   -0.562398
     3  H    0.283929
     4  H    0.194982
     5  H    0.173584
     6  H    0.173584
     7  H    0.188878
     8  H    0.188878
 Sum of Mulliken charges =  -0.00000
 Mulliken charges with hydrogens summed into heavy atoms:
               1
     1  N   -0.010339
     2  N    0.010339
 APT charges:
               1
     1  N   -0.482156
     2  N   -0.457547
     3  H    0.219966
     4  H    0.165302
     5  H    0.132538
     6  H    0.132538
     7  H    0.144679
     8  H    0.144679
 Sum of APT charges =  -0.00000
 APT charges with hydrogens summed into heavy atoms:
               1
     1  N    0.002886
     2  N   -0.002886
 Electronic spatial extent (au):  <R**2>=            248.6521
 Charge=             -0.0000 electrons
 Dipole moment (field-independent basis, Debye):
    X=              0.6201    Y=             -1.7868    Z=             -0.0000  Tot=              1.8914
 Quadrupole moment (field-independent basis, Debye-Ang):
   XX=            -16.5304   YY=            -11.6303   ZZ=            -12.8140
   XY=              3.0680   XZ=              0.0000   YZ=             -0.0000
 Traceless Quadrupole moment (field-independent basis, Debye-Ang):
   XX=             -2.8722   YY=              2.0279   ZZ=              0.8443
   XY=              3.0680   XZ=              0.0000   YZ=             -0.0000
 Octapole moment (field-independent basis, Debye-Ang**2):
  XXX=             -1.0837  YYY=             -6.5648  ZZZ=             -0.0000  XYY=              7.7279
  XXY=             -3.3378  XXZ=             -0.0000  XZZ=              1.2225  YZZ=             -0.8354
  YYZ=             -0.0000  XYZ=              0.0000
 Hexadecapole moment (field-independent basis, Debye-Ang**3):
 XXXX=            -24.7175 YYYY=           -251.7664 ZZZZ=            -21.3720 XXXY=             -2.8702
 XXXZ=              0.0000 YYYX=              0.2688 YYYZ=             -0.0000 ZZZX=              0.0000
 ZZZY=             -0.0000 XXYY=            -54.9256 XXZZ=             -8.2763 YYZZ=            -35.6343
 XXYZ=             -0.0000 YYXZ=             -0.0000 ZZXY=             -0.5756
 N-N= 3.989439638435D+01 E-N=-3.438042462749D+02  KE= 1.128134263314D+02
 Symmetry A'   KE= 1.073651957606D+02
 Symmetry A"   KE= 5.448230570789D+00
  Exact polarizability:  28.354   1.274  31.490  -0.000   0.000  26.208
 Approx polarizability:  21.395   0.130  21.547   0.000  -0.000  21.676
 Calling FoFJK, ICntrl=  10100127 FMM=F ISym2X=1 I1Cent= 0 IOpClX= 0 NMat=1 NMatS=1 NMatT=0.
 Full mass-weighted force constant matrix:
 Low frequencies ---   -3.2172   -0.2314   -0.0004    0.0006    0.0008    0.4774
 Low frequencies ---   48.2028   62.4244  109.2972
 Diagonal vibrational polarizability:
      147.0418175     554.3613368     158.1623866
 Harmonic frequencies (cm**-1), IR intensities (KM/Mole), Raman scattering
 activities (A**4/AMU), depolarization ratios for plane and unpolarized
 incident light, reduced masses (AMU), force constants (mDyne/A),
 and normal coordinates:
                      1                      2                      3
                     A"                     A'                     A"
 Frequencies --     48.2022                62.4244               109.2972
 Red. masses --      1.0603                 1.1699                 1.0246
 Frc consts  --      0.0015                 0.0027                 0.0072
 IR Inten    --      2.8234                95.6553                46.7927
  Atom  AN      X      Y      Z        X      Y      Z        X      Y      Z
     1   7     0.00   0.00   0.05    -0.01  -0.09   0.00     0.00   0.00   0.03
     2   7    -0.00  -0.00  -0.04     0.05   0.04  -0.00    -0.00  -0.00   0.02
     3   1    -0.00  -0.00  -0.10     0.37   0.03   0.00    -0.00   0.00   0.33
     4   1    -0.00  -0.00  -0.36     0.21   0.70  -0.00    -0.00  -0.00  -0.17
     5   1     0.37  -0.01  -0.13    -0.19   0.07   0.00     0.23   0.34  -0.28
     6   1    -0.37   0.01  -0.13    -0.19   0.07  -0.00    -0.23  -0.34  -0.28
     7   1    -0.17   0.41   0.29    -0.34  -0.07  -0.00    -0.24  -0.32  -0.16
     8   1     0.17  -0.41   0.29    -0.34  -0.07   0.00     0.24   0.32  -0.16
                      4                      5                      6
                     A'                     A"                     A'
 Frequencies --    141.2226               241.4393               393.5753
 Red. masses --      3.1604                 1.0619                 1.0929
 Frc consts  --      0.0371                 0.0365                 0.0997
 IR Inten    --     20.4185                42.9053                35.6258
  Atom  AN      X      Y      Z        X      Y      Z        X      Y      Z
     1   7     0.00  -0.27   0.00     0.00  -0.00   0.01     0.04  -0.04   0.00
     2   7    -0.02   0.30   0.00    -0.00   0.00  -0.06    -0.06   0.01   0.00
     3   1    -0.19  -0.33   0.00     0.00   0.00   0.50     0.62   0.14  -0.00
     4   1    -0.13  -0.14  -0.00    -0.00  -0.00   0.13    -0.14  -0.35  -0.00
     5   1     0.08  -0.35  -0.00    -0.24   0.39  -0.08    -0.32   0.28   0.01
     6   1     0.08  -0.35   0.00     0.24  -0.39  -0.08    -0.32   0.28  -0.01
     7   1     0.24   0.38   0.00     0.23   0.29   0.10     0.18   0.07  -0.00
     8   1     0.24   0.38  -0.00    -0.23  -0.29   0.10     0.18   0.07   0.00
                      7                      8                      9
                     A'                     A'                     A'
 Frequencies --   1059.7187              1073.1869              1660.6015
 Red. masses --      1.1795                 1.1672                 1.0661
 Frc consts  --      0.7804                 0.7920                 1.7321
 IR Inten    --    222.9140                50.7894                14.5475
  Atom  AN      X      Y      Z        X      Y      Z        X      Y      Z
     1   7    -0.08   0.00  -0.00    -0.08   0.00   0.00    -0.01  -0.05   0.00
     2   7    -0.05  -0.07  -0.00     0.04   0.06  -0.00     0.04  -0.03   0.00
     3   1     0.41   0.12  -0.00     0.47   0.14  -0.00    -0.19  -0.09  -0.00
     4   1     0.10   0.39   0.00    -0.11  -0.40  -0.00    -0.02  -0.19  -0.00
     5   1     0.33  -0.08  -0.12     0.36  -0.08  -0.13     0.13   0.37  -0.28
     6   1     0.33  -0.08   0.12     0.36  -0.08   0.13     0.13   0.37   0.28
     7   1     0.31   0.28   0.13    -0.24  -0.25  -0.12    -0.25   0.29   0.27
     8   1     0.31   0.28  -0.13    -0.24  -0.25   0.12    -0.25   0.29  -0.27
                     10                     11                     12
                     A"                     A'                     A"
 Frequencies --   1670.2745              1674.2932              1692.4634
 Red. masses --      1.0658                 1.0613                 1.0659
 Frc consts  --      1.7518                 1.7529                 1.7989
 IR Inten    --     13.0662                 7.9564                 8.7089
  Atom  AN      X      Y      Z        X      Y      Z        X      Y      Z
     1   7    -0.00  -0.00   0.00    -0.00  -0.04   0.00    -0.00  -0.00  -0.07
     2   7     0.00  -0.00  -0.07    -0.04   0.03  -0.00    -0.00   0.00  -0.01
     3   1    -0.00  -0.00  -0.03    -0.21  -0.09  -0.00    -0.00  -0.00   0.79
     4   1    -0.00  -0.00   0.76     0.03   0.22   0.00     0.00   0.00   0.04
     5   1    -0.01   0.02  -0.00     0.12   0.36  -0.27     0.18  -0.39   0.08
     6   1     0.01  -0.02  -0.00     0.12   0.36   0.27    -0.18   0.39   0.08
     7   1    -0.44   0.05   0.08     0.25  -0.30  -0.28    -0.01   0.01   0.01
     8   1     0.44  -0.05   0.08     0.25  -0.30   0.28     0.01  -0.01   0.01
                     13                     14                     15
                     A'                     A'                     A'
 Frequencies --   3467.0440              3497.0116              3609.2445
 Red. masses --      1.0305                 1.0266                 1.0865
 Frc consts  --      7.2984                 7.3967                 8.3387
 IR Inten    --     67.5664                 3.8075                66.3860
  Atom  AN      X      Y      Z        X      Y      Z        X      Y      Z
     1   7     0.03  -0.02  -0.00    -0.00   0.00   0.00    -0.02  -0.08   0.00
     2   7    -0.00  -0.00   0.00    -0.02  -0.03  -0.00    -0.00   0.00  -0.00
     3   1    -0.18   0.73  -0.00     0.01  -0.06   0.00    -0.19   0.61   0.00
     4   1     0.06  -0.02   0.00     0.57  -0.18  -0.00    -0.00   0.00  -0.00
     5   1    -0.15  -0.21  -0.38     0.02   0.02   0.04     0.21   0.22   0.45
     6   1    -0.15  -0.21   0.38     0.02   0.02  -0.04     0.21   0.22  -0.45
     7   1    -0.01   0.03  -0.04    -0.12   0.30  -0.46     0.00  -0.01   0.01
     8   1    -0.01   0.03   0.04    -0.12   0.30   0.46     0.00  -0.01  -0.01
                     16                     17                     18
                     A'                     A"                     A"
 Frequencies --   3640.6765              3645.4632              3646.2360
 Red. masses --      1.0894                 1.0892                 1.0887
 Frc consts  --      8.5076                 8.5281                 8.5284
 IR Inten    --     12.6874                10.7905                 5.1249
  Atom  AN      X      Y      Z        X      Y      Z        X      Y      Z
     1   7     0.00   0.00  -0.00     0.00   0.00   0.00    -0.00  -0.00  -0.08
     2   7    -0.06   0.05   0.00    -0.00   0.00  -0.08     0.00  -0.00  -0.00
     3   1     0.00  -0.01  -0.00     0.00  -0.00  -0.00    -0.00   0.00  -0.03
     4   1     0.77  -0.19   0.00     0.00  -0.00  -0.02    -0.00   0.00  -0.00
     5   1    -0.00  -0.00  -0.00    -0.00  -0.00  -0.00     0.28   0.32   0.56
     6   1    -0.00  -0.00   0.00     0.00   0.00  -0.00    -0.28  -0.32   0.56
     7   1     0.06  -0.23   0.35     0.12  -0.41   0.56     0.00  -0.00   0.00
     8   1     0.06  -0.23  -0.35    -0.12   0.41   0.56    -0.00   0.00   0.00

 -------------------
 - Thermochemistry -
 -------------------
 Temperature   298.150 Kelvin.  Pressure   1.00000 Atm.
 Atom     1 has atomic number  7 and mass  14.00307
 Atom     2 has atomic number  7 and mass  14.00307
 Atom     3 has atomic number  1 and mass   1.00783
 Atom     4 has atomic number  1 and mass   1.00783
 Atom     5 has atomic number  1 and mass   1.00783
 Atom     6 has atomic number  1 and mass   1.00783
 Atom     7 has atomic number  1 and mass   1.00783
 Atom     8 has atomic number  1 and mass   1.00783
 Molecular mass:    34.05310 amu.
 Principal axes and moments of inertia in atomic units:
                           1         2         3
     Eigenvalues --    14.43516 340.27354 344.80316
           X            0.02802   0.00000   0.99961
           Y            0.99961   0.00000  -0.02802
           Z           -0.00000   1.00000  -0.00000
 This molecule is an asymmetric top.
 Rotational symmetry number  1.
 Rotational temperatures (Kelvin)      6.00021     0.25454     0.25120
 Rotational constants (GHZ):         125.02401     5.30380     5.23412
 Zero-point vibrational energy     187409.2 (Joules/Mol)
                                   44.79188 (Kcal/Mol)
 Warning -- explicit consideration of   6 degrees of freedom as
           vibrations may cause significant error
 Vibrational temperatures:     69.35    89.81   157.25   203.19   347.38
          (Kelvin)            566.27  1524.70  1544.08  2389.24  2403.15
                             2408.93  2435.08  4988.30  5031.42  5192.90
                             5238.12  5245.01  5246.12
 
 Zero-point correction=                           0.071380 (Hartree/Particle)
 Thermal correction to Energy=                    0.078117
 Thermal correction to Enthalpy=                  0.079061
 Thermal correction to Gibbs Free Energy=         0.042551
 Sum of electronic and zero-point Energies=           -112.854938
 Sum of electronic and thermal Energies=              -112.848201
 Sum of electronic and thermal Enthalpies=            -112.847257
 Sum of electronic and thermal Free Energies=         -112.883767
 
                     E (Thermal)             CV                S
                      KCal/Mol        Cal/Mol-Kelvin    Cal/Mol-Kelvin
 Total                   49.019             17.808             76.842
 Electronic               0.000              0.000              0.000
 Translational            0.889              2.981             36.507
 Rotational               0.889              2.981             22.054
 Vibrational             47.242             11.846             18.282
 Vibration     1          0.595              1.978              4.890
 Vibration     2          0.597              1.972              4.379
 Vibration     3          0.606              1.942              3.281
 Vibration     4          0.615              1.912              2.787
 Vibration     5          0.658              1.777              1.792
 Vibration     6          0.761              1.484              0.987
                       Q            Log10(Q)             Ln(Q)
 Total Bot       0.267852D-19        -19.572105        -45.066438
 Total V=0       0.182210D+14         13.260571         30.533594
 Vib (Bot)       0.232782D-30        -30.633050        -70.535205
 Vib (Bot)    1  0.428939D+01          0.632396          1.456145
 Vib (Bot)    2  0.330709D+01          0.519446          1.196069
 Vib (Bot)    3  0.187417D+01          0.272810          0.628168
 Vib (Bot)    4  0.143935D+01          0.158165          0.364189
 Vib (Bot)    5  0.811598D+00         -0.090659         -0.208750
 Vib (Bot)    6  0.454983D+00         -0.342004         -0.787494
 Vib (V=0)       0.158353D+03          2.199626          5.064827
 Vib (V=0)    1  0.481843D+01          0.682906          1.572449
 Vib (V=0)    2  0.384468D+01          0.584860          1.346689
 Vib (V=0)    3  0.243972D+01          0.387341          0.891885
 Vib (V=0)    4  0.202372D+01          0.306150          0.704936
 Vib (V=0)    5  0.145325D+01          0.162341          0.373805
 Vib (V=0)    6  0.117603D+01          0.070417          0.162140
 Electronic      0.100000D+01          0.000000          0.000000
 Translational   0.781068D+07          6.892689         15.871003
 Rotational      0.147318D+05          4.168256          9.597764

     ==================================================
      Anharmonic Data: Displacement Vectors Definition
     ==================================================

 Framework definition based on atomic masses: CS  

 **********************************************************************

                  Harmonic vibro-rotational analysis

 **********************************************************************


     ==================================================
               Analysis of the Rotor Symmetry
     ==================================================

 Framework Group : CS  
 Rotor Type      : Asymmetric Top
 Asymm. param.   : Kappa = -0.998837
 Inertia moments : X=    96.55472 , Y=     4.04226 , Z=    95.28630
 Representation  : IIr Representation, Iy < Iz < Ix

 Axes Definition for the Symmetric-Top Representation
 ----------------------------------------------------
 Axis Z automatically chosen to be collinear with Y from Eckart orient.
 NOTE: In Vibro-rotational analysis, this will be referred to as the
       spectroscopic orientation.

     ==================================================
        Vibro-Rotational Analysis Based on Symmetry
     ==================================================

 Representation A'  
 ------------------
    X Translation
    Y Translation
    Y Rotation
   11 Vibrations with frequencies:
   3640.68   3609.24   3497.01   3467.04   1674.29   1660.60
   1073.19   1059.72    393.58    141.22     62.42

 Representation A"  
 ------------------
    Z Translation
    X Rotation
    Z Rotation
    7 Vibrations with frequencies:
   3646.24   3645.46   1692.46   1670.27    241.44    109.30
     48.20

 Input/Output information
 ------------------------
 Normal modes will be PRINTED in DESCENDING order (imag. freq. first)
   and sorted by irreducible representation
 The connection between this new numbering (A) and the one used before
   (H) is reported in the present equivalency table:
 ----+------+------+------+------+------+------+------+------+------+
 (H) |     1|     2|     3|     4|     5|     6|     7|     8|     9|
 (A) |    18|    11|    17|    10|    16|     9|     8|     7|     6|
 ----+------+------+------+------+------+------+------+------+------+
 ----+------+------+------+------+------+------+------+------+------+
 (H) |    10|    11|    12|    13|    14|    15|    16|    17|    18|
 (A) |    15|     5|    14|     4|     3|     2|     1|    13|    12|
 ----+------+------+------+------+------+------+------+------+------+

 Normal modes will be READ in ASCENDING order (imag. freq. first)

 Analysis of symmetry-allowed terms
 ----------------------------------

     ==================================================
                   Coriolis Couplings
     ==================================================

 Coriolis Couplings along the X axis
 -----------------------------------
                1             2             3             4             5 
      1   0.000000D+00
      2   0.000000D+00  0.000000D+00
      3   0.000000D+00  0.000000D+00  0.000000D+00
      4   0.000000D+00  0.000000D+00  0.000000D+00  0.000000D+00
      5   0.000000D+00  0.000000D+00  0.000000D+00  0.000000D+00  0.000000D+00
      6   0.000000D+00  0.000000D+00  0.000000D+00  0.000000D+00  0.000000D+00
      7   0.000000D+00  0.000000D+00  0.000000D+00  0.000000D+00  0.000000D+00
      8   0.000000D+00  0.000000D+00  0.000000D+00  0.000000D+00  0.000000D+00
      9   0.000000D+00  0.000000D+00  0.000000D+00  0.000000D+00  0.000000D+00
     10   0.000000D+00  0.000000D+00  0.000000D+00  0.000000D+00  0.000000D+00
     11   0.000000D+00  0.000000D+00  0.000000D+00  0.000000D+00  0.000000D+00
     12   0.000000D+00 -0.320016D-01  0.000000D+00 -0.131600D-01 -0.589594D+00
     13   0.182909D-01  0.000000D+00  0.903974D-02  0.000000D+00  0.557860D+00
     14  -0.329872D-01  0.871971D+00  0.284918D-02  0.259891D+00  0.163567D+00
     15  -0.245745D+00 -0.416094D-01 -0.162423D-01 -0.146076D-01  0.119551D+00
     16  -0.300135D+00 -0.939640D-01  0.258745D+00  0.695256D+00  0.196525D+00
     17   0.329163D+00 -0.230463D+00 -0.422772D+00  0.566797D+00 -0.168401D+00
     18  -0.347003D+00 -0.167081D+00  0.607980D+00  0.145360D-01 -0.151953D+00
                6             7             8             9            10 
      6   0.000000D+00
      7   0.000000D+00  0.000000D+00
      8   0.000000D+00  0.000000D+00  0.000000D+00
      9   0.000000D+00  0.000000D+00  0.000000D+00  0.000000D+00
     10   0.000000D+00  0.000000D+00  0.000000D+00  0.000000D+00  0.000000D+00
     11   0.000000D+00  0.000000D+00  0.000000D+00  0.000000D+00  0.000000D+00
     12  -0.608295D+00  0.421100D-02  0.202092D-01 -0.320189D+00  0.431418D-01
     13  -0.547352D+00  0.392074D+00 -0.427710D+00 -0.748552D-01 -0.508934D-01
     14   0.180347D+00  0.275179D-01 -0.646253D-02 -0.177712D+00  0.504216D-01
     15   0.842396D-01  0.358375D+00 -0.357763D+00  0.251559D+00  0.177143D+00
     16   0.486144D-02  0.897299D-01  0.232154D+00 -0.208505D-01  0.204465D+00
     17   0.424921D-01  0.247918D+00  0.665482D-01 -0.845930D-01 -0.416257D-02
     18  -0.927457D-01  0.673227D-01 -0.380147D-01  0.466685D-01  0.199928D-01
               11            12            13            14            15 
     11   0.000000D+00
     12  -0.161280D+00  0.000000D+00
     13   0.121494D+00  0.000000D+00  0.000000D+00
     14  -0.127306D+00  0.000000D+00  0.000000D+00  0.000000D+00
     15  -0.433145D+00  0.000000D+00  0.000000D+00  0.000000D+00  0.000000D+00
     16  -0.236960D-01  0.000000D+00  0.000000D+00  0.000000D+00  0.000000D+00
     17   0.137881D+00  0.000000D+00  0.000000D+00  0.000000D+00  0.000000D+00
     18  -0.359869D+00  0.000000D+00  0.000000D+00  0.000000D+00  0.000000D+00
               16            17            18 
     16   0.000000D+00
     17   0.000000D+00  0.000000D+00
     18   0.000000D+00  0.000000D+00  0.000000D+00

 Coriolis Couplings along the Y axis
 -----------------------------------
                1             2             3             4             5 
[...]
 9033,-0.00908548,-0.01420319,-0.19325703,-0.06212866,0.38802019,0.0000
 8142,-0.00080015,0.00006163,-0.01909322,0.00771771,0.03357386,-0.00004
 197,-0.00008887,-0.00000752,0.00059033,0.00863282,-0.01366137,0.211874
 38,0.04695934,0.35612340,0.40527564,-0.53479852,-0.00017679,0.00004243
 ,-0.00007363,0.00561752,-0.01088228,0.00538992,-0.00006495,-0.00019485
 ,-0.00000170,0.00908546,0.01366147,-0.00043929,-0.37062145,-0.40797873
 ,0.52993359,0.00002404,-0.00057646,-0.00006269,0.00127430,-0.00006143,
 -0.00321718,0.00014531,0.00190802,0.00068757,0.00033023,-0.00009246,-0
 .00031829,0.00002322,-0.00005165,-0.00000660,0.00003431,-0.00010224,0.
 00003021,-0.00200987,-0.00027270,-0.00045417,-0.00007283,0.00013511,-0
 .00393306,0.00594179,0.00057177,0.00188758,0.00060707,0.00035808,0.000
 35892,0.00000429,0.00011573,-0.00011167,-0.00001876,0.00011572,-0.0001
 8050,0.00005753,-0.00102791,0.00214232,0.00018817,-0.00057564,-0.00001
 214,-0.00266386,0.00594753,-0.00822518,0.00022243,0.00175944,0.0002568
 9,0.00001708,-0.00011798,0.00007657,-0.00001343,-0.00003877,-0.0000547
 7,0.00000138,-0.00004681,0.00004439,0.00256764,-0.00672337,0.00760816,
 0.00002404,-0.00057645,0.00006269,0.00127407,-0.00006161,0.00321726,0.
 00014531,0.00190803,-0.00068758,0.00033010,-0.00009242,0.00031827,0.00
 003430,-0.00010223,-0.00003022,0.00002325,-0.00005167,0.00000660,0.000
 17846,0.00000421,-0.00031940,-0.00200951,-0.00027270,-0.00045417,0.000
 07285,0.00013525,-0.00393342,-0.00594171,0.00057176,0.00188754,-0.0006
 0708,0.00035798,0.00035897,-0.00000432,0.00011574,-0.00018050,-0.00005
 756,0.00011572,-0.00011168,0.00001878,0.00000413,0.00029058,-0.0002044
 1,-0.00102787,0.00214268,-0.00018819,0.00057563,-0.00001212,0.00266388
 ,-0.00594736,-0.00822577,-0.00022242,-0.00175951,0.00025691,-0.0000170
 4,0.00011795,0.00007650,-0.00000141,0.00004683,0.00004436,0.00001348,0
 .00003874,-0.00005476,0.00031933,0.00020428,0.00030607,-0.00256763,0.0
 0672345,0.00760879,-0.00159657,0.00021583,0.01559489,0.00000004,0.0000
 0015,0.01243116,-0.00029841,-0.00005755,0.,1.08885912,-0.00029438,0.00
 041498,0.,-0.79364795,0.39772858,-0.00000003,0.00000001,-0.00017601,0.
 00000004,0.00000031,1.40725801,0.00179412,0.00589860,0.00000008,0.0002
 6119,0.00044914,0.00000002,-0.00249547,0.00518684,-0.01487203,-0.00000
 027,-0.00027693,-0.00034653,-0.00000016,-0.00597193,0.01531390,0.00000
 001,-0.00000009,0.00318408,0.,-0.00000004,0.00001286,0.,0.00000015,-0.
 00376530,0.00020626,-0.00013107,0.,-1.56327379,0.47928244,0.00000010,0
 .00004496,0.00074734,0.,1.54839883,0.00015527,0.00003360,0.,0.43120988
 ,0.22107107,-0.00000010,-0.00007957,-0.00013537,0.,-0.46875911,-0.2380
 6249,0.,-0.00000001,0.00000769,0.00000003,-0.00000003,0.30598413,0.,0.
 00000002,-0.00002613,0.,-0.00000002,-0.32476972,-0.00004433,-0.0030108
 8,-0.00545608,-0.00000257,-0.00001004,-0.00000593,0.00012959,0.0001952
 3,0.00007063,-0.00002066,-0.00000266,0.00001844,-0.00018574,-0.0027001
 9,-0.00056948,-0.00530731,-0.00001662,0.00000740,-0.00005629,-0.000063
 23,-0.00020499,-0.00019258,-0.00005109,0.00011361,-0.00000735,0.002789
 89,0.00052781,-0.00502106,-0.00553502,-0.00767669,-0.00003294,-0.00004
 029,0.00000454,-0.00003183,0.00020863,0.00015121,0.00003835,-0.0000241
 8,0.00000580,0.00521764,0.00545453,0.00750713,-0.00004449,-0.00301102,
 0.00545597,-0.00000248,-0.00001010,0.00000593,0.00012944,0.00019534,-0
 .00007065,-0.00002076,-0.00000258,-0.00001844,0.00012717,0.00001763,-0
 .00015066,-0.00018545,-0.00270010,-0.00056963,0.00530743,-0.00001670,0
 .00000744,0.00005630,-0.00006317,-0.00020512,0.00019253,-0.00005099,0.
 00011354,0.00000735,0.00001752,0.00011933,-0.00011971,0.00278985,0.000
 52811,0.00502101,0.00553495,-0.00767695,0.00003293,0.00004032,0.000004
 52,0.00003175,-0.00020851,0.00015115,-0.00003835,0.00002417,0.00000580
 ,0.00015083,0.00011978,0.00001644,-0.00521767,-0.00545467,0.00750744,-
 0.00000829,0.00004804,-0.00004927,0.23722836,0.15711532,-0.20305955,0.
 00006809,-0.00003791,0.00009912,0.00733259,0.01873937,-0.02839372,-0.0
 0000028,0.00000075,-0.00001146,-0.00000318,0.00002285,0.00000803,-0.25
 632546,0.00006836,-0.00001617,-0.00002695,0.18140281,-0.30944147,0.835
 91262,-0.00008491,0.00022504,0.00004636,-0.00551852,0.00843294,0.00963
 092,0.00001502,-0.00000775,0.00003050,0.00000588,0.00001408,-0.0000255
 5,-0.17541092,0.28500391,0.00001171,0.00014670,-0.00004665,-0.22777145
 ,0.80484080,-0.85654436,-0.00012184,-0.00039287,0.00014607,0.01329142,
 -0.00341168,0.00939622,0.00002599,0.00004201,-0.00005378,0.00002149,0.
 00005281,0.00004536,0.22297467,-0.82342288,0.85011935,-0.00000831,0.00
 004806,0.00004928,0.23722858,0.15711558,0.20305941,0.00006808,-0.00003
 797,-0.00009913,0.00733257,0.01873940,0.02839370,-0.00000318,0.0000228
 6,-0.00000804,-0.00000026,0.00000074,0.00001147,0.01170818,-0.00047773
 ,-0.00843198,-0.25632566,0.00006837,-0.00001618,0.00002694,0.18140306,
 -0.30944150,-0.83591270,-0.00008494,0.00022512,-0.00004634,-0.00551899
 ,0.00843310,-0.00963087,0.00000591,0.00001407,0.00002554,0.00001501,-0
 .00000774,-0.00003049,-0.00047751,0.01578943,0.02214510,-0.17541093,0.
 28500371,-0.00001169,-0.00014671,-0.00004666,0.22777139,-0.80484106,-0
 .85654370,0.00012182,0.00039301,0.00014608,-0.01329152,0.00341180,0.00
 939621,-0.00002151,-0.00005278,0.00004534,-0.00002597,-0.00004205,-0.0
 0005376,0.00843219,-0.02214503,-0.00306222,-0.22297472,0.82342282,0.85
 011871,-0.19205279,-0.18117698,1.85117841,-0.00000072,-0.00000034,1.26
 367207,-0.00006675,0.00056826,0.00000001,0.00310555,-0.00008752,-0.002
 11267,0.,0.00184063,0.00078693,0.,0.,0.00053404,-0.00000029,-0.0000003
 5,0.00445814,0.21073320,0.77788532,0.00000010,-0.00193028,0.00009527,0
 .00000002,-0.20651942,0.77241320,-1.87985636,0.00000018,-0.00054070,0.
 00758534,-0.00000001,-0.77001135,1.85647868,0.00000001,0.00000006,0.45
 810476,-0.00000003,0.,-0.00225039,0.,-0.00000009,-0.45073009,-0.000146
 05,0.00015810,0.,-0.00029272,-0.00091295,0.00000010,-0.00047966,-0.000
 58379,0.00000002,0.00049356,0.00002005,0.00011209,-0.00000001,0.000554
 60,-0.00168681,0.00000007,-0.00103571,0.00051241,0.,0.00087221,0.00086
 425,0.,0.,-0.00010045,0.00000003,0.00000002,0.00014404,0.,0.00000002,-
 0.00007421,-0.00000005,0.,-0.00009570,-0.00931347,-0.29834083,-0.61127
 437,0.00001586,0.00047918,-0.00020326,-0.00096318,-0.00181618,0.000093
 60,-0.00002442,-0.00003150,0.00000073,-0.00205320,-0.29559049,0.015721
 96,-0.57727474,-0.00018183,-0.00088478,0.00021953,-0.00368789,0.006417
 23,0.00225033,-0.00000660,-0.00007763,-0.00000349,0.29863362,-0.034011
 08,-0.57755990,-0.55533128,-0.86104228,-0.00001231,0.00095752,-0.00027
 159,-0.00298658,0.00193118,-0.00267603,-0.00009743,-0.00001429,0.00006
 717,0.59596365,0.56351019,0.86856450,-0.00931293,-0.29834128,0.6112749
 8,0.00001589,0.00047918,0.00020326,-0.00096311,-0.00181583,-0.00009361
 ,-0.00002445,-0.00003149,-0.00000072,0.01227097,0.00088197,-0.01539308
 ,-0.00205381,-0.29559090,0.01572276,0.57727492,-0.00018183,-0.00088477
 ,-0.00021951,-0.00368785,0.00641733,-0.00225029,-0.00000660,-0.0000776
 5,0.00000350,0.00088210,0.01299442,-0.01132577,0.29863385,-0.03401197,
 0.57756062,0.55533156,-0.86104159,0.00001231,-0.00095753,-0.00027160,0
 .00298648,-0.00193126,-0.00267601,0.00009743,0.00001430,0.00006717,0.0
 1539291,0.01132579,-0.00470497,-0.59596409,-0.56351043,0.86856379,0.00
 007938,-0.00037628,-0.00003385,-0.00042358,-0.00094673,-0.00115397,0.0
 0006122,0.00117731,0.00048402,0.00023680,-0.00017409,-0.00006020,0.000
 06155,-0.00005123,0.00006695,0.00000590,0.00000245,-0.00001871,-0.0000
 5808,0.00000631,-0.00038309,-0.00006248,-0.00102966,-0.00140168,-0.000
 07447,0.00022113,0.00122272,0.00042201,0.00023978,0.00017671,-0.000061
 76,0.00013083,-0.00010666,0.00019364,0.00006277,-0.00005344,-0.0000788
 1,0.00035787,0.00039158,0.00016707,-0.00050652,-0.00006329,-0.00061190
 ,0.00010454,-0.00117112,0.00006918,0.00114735,0.00015098,-0.00007191,-
 0.00007015,-0.00000399,0.00003219,0.00002825,0.00003486,0.00000546,0.0
 0005586,0.00002834,0.00056292,-0.00054866,0.00082599,0.00007939,-0.000
 37631,0.00003385,-0.00042397,-0.00094705,0.00115414,0.00006123,0.00117
 734,-0.00048401,0.00023693,-0.00017407,0.00006022,0.00000590,0.0000024
 5,0.00001871,0.00006155,-0.00005122,-0.00006695,0.00003682,0.00001098,
 -0.00015301,-0.00005784,0.00000632,-0.00038311,0.00006247,-0.00102946,
 -0.00140158,0.00007475,0.00022110,0.00122267,-0.00042202,0.00023984,0.
 00017663,0.00006172,0.00006277,-0.00005345,0.00007881,0.00013083,-0.00
 010666,-0.00019363,0.00001070,0.00015387,-0.00021067,0.00035789,0.0003
 9164,-0.00016706,0.00050652,-0.00006330,0.00061217,-0.00010420,-0.0011
 7152,-0.00006920,-0.00114736,0.00015100,0.00007185,0.00007009,-0.00000
 402,-0.00000546,-0.00005586,0.00002834,-0.00003220,-0.00002827,0.00003
 487,0.00015284,0.00021053,0.00019823,-0.00056295,0.00054856,0.00082639
 ,-0.00003690,-0.00034740,0.00078616,0.00000006,-0.00000006,-0.00012100
 ,0.00042224,0.00031596,0.,2.75455656,-0.00036751,-0.00031616,0.0000000
 2,-0.99100820,-0.20718394,0.,0.00000002,0.00011677,0.00000020,0.000000
 99,0.39643780,-0.00006693,0.00038347,-0.00000001,-0.00092493,0.0007197
 1,0.,-0.00016630,0.00027640,-0.00062877,0.00000009,-0.00078256,0.00065
 658,-0.00000004,-0.00082430,-0.00003909,-0.00000004,-0.00000009,0.0001
 9399,-0.00000001,-0.00000005,-0.00029631,-0.00000002,0.00000013,-0.000
 11092,-0.00022461,-0.00035453,0.,-3.08914522,0.85842117,-0.00000046,0.
 00077470,0.00092631,0.00000002,3.06446980,0.00030997,-0.00008866,0.000
 00002,0.84278285,0.52205438,-0.00000004,0.00003800,0.00014744,0.,-0.84
 666068,-0.51614159,0.,0.,0.00021594,-0.00000013,0.00000006,0.69388599,
 0.00000001,0.00000002,-0.00020264,0.00000021,-0.00000011,-0.67998324,-
 0.00001001,0.00002322,-0.00000480,-0.00001546,-0.00000229,-0.00000677,
 0.00002642,-0.00001954,-0.00005078,0.00000307,-0.00003144,0.00004201,-
 0.00001439,0.00001344,-0.00003809,-0.00011327,0.00020044,-0.00023273,0
 .00005466,-0.00000783,0.00009070,0.00000511,-0.00015364,0.00015316,0.0
 0004693,-0.00000445,-0.00006565,0.00003089,-0.00005474,-0.00004432,-0.
 00010079,0.00000970,-0.00001308,-0.00003630,-0.00000690,-0.00001063,0.
 00003916,-0.00003310,-0.00001769,0.00002602,0.00009689,0.00000556,-0.0
 0001014,0.00002307,0.00000474,-0.00001543,-0.00000233,0.00000678,0.000
 02627,-0.00001941,0.00005085,0.00000307,-0.00003143,-0.00004200,0.0000
 0159,0.00000779,-0.00000911,-0.00001411,0.00001353,-0.00003842,0.00011
 324,0.00020045,-0.00023275,-0.00005464,-0.00000796,0.00009096,-0.00000
 511,-0.00015364,0.00015317,-0.00004693,0.00000778,-0.00001045,0.000006
 11,-0.00000442,-0.00006556,-0.00003090,0.00005488,-0.00004429,0.000100
 79,-0.00000969,-0.00001309,0.00003634,0.00000671,-0.00001086,-0.000039
 17,0.00003309,-0.00001769,0.00000913,-0.00000614,0.00005384,-0.0000260
 6,-0.00009681,0.00000574,-0.00003683,-0.00002190,-0.00000820,0.1675606
 7,0.06611960,-0.09877906,0.00016538,0.00022154,0.00000725,0.01205973,0
 .00179636,-0.00158843,-0.00000181,-0.00002435,0.00002758,0.00001057,-0
 .00003140,-0.00002256,-0.18924180,0.00005078,0.00016197,0.00002778,0.0
 7414546,-0.15737282,0.51148754,-0.00015054,-0.00015892,0.00000402,-0.0
 0601238,-0.00313903,0.00288767,0.00001538,0.00005668,-0.00001545,0.000
 01134,0.00004639,0.00000250,-0.06813224,0.15244613,-0.00012108,-0.0000
 5607,-0.00015854,-0.10388073,0.48871145,-0.54505885,0.00010563,-0.0003
 5264,0.00021868,0.00316772,0.00329819,-0.00694035,-0.00001606,-0.00005
 602,-0.00001606,-0.00000128,0.00002815,0.00004239,0.10055463,-0.502983
 75,0.55472969,-0.00003682,-0.00002188,0.00000822,0.16756156,0.06611984
 ,0.09877930,0.00016539,0.00022154,-0.00000726,0.01205950,0.00179636,0.
 00158833,0.00001058,-0.00003140,0.00002255,-0.00000182,-0.00002435,-0.
 00002758,0.00948409,0.00007220,0.00019117,-0.18924248,0.00005078,0.000
 16195,-0.00002781,0.07414561,-0.15737256,-0.51148848,-0.00015055,-0.00
 015890,-0.00000400,-0.00601261,-0.00313886,-0.00288763,0.00001133,0.00
 004639,-0.00000250,0.00001538,0.00005666,0.00001547,0.00007238,0.00795
 960,0.01141069,-0.06813232,0.15244572,0.00012109,0.00005605,-0.0001585
 6,0.10388067,-0.48871247,-0.54505921,-0.00010565,0.00035263,0.00021871
 ,-0.00316747,-0.00329804,-0.00694033,0.00000125,-0.00002815,0.00004239
 ,0.00001607,0.00005601,-0.00001605,-0.00019121,-0.01141031,-0.00281696
 ,-0.10055475,0.50298427,0.55473002,0.00044450,-0.00009329,0.00023157,-
 0.00000019,0.,0.00013232,0.00003504,0.00022286,0.,-0.97147917,-0.00014
 508,0.00039714,0.00000004,-0.58104216,1.13363295,-0.00000002,0.0000000
 3,0.00065716,0.00000017,0.00000024,2.79106659,-0.00026076,0.00008168,0
 .00000009,-0.00016051,0.00018429,0.00000002,0.00020305,0.00012679,-0.0
 0032742,-0.00000006,0.00030986,-0.00063550,-0.00000004,-0.00002910,0.0
 0025023,-0.00000005,-0.00000005,-0.00010505,-0.00000002,-0.00000008,-0
 .00102886,0.,0.00000015,0.00005052,-0.00007624,-0.00005209,-0.00000001
 ,0.02634830,0.00693573,0.00000003,0.00010628,-0.00013435,0.00000003,-0
 .00920632,-0.00000993,0.00011528,0.,-0.01700860,-0.02028710,-0.0000001
 3,-0.00004247,-0.00014034,0.,-0.00155044,0.00405641,0.,0.,-0.00004987,
 0.00000010,0.,-0.01804604,0.,0.,0.00014938,-0.00000010,0.00000008,-0.0
 0392898,-0.00009267,-0.00001266,0.00003157,-0.00000032,-0.00001574,0.0
 0000459,0.00004102,-0.00002358,0.00000297,-0.00001714,0.00001213,0.000
 00655,0.00002859,-0.00000985,-0.00003252,-0.00000561,0.00004364,-0.000
 03901,0.00016905,-0.00002735,0.00003549,0.00001339,-0.00001441,0.00000
 493,-0.00003045,0.00001771,-0.00001501,0.00001299,-0.00003384,-0.00000
 896,0.00005154,-0.00000832,-0.00004783,0.00000188,-0.00000863,0.000024
 14,-0.00000588,-0.00000246,-0.00000224,-0.00001748,0.00001655,-0.00003
 079,-0.00009258,-0.00001292,-0.00003148,-0.00000033,-0.00001573,-0.000
 00459,0.00004086,-0.00002335,-0.00000290,-0.00001714,0.00001214,-0.000
 00656,0.00002810,0.00001006,0.00000720,0.00002865,-0.00000991,-0.00003
 238,0.00000563,0.00004364,-0.00003901,-0.00016906,-0.00002733,0.000035
 52,-0.00001345,-0.00001442,0.00000492,0.00003045,0.00001008,0.00000544
 ,0.00002277,0.00001775,-0.00001516,-0.00001275,0.00003389,-0.00000864,
 -0.00005154,0.00000832,-0.00004781,-0.00000196,0.00000858,0.00002393,0
 .00000588,0.00000245,-0.00000224,-0.00000722,-0.00002283,0.00002748,0.
 00001734,-0.00001645,-0.00003090,0.00002135,-0.00006679,-0.00017969,0.
 47262781,0.28704933,-0.36913134,0.00001503,-0.00011313,0.00022344,-0.0
 0856884,0.00929356,-0.00691451,0.00001213,-0.00006072,-0.00001482,0.00
 000030,0.00004092,0.00003544,-0.45859223,0.00007064,-0.00017584,0.0002
 2116,0.29871541,-0.55651523,1.45974037,-0.00006986,0.00039100,-0.00018
 694,-0.00258493,0.00812288,-0.00480487,0.00003653,0.00007962,-0.000011
 71,-0.00002448,-0.00003893,-0.00002564,-0.29704906,0.54966086,-0.00006
 929,-0.00015028,-0.00030849,-0.38407972,1.45230436,-1.38627726,0.00016
 598,-0.00011476,0.00044295,0.00562201,-0.00298585,0.01093999,-0.000025
 88,-0.00008366,-0.00001369,-0.00000489,0.00005645,0.00005189,0.3771866
 1,-1.45197939,1.36920012,0.00002135,-0.00006679,0.00017969,0.47262917,
 0.28704937,0.36913114,0.00001503,-0.00011315,-0.00022346,-0.00856888,0
 .00929360,0.00691452,0.00000029,0.00004091,-0.00003543,0.00001214,-0.0
 0006073,0.00001481,-0.00551556,0.00090576,0.00120518,-0.45859355,0.000
 07064,-0.00017585,-0.00022116,0.29871535,-0.55651425,-1.45974045,-0.00
 006987,0.00039103,0.00018697,-0.00258507,0.00812303,0.00480478,-0.0000
 2447,-0.00003893,0.00002564,0.00003653,0.00007960,0.00001170,0.0009058
 8,-0.00152435,0.00295313,-0.29704898,0.54965972,0.00006932,0.00015027,
 -0.00030849,0.38407945,-1.45230456,-1.38627594,-0.00016600,0.00011476,
 0.00044300,-0.00562195,0.00298591,0.01094001,0.00000489,-0.00005644,0.
 00005189,0.00002588,0.00008366,-0.00001371,-0.00120513,-0.00295299,0.0
 0596448,-0.37718646,1.45197939,1.36919876,0.05499716,1.21172447,0.1210
 8338,0.00000013,0.00000012,2.78378787,0.00016925,0.00012997,0.00000002
 ,0.00037782,-0.00043017,-0.00008204,-0.00000006,0.00011906,0.00044900,
 -0.00000009,-0.00000014,0.00047204,-0.00000010,-0.00000003,0.00010218,
 -0.01355525,-0.00647161,0.00000011,-0.00001994,0.00008129,-0.00000006,
 -0.00078370,-0.02908320,0.01724445,0.00000009,0.00000534,0.00051532,-0
 .00000001,0.00683938,-0.00456470,0.,0.,-0.01874512,0.00000001,0.,0.000
 06229,0.00000003,-0.00000002,-0.00402482,0.00008399,0.00000984,-0.0000
 0003,-0.00011868,-0.00010113,-0.00000006,-0.00001343,-0.00007007,-0.00
 000001,0.00002319,0.00019329,-0.00005473,0.00000004,0.00002776,-0.0001
 7962,0.00000008,-0.00010074,-0.00007957,0.,0.00006453,0.00009305,-0.00
 000005,-0.00000002,-0.00019023,0.00000001,0.00000005,-0.00002774,0.000
 00001,-0.00000005,0.00003731,-0.00000006,0.00000004,-0.00003634,-0.020
 83550,-0.60265581,-1.05824347,-0.00011105,0.00023127,-0.00031694,0.007
 19586,0.01112427,0.00778433,-0.00004511,-0.00008132,0.00005696,0.01575
 133,-0.59110618,-0.06906658,-1.07808954,-0.00002024,-0.00017755,-0.000
 20534,-0.00017120,-0.00664010,-0.00327318,0.00002622,0.00008449,0.0000
 6295,0.58986603,0.08133408,-1.04303879,-1.08637173,-1.38256899,0.00000
 424,0.00031162,-0.00032298,-0.00051004,0.00598528,0.01135115,-0.000073
 21,-0.00008246,0.00008492,1.04710054,1.08074476,1.36523105,-0.02083573
 ,-0.60265577,1.05824322,-0.00011105,0.00023121,0.00031709,0.00719598,0
 .01112421,-0.00778437,-0.00004512,-0.00008128,-0.00005692,-0.00198256,
 0.00139178,-0.00352077,0.01575144,-0.59110599,-0.06906651,1.07808934,-
 0.00002023,-0.00017760,0.00020541,-0.00017113,-0.00664018,0.00327321,0
 .00002620,0.00008453,-0.00006290,0.00139162,-0.00550987,-0.00067744,0.
 58986591,0.08133412,1.04303866,1.08637163,-1.38256909,-0.00000428,-0.0
 0031155,-0.00032276,0.00050990,-0.00598536,0.01135114,0.00007325,0.000
 08242,0.00008504,0.00352094,0.00067742,0.00611694,-1.04710044,-1.08074
 458,1.36523115,-0.00001192,-0.00004054,0.00000184,-0.00009329,-0.00006
 569,-0.00003186,-0.00000975,0.00003007,-0.00001435,0.00005759,-0.00001
 117,0.00003189,0.00005867,0.00002705,0.00003842,-0.00003167,-0.0000134
 8,0.00000030,0.00001907,-0.00009615,-0.00002905,-0.00004459,-0.0001208
 8,-0.00017381,-0.00011296,-0.00000302,0.00008236,0.00000383,0.00002214
 ,0.00002591,-0.00002392,0.00013488,0.00003807,0.00009000,-0.00001089,-
 0.00006252,0.00000015,0.00007405,0.00006635,0.00000045,-0.00002635,-0.
 00009329,0.00000718,0.00004568,0.00001843,-0.00000221,0.00000297,-0.00
 001596,-0.00002531,-0.00001653,0.00002354,0.00005243,0.00006079,0.0000
 5242,-0.00004532,-0.00002220,0.00005537,-0.00000669,0.00002168,-0.0000
 4551,-0.00001199,-0.00004056,-0.00000183,-0.00009307,-0.00006585,0.000
 03202,-0.00000976,0.00003000,0.00001435,0.00005758,-0.00001108,-0.0000
 3185,-0.00003164,-0.00001345,-0.00000039,0.00005871,0.00002709,-0.0000
 3833,0.00001129,-0.00000014,0.00001946,0.00001887,-0.00009607,-0.00002
 893,0.00004459,-0.00012079,-0.00017373,0.00011300,-0.00000298,0.000082
 41,-0.00000382,0.00002228,0.00002593,0.00002384,-0.00001095,-0.0000625
 4,-0.00000003,0.00013483,0.00003804,-0.00009012,-0.00000030,0.00005268
 ,-0.00006605,0.00007398,0.00006615,-0.00000033,0.00002651,-0.00009321,
 -0.00000710,-0.00004571,0.00001853,0.00000225,-0.00000290,-0.00001597,
 0.00002543,0.00001641,0.00002350,0.00004520,0.00002213,0.00005550,-0.0
 0005249,-0.00006082,0.00005221,-0.00001954,0.00006583,0.00000500,0.000
 00657,-0.00002142,-0.00004556\\@


 WE MIGHT AS WELL ATTEMPT TO INTRODUCE A NEW PLANET 
 INTO THE SOLAR SYSTEM, OR TO ANNIHILATE ONE ALREADYIN EXISTENCE, 
 AS TO CREATE OR DESTROY A PARTICLE OF HYDROGEN.
 ALL THE CHANGES WE CAN PRODUCE CONSIST IN SEPARATING PARTICLES
 THAT ARE IN A STATE OF ... COMBINATION, AND JOINING 
 THOSE THAT WERE PREVIOUSLY AT A DISTANCE.

                                    -- JOHN DALTON, 1810
 Job cpu time:       4 days 11 hours 15 minutes  9.0 seconds.
 Elapsed time:       0 days  3 hours 54 minutes 49.6 seconds.
 File lengths (MBytes):  RWF=   6072 Int=      0 D2E=      0 Chk=     52 Scr=      8
 Normal termination of Gaussian 16 at Fri Jun 25 19:04:31 2021.
