 Entering Gaussian System, Link 0=g16
 Input=nh3_nme3_mp2_avtz_opt_anharm.gjf
 Output=nh3_nme3_mp2_avtz_opt_anharm.log
 Initial command:
 /sw/contrib/chem-src/g16/c01/g16/l1.exe "/scr/Gau-82555.inp" -scrdir="/scr/"
 Entering Link 1 = /sw/contrib/chem-src/g16/c01/g16/l1.exe PID=     82556.
  
 Copyright (c) 1988-2019, Gaussian, Inc.  All Rights Reserved.
  
 This is part of the Gaussian(R) 16 program.  It is based on
 the Gaussian(R) 09 system (copyright 2009, Gaussian, Inc.),
 the Gaussian(R) 03 system (copyright 2003, Gaussian, Inc.),
 the Gaussian(R) 98 system (copyright 1998, Gaussian, Inc.),
 the Gaussian(R) 94 system (copyright 1995, Gaussian, Inc.),
 the Gaussian 92(TM) system (copyright 1992, Gaussian, Inc.),
 the Gaussian 90(TM) system (copyright 1990, Gaussian, Inc.),
 the Gaussian 88(TM) system (copyright 1988, Gaussian, Inc.),
 the Gaussian 86(TM) system (copyright 1986, Carnegie Mellon
 University), and the Gaussian 82(TM) system (copyright 1983,
 Carnegie Mellon University). Gaussian is a federally registered
 trademark of Gaussian, Inc.
  
 This software contains proprietary and confidential information,
 including trade secrets, belonging to Gaussian, Inc.
  
 This software is provided under written license and may be
 used, copied, transmitted, or stored only in accord with that
 written license.
  
 The following legend is applicable only to US Government
 contracts under FAR:
  
                    RESTRICTED RIGHTS LEGEND
  
 Use, reproduction and disclosure by the US Government is
 subject to restrictions as set forth in subparagraphs (a)
 and (c) of the Commercial Computer Software - Restricted
 Rights clause in FAR 52.227-19.
  
 Gaussian, Inc.
 340 Quinnipiac St., Bldg. 40, Wallingford CT 06492
  
  
 ---------------------------------------------------------------
 Warning -- This program may not be used in any manner that
 competes with the business of Gaussian, Inc. or will provide
 assistance to any competitor of Gaussian, Inc.  The licensee
 of this program is prohibited from giving any competitor of
 Gaussian, Inc. access to this program.  By using this program,
 the user acknowledges that Gaussian, Inc. is engaged in the
 business of creating and licensing software in the field of
 computational chemistry and represents and warrants to the
 licensee that it is not a competitor of Gaussian, Inc. and that
 it will not use this program in any manner prohibited above.
 ---------------------------------------------------------------
  

 Cite this work as:
 Gaussian 16, Revision C.01,
 M. J. Frisch, G. W. Trucks, H. B. Schlegel, G. E. Scuseria, 
 M. A. Robb, J. R. Cheeseman, G. Scalmani, V. Barone, 
 G. A. Petersson, H. Nakatsuji, X. Li, M. Caricato, A. V. Marenich, 
 J. Bloino, B. G. Janesko, R. Gomperts, B. Mennucci, H. P. Hratchian, 
 J. V. Ortiz, A. F. Izmaylov, J. L. Sonnenberg, D. Williams-Young, 
 F. Ding, F. Lipparini, F. Egidi, J. Goings, B. Peng, A. Petrone, 
 T. Henderson, D. Ranasinghe, V. G. Zakrzewski, J. Gao, N. Rega, 
 G. Zheng, W. Liang, M. Hada, M. Ehara, K. Toyota, R. Fukuda, 
 J. Hasegawa, M. Ishida, T. Nakajima, Y. Honda, O. Kitao, H. Nakai, 
 T. Vreven, K. Throssell, J. A. Montgomery, Jr., J. E. Peralta, 
 F. Ogliaro, M. J. Bearpark, J. J. Heyd, E. N. Brothers, K. N. Kudin, 
 V. N. Staroverov, T. A. Keith, R. Kobayashi, J. Normand, 
 K. Raghavachari, A. P. Rendell, J. C. Burant, S. S. Iyengar, 
 J. Tomasi, M. Cossi, J. M. Millam, M. Klene, C. Adamo, R. Cammi, 
 J. W. Ochterski, R. L. Martin, K. Morokuma, O. Farkas, 
 J. B. Foresman, and D. J. Fox, Gaussian, Inc., Wallingford CT, 2019.
 
 ******************************************
 Gaussian 16:  EM64L-G16RevC.01  3-Jul-2019
                29-Mar-2025 
 ******************************************
 %nprocshared=40
 Will use up to   40 processors via shared memory.
 %mem=50gb
 --------------------------------------------------------------------
 # MP2/aug-cc-pVTZ opt freq=(vibrot,anharmonic,selectAnharmonicModes)
 --------------------------------------------------------------------
 1/18=20,19=15,38=1,80=1/1,3;
 2/9=110,12=2,17=6,18=5,40=1/2;
 3/5=16,6=1,7=10,11=9,25=1,30=1,71=1/1,2,3;
 4//1;
 5/5=2,38=5/2;
 8/6=4,10=1/1;
 9/15=2,16=-3/6;
 10/5=1/2;
 6/7=2,8=2,9=2,10=2/1;
 7/12=2/1,2,3,16;
 1/18=20,19=15,80=1/3(2);
 2/9=110/2;
 99//99;
 2/9=110/2;
 3/5=16,6=1,7=10,11=9,25=1,30=1,71=1/1,2,3;
 4/5=5,16=3,69=1/1;
 5/5=2,38=5/2;
 8/6=4,10=1/1;
 9/15=2,16=-3/6;
 10/5=1/2;
 7/12=2/1,2,3,16;
 1/18=20,19=15,80=1/3(-8);
 2/9=110/2;
 6/7=2,8=2,9=2,10=2/1;
 99/9=10/99;
 ----
 blah
 ----
 Symbolic Z-matrix:
 Charge =  0 Multiplicity = 1
 N                    -2.65424   0.00011   0.26922 
 H                    -1.67561  -0.00005   0.55504 
 H                    -3.09053   0.81043   0.69165 
 H                    -3.09049  -0.81084   0.69049 
 N                     0.45466   0.00001   0.13444 
 C                     0.41448  -1.1892   -0.70347 
 C                     0.41519   1.18978  -0.7027 
 C                     1.65912  -0.00062   0.94792 
 H                    -0.50657   1.19302  -1.28328 
 H                     1.27073   1.23043  -1.39553 
 H                     0.438     2.08043  -0.07517 
 H                    -0.50726  -1.19149  -1.28408 
 H                     0.43672  -2.08027  -0.07651 
 H                     1.27003  -1.22993  -1.39629 
 H                     1.67326  -0.88565   1.583 
 H                     1.67382   0.88403   1.58354 
 H                     2.57223  -0.00072   0.33106 
 
 Add virtual bond connecting atoms N5         and H2         Dist= 4.10D+00.

 GradGradGradGradGradGradGradGradGradGradGradGradGradGradGradGradGradGrad
 Berny optimization.
 Initialization pass.
                           ----------------------------
                           !    Initial Parameters    !
                           ! (Angstroms and Degrees)  !
 --------------------------                            --------------------------
 ! Name  Definition              Value          Derivative Info.                !
 --------------------------------------------------------------------------------
 ! R1    R(1,2)                  1.0195         estimate D2E/DX2                !
 ! R2    R(1,3)                  1.0126         estimate D2E/DX2                !
 ! R3    R(1,4)                  1.0126         estimate D2E/DX2                !
 ! R4    R(2,5)                  2.1714         estimate D2E/DX2                !
 ! R5    R(5,6)                  1.4553         estimate D2E/DX2                !
 ! R6    R(5,7)                  1.4553         estimate D2E/DX2                !
 ! R7    R(5,8)                  1.4534         estimate D2E/DX2                !
 ! R8    R(6,12)                 1.0894         estimate D2E/DX2                !
 ! R9    R(6,13)                 1.0898         estimate D2E/DX2                !
 ! R10   R(6,14)                 1.1016         estimate D2E/DX2                !
 ! R11   R(7,9)                  1.0894         estimate D2E/DX2                !
 ! R12   R(7,10)                 1.1016         estimate D2E/DX2                !
 ! R13   R(7,11)                 1.0898         estimate D2E/DX2                !
 ! R14   R(8,15)                 1.0894         estimate D2E/DX2                !
 ! R15   R(8,16)                 1.0894         estimate D2E/DX2                !
 ! R16   R(8,17)                 1.1019         estimate D2E/DX2                !
 ! A1    A(2,1,3)              107.2621         estimate D2E/DX2                !
 ! A2    A(2,1,4)              107.2642         estimate D2E/DX2                !
 ! A3    A(3,1,4)              106.3603         estimate D2E/DX2                !
 ! A4    A(1,2,5)              152.55           estimate D2E/DX2                !
 ! A5    A(2,5,6)               94.8425         estimate D2E/DX2                !
 ! A6    A(2,5,7)               94.8668         estimate D2E/DX2                !
 ! A7    A(2,5,8)              134.7963         estimate D2E/DX2                !
 ! A8    A(6,5,7)              109.64           estimate D2E/DX2                !
 ! A9    A(6,5,8)              110.1681         estimate D2E/DX2                !
 ! A10   A(7,5,8)              110.1687         estimate D2E/DX2                !
 ! A11   A(5,6,12)             109.3871         estimate D2E/DX2                !
 ! A12   A(5,6,13)             109.6548         estimate D2E/DX2                !
 ! A13   A(5,6,14)             111.7693         estimate D2E/DX2                !
 ! A14   A(12,6,13)            108.7948         estimate D2E/DX2                !
 ! A15   A(12,6,14)            108.7742         estimate D2E/DX2                !
 ! A16   A(13,6,14)            108.4053         estimate D2E/DX2                !
 ! A17   A(5,7,9)              109.3868         estimate D2E/DX2                !
 ! A18   A(5,7,10)             111.7695         estimate D2E/DX2                !
 ! A19   A(5,7,11)             109.6548         estimate D2E/DX2                !
 ! A20   A(9,7,10)             108.7742         estimate D2E/DX2                !
 ! A21   A(9,7,11)             108.7947         estimate D2E/DX2                !
 ! A22   A(10,7,11)            108.4054         estimate D2E/DX2                !
 ! A23   A(5,8,15)             109.7176         estimate D2E/DX2                !
 ! A24   A(5,8,16)             109.7177         estimate D2E/DX2                !
 ! A25   A(5,8,17)             111.9237         estimate D2E/DX2                !
 ! A26   A(15,8,16)            108.6266         estimate D2E/DX2                !
 ! A27   A(15,8,17)            108.3913         estimate D2E/DX2                !
 ! A28   A(16,8,17)            108.3913         estimate D2E/DX2                !
 ! D1    D(3,1,2,5)           -123.0591         estimate D2E/DX2                !
 ! D2    D(4,1,2,5)            123.0216         estimate D2E/DX2                !
 ! D3    D(2,1,3,4)           -114.5264         estimate D2E/DX2                !
 ! D4    D(1,2,5,6)            -55.1156         estimate D2E/DX2                !
 ! D5    D(1,2,5,7)             55.1118         estimate D2E/DX2                !
 ! D6    D(1,2,5,8)           -179.986          estimate D2E/DX2                !
 ! D7    D(2,5,6,12)            36.5703         estimate D2E/DX2                !
 ! D8    D(2,5,6,13)           -82.6627         estimate D2E/DX2                !
 ! D9    D(2,5,6,14)           157.0955         estimate D2E/DX2                !
 ! D10   D(7,5,6,12)           -60.3585         estimate D2E/DX2                !
 ! D11   D(7,5,6,13)          -179.5916         estimate D2E/DX2                !
 ! D12   D(7,5,6,14)            60.1667         estimate D2E/DX2                !
 ! D13   D(8,5,6,12)           178.2372         estimate D2E/DX2                !
 ! D14   D(8,5,6,13)            59.0041         estimate D2E/DX2                !
 ! D15   D(8,5,6,14)           -61.2376         estimate D2E/DX2                !
 ! D16   D(2,5,7,9)            -36.5507         estimate D2E/DX2                !
 ! D17   D(2,5,7,10)          -157.0758         estimate D2E/DX2                !
 ! D18   D(2,5,7,11)            82.6821         estimate D2E/DX2                !
 ! D19   D(6,5,7,9)             60.3611         estimate D2E/DX2                !
 ! D20   D(6,5,7,10)           -60.164          estimate D2E/DX2                !
 ! D21   D(6,5,7,11)           179.594          estimate D2E/DX2                !
 ! D22   D(8,5,7,9)           -178.235          estimate D2E/DX2                !
 ! D23   D(8,5,7,10)            61.2399         estimate D2E/DX2                !
 ! D24   D(8,5,7,11)           -59.0021         estimate D2E/DX2                !
 ! D25   D(2,5,8,15)            59.6105         estimate D2E/DX2                !
 ! D26   D(2,5,8,16)           -59.6562         estimate D2E/DX2                !
 ! D27   D(2,5,8,17)           179.9771         estimate D2E/DX2                !
 ! D28   D(6,5,8,15)           -59.8237         estimate D2E/DX2                !
 ! D29   D(6,5,8,16)          -179.0905         estimate D2E/DX2                !
 ! D30   D(6,5,8,17)            60.5428         estimate D2E/DX2                !
 ! D31   D(7,5,8,15)           179.0875         estimate D2E/DX2                !
 ! D32   D(7,5,8,16)            59.8207         estimate D2E/DX2                !
 ! D33   D(7,5,8,17)           -60.5459         estimate D2E/DX2                !
 --------------------------------------------------------------------------------
 Trust Radius=3.00D-01 FncErr=1.00D-07 GrdErr=1.00D-07 EigMax=2.50D+02 EigMin=1.00D-04
 Number of steps in this run=     87 maximum allowed number of steps=    102.
 GradGradGradGradGradGradGradGradGradGradGradGradGradGradGradGradGradGrad

                          Input orientation:                          
 ---------------------------------------------------------------------
 Center     Atomic      Atomic             Coordinates (Angstroms)
 Number     Number       Type             X           Y           Z
 ---------------------------------------------------------------------
      1          7           0       -2.654237    0.000105    0.269217
      2          1           0       -1.675609   -0.000053    0.555038
      3          1           0       -3.090530    0.810431    0.691652
      4          1           0       -3.090489   -0.810844    0.690491
      5          7           0        0.454658    0.000012    0.134437
      6          6           0        0.414481   -1.189197   -0.703470
      7          6           0        0.415188    1.189781   -0.702704
      8          6           0        1.659120   -0.000616    0.947923
      9          1           0       -0.506572    1.193015   -1.283277
     10          1           0        1.270730    1.230433   -1.395532
     11          1           0        0.437997    2.080432   -0.075169
     12          1           0       -0.507258   -1.191491   -1.284081
     13          1           0        0.436718   -2.080266   -0.076505
     14          1           0        1.270025   -1.229933   -1.396290
     15          1           0        1.673258   -0.885652    1.583002
     16          1           0        1.673821    0.884026    1.583536
     17          1           0        2.572230   -0.000720    0.331061
 ---------------------------------------------------------------------
                    Distance matrix (angstroms):
                    1          2          3          4          5
     1  N    0.000000
     2  H    1.019513   0.000000
     3  H    1.012636   1.636322   0.000000
     4  H    1.012633   1.636342   1.621275   0.000000
     5  N    3.111815   2.171392   3.679079   3.678961   0.000000
     6  C    3.431849   2.714108   4.269658   3.790922   1.455308
     7  C    3.432394   2.714600   3.791859   4.270043   1.455305
     8  C    4.366428   3.357793   4.825210   4.825093   1.453440
     9  H    2.906155   2.483840   3.274684   3.819403   2.087374
    10  H    4.437394   3.741622   4.853177   5.247717   2.126197
    11  H    3.742763   3.031981   3.827717   4.625573   2.091019
    12  H    2.905539   2.483330   3.818967   3.273669   2.087380
    13  H    3.741854   3.031181   4.624681   3.826343   2.091022
    14  H    4.436974   3.741263   5.247573   4.852254   2.126197
    15  H    4.608450   3.613296   5.134674   4.847211   2.089911
    16  H    4.608778   3.613597   4.847671   5.135052   2.089911
    17  H    5.226833   4.253740   5.731914   5.731656   2.126681
                    6          7          8          9         10
     6  C    0.000000
     7  C    2.378978   0.000000
     8  C    2.385152   2.385159   0.000000
     9  H    2.619055   1.089365   3.330650   0.000000
    10  H    2.658331   1.101642   2.675464   1.781237   0.000000
    11  H    3.329533   1.089761   2.620805   1.771791   1.777442
    12  H    1.089365   2.619038   3.330648   2.384506   3.006556
    13  H    1.089763   3.329534   2.620814   3.613926   3.660073
    14  H    1.101642   2.658350   2.675435   3.006617   2.460366
    15  H    2.627663   3.333859   1.089410   4.157893   3.675800
    16  H    3.333855   2.627648   1.089409   3.614997   3.026107
    17  H    2.671818   2.671852   1.101948   3.675610   2.488124
                   11         12         13         14         15
    11  H    0.000000
    12  H    3.613925   0.000000
    13  H    4.160698   1.771793   0.000000
    14  H    3.660075   1.781237   1.777442   0.000000
    15  H    3.615668   3.615018   2.389581   3.026104   0.000000
    16  H    2.389550   4.157897   3.615686   3.675763   1.769678
    17  H    3.008516   3.675577   3.008493   2.488060   1.777248
                   16         17
    16  H    0.000000
    17  H    1.777247   0.000000
 Stoichiometry    C3H12N2
 Framework group  C1[X(C3H12N2)]
 Deg. of freedom    45
 Full point group                 C1      NOp   1
 Largest Abelian subgroup         C1      NOp   1
 Largest concise Abelian subgroup C1      NOp   1
                         Standard orientation:                         
 ---------------------------------------------------------------------
 Center     Atomic      Atomic             Coordinates (Angstroms)
 Number     Number       Type             X           Y           Z
 ---------------------------------------------------------------------
      1          7           0       -2.654237    0.000105    0.269217
      2          1           0       -1.675609   -0.000053    0.555038
      3          1           0       -3.090530    0.810431    0.691652
      4          1           0       -3.090489   -0.810844    0.690491
      5          7           0        0.454658    0.000012    0.134437
      6          6           0        0.414481   -1.189197   -0.703470
      7          6           0        0.415188    1.189781   -0.702704
      8          6           0        1.659120   -0.000616    0.947923
      9          1           0       -0.506572    1.193015   -1.283277
     10          1           0        1.270730    1.230433   -1.395532
     11          1           0        0.437997    2.080432   -0.075169
     12          1           0       -0.507258   -1.191491   -1.284081
     13          1           0        0.436718   -2.080266   -0.076505
     14          1           0        1.270025   -1.229933   -1.396290
     15          1           0        1.673258   -0.885652    1.583002
     16          1           0        1.673821    0.884026    1.583536
     17          1           0        2.572230   -0.000720    0.331061
 ---------------------------------------------------------------------
 Rotational constants (GHZ):           5.6722089           2.3520400           2.2091256
 Standard basis: Aug-CC-pVTZ (5D, 7F)
 There are   575 symmetry adapted cartesian basis functions of A   symmetry.
 There are   506 symmetry adapted basis functions of A   symmetry.
   506 basis functions,   684 primitive gaussians,   575 cartesian basis functions
    22 alpha electrons       22 beta electrons
       nuclear repulsion energy       201.0031859120 Hartrees.
 NAtoms=   17 NActive=   17 NUniq=   17 SFac= 1.00D+00 NAtFMM=   60 NAOKFM=F Big=F
 Integral buffers will be    131072 words long.
 Raffenetti 1 integral format.
 Two-electron integral symmetry is turned on.
 One-electron integrals computed using PRISM.
 NBasis=   506 RedAO= T EigKep=  6.57D-06  NBF=   506
 NBsUse=   506 1.00D-06 EigRej= -1.00D+00 NBFU=   506
 ExpMin= 2.53D-02 ExpMax= 1.14D+04 ExpMxC= 3.89D+02 IAcc=3 IRadAn=         5 AccDes= 0.00D+00
 Harris functional with IExCor=  205 and IRadAn=       5 diagonalized for initial guess.
 HarFok:  IExCor=  205 AccDes= 0.00D+00 IRadAn=         5 IDoV= 1 UseB2=F ITyADJ=14
 ICtDFT=  3500011 ScaDFX=  1.000000  1.000000  1.000000  1.000000
 FoFCou: FMM=F IPFlag=           0 FMFlag=      100000 FMFlg1=           0
         NFxFlg=           0 DoJE=T BraDBF=F KetDBF=T FulRan=T
         wScrn=  0.000000 ICntrl=       500 IOpCl=  0 I1Cent=   200000004 NGrid=           0
         NMat0=    1 NMatS0=      1 NMatT0=    0 NMatD0=    1 NMtDS0=    0 NMtDT0=    0
 Petite list used in FoFCou.
 Requested convergence on RMS density matrix=1.00D-08 within 128 cycles.
 Requested convergence on MAX density matrix=1.00D-06.
 Requested convergence on             energy=1.00D-06.
 No special actions if energy rises.
 SCF Done:  E(RHF) =  -229.556314958     A.U. after   11 cycles
            NFock= 11  Conv=0.62D-08     -V/T= 2.0012
 ExpMin= 2.53D-02 ExpMax= 1.14D+04 ExpMxC= 3.89D+02 IAcc=3 IRadAn=         5 AccDes= 0.00D+00
 HarFok:  IExCor=  205 AccDes= 0.00D+00 IRadAn=         5 IDoV=-2 UseB2=F ITyADJ=14
 ICtDFT= 12500011 ScaDFX=  1.000000  1.000000  1.000000  1.000000
 Range of M.O.s used for correlation:     6   506
 NBasis=   506 NAE=    22 NBE=    22 NFC=     5 NFV=     0
 NROrb=    501 NOA=    17 NOB=    17 NVA=   484 NVB=   484

 **** Warning!!: The largest alpha MO coefficient is  0.95836840D+02

 Disk-based method using ON**2 memory for 17 occupieds at a time.
 Estimated scratch disk usage=  6011955200 words.
 Actual    scratch disk usage=  5510285824 words.
 JobTyp=1 Pass  1:  I=   6 to  22 NPSUse= 40 ParTrn=T ParDer=T DoDerP=T.
 (rs|ai) integrals will be sorted in core.
 Spin components of T(2) and E(2):
     alpha-alpha T2 =       0.3563889646D-01 E2=     -0.1127481825D+00
     alpha-beta  T2 =       0.2263136751D+00 E2=     -0.7875556362D+00
     beta-beta   T2 =       0.3563889646D-01 E2=     -0.1127481825D+00
 ANorm=    0.1139118724D+01
 E2 =    -0.1013052001D+01 EUMP2 =    -0.23056936695970D+03
          IDoAtm=11111111111111111
          Differentiating once with respect to electric field.
                with respect to dipole field.
          Differentiating once with respect to nuclear coordinates.
          There are     1 degrees of freedom in the 1st order CPHF.  IDoFFX=0 NUNeed=     1.
 LinEq1:  Iter=  0 NonCon=     1 RMS=1.86D-03 Max=2.66D-02 NDo=     1
 AX will form     1 AO Fock derivatives at one time.
 LinEq1:  Iter=  1 NonCon=     1 RMS=4.64D-04 Max=6.40D-03 NDo=     1
 LinEq1:  Iter=  2 NonCon=     1 RMS=1.43D-04 Max=2.63D-03 NDo=     1
 LinEq1:  Iter=  3 NonCon=     1 RMS=3.58D-05 Max=6.66D-04 NDo=     1
 LinEq1:  Iter=  4 NonCon=     1 RMS=1.17D-05 Max=1.43D-04 NDo=     1
 LinEq1:  Iter=  5 NonCon=     1 RMS=2.67D-06 Max=4.15D-05 NDo=     1
 LinEq1:  Iter=  6 NonCon=     1 RMS=7.03D-07 Max=1.26D-05 NDo=     1
 LinEq1:  Iter=  7 NonCon=     1 RMS=2.59D-07 Max=5.00D-06 NDo=     1
 LinEq1:  Iter=  8 NonCon=     1 RMS=7.39D-08 Max=1.19D-06 NDo=     1
 LinEq1:  Iter=  9 NonCon=     1 RMS=1.88D-08 Max=3.13D-07 NDo=     1
 LinEq1:  Iter= 10 NonCon=     1 RMS=3.88D-09 Max=7.48D-08 NDo=     1
 LinEq1:  Iter= 11 NonCon=     1 RMS=7.48D-10 Max=1.08D-08 NDo=     1
 LinEq1:  Iter= 12 NonCon=     1 RMS=2.23D-10 Max=3.37D-09 NDo=     1
 LinEq1:  Iter= 13 NonCon=     0 RMS=5.90D-11 Max=8.36D-10 NDo=     1
 Linear equations converged to 1.000D-10 1.000D-09 after    13 iterations.
 End of Minotr F.D. properties file   721 does not exist.
 End of Minotr F.D. properties file   722 does not exist.
 End of Minotr F.D. properties file   788 does not exist.

 **********************************************************************

            Population analysis using the SCF Density.

 **********************************************************************

 Orbital symmetries:
       Occupied  (A) (A) (A) (A) (A) (A) (A) (A) (A) (A) (A) (A)
                 (A) (A) (A) (A) (A) (A) (A) (A) (A) (A)
       Virtual   (A) (A) (A) (A) (A) (A) (A) (A) (A) (A) (A) (A)
                 (A) (A) (A) (A) (A) (A) (A) (A) (A) (A) (A) (A)
                 (A) (A) (A) (A) (A) (A) (A) (A) (A) (A) (A) (A)
                 (A) (A) (A) (A) (A) (A) (A) (A) (A) (A) (A) (A)
                 (A) (A) (A) (A) (A) (A) (A) (A) (A) (A) (A) (A)
                 (A) (A) (A) (A) (A) (A) (A) (A) (A) (A) (A) (A)
                 (A) (A) (A) (A) (A) (A) (A) (A) (A) (A) (A) (A)
                 (A) (A) (A) (A) (A) (A) (A) (A) (A) (A) (A) (A)
                 (A) (A) (A) (A) (A) (A) (A) (A) (A) (A) (A) (A)
                 (A) (A) (A) (A) (A) (A) (A) (A) (A) (A) (A) (A)
                 (A) (A) (A) (A) (A) (A) (A) (A) (A) (A) (A) (A)
                 (A) (A) (A) (A) (A) (A) (A) (A) (A) (A) (A) (A)
                 (A) (A) (A) (A) (A) (A) (A) (A) (A) (A) (A) (A)
                 (A) (A) (A) (A) (A) (A) (A) (A) (A) (A) (A) (A)
                 (A) (A) (A) (A) (A) (A) (A) (A) (A) (A) (A) (A)
                 (A) (A) (A) (A) (A) (A) (A) (A) (A) (A) (A) (A)
                 (A) (A) (A) (A) (A) (A) (A) (A) (A) (A) (A) (A)
                 (A) (A) (A) (A) (A) (A) (A) (A) (A) (A) (A) (A)
                 (A) (A) (A) (A) (A) (A) (A) (A) (A) (A) (A) (A)
                 (A) (A) (A) (A) (A) (A) (A) (A) (A) (A) (A) (A)
                 (A) (A) (A) (A) (A) (A) (A) (A) (A) (A) (A) (A)
                 (A) (A) (A) (A) (A) (A) (A) (A) (A) (A) (A) (A)
                 (A) (A) (A) (A) (A) (A) (A) (A) (A) (A) (A) (A)
                 (A) (A) (A) (A) (A) (A) (A) (A) (A) (A) (A) (A)
                 (A) (A) (A) (A) (A) (A) (A) (A) (A) (A) (A) (A)
                 (A) (A) (A) (A) (A) (A) (A) (A) (A) (A) (A) (A)
                 (A) (A) (A) (A) (A) (A) (A) (A) (A) (A) (A) (A)
                 (A) (A) (A) (A) (A) (A) (A) (A) (A) (A) (A) (A)
                 (A) (A) (A) (A) (A) (A) (A) (A) (A) (A) (A) (A)
                 (A) (A) (A) (A) (A) (A) (A) (A) (A) (A) (A) (A)
                 (A) (A) (A) (A) (A) (A) (A) (A) (A) (A) (A) (A)
                 (A) (A) (A) (A) (A) (A) (A) (A) (A) (A) (A) (A)
                 (A) (A) (A) (A) (A) (A) (A) (A) (A) (A) (A) (A)
                 (A) (A) (A) (A) (A) (A) (A) (A) (A) (A) (A) (A)
                 (A) (A) (A) (A) (A) (A) (A) (A) (A) (A) (A) (A)
                 (A) (A) (A) (A) (A) (A) (A) (A) (A) (A) (A) (A)
                 (A) (A) (A) (A) (A) (A) (A) (A) (A) (A) (A) (A)
                 (A) (A) (A) (A) (A) (A) (A) (A) (A) (A) (A) (A)
                 (A) (A) (A) (A) (A) (A) (A) (A) (A) (A) (A) (A)
                 (A) (A) (A) (A) (A) (A) (A) (A) (A) (A) (A) (A)
                 (A) (A) (A) (A)
 The electronic state is 1-A.
 Alpha  occ. eigenvalues --  -15.55201 -15.52019 -11.24280 -11.23889 -11.23887
 Alpha  occ. eigenvalues --   -1.23118  -1.12180  -0.95258  -0.95016  -0.80947
 Alpha  occ. eigenvalues --   -0.65680  -0.63339  -0.63080  -0.61005  -0.59961
 Alpha  occ. eigenvalues --   -0.54689  -0.54525  -0.51869  -0.50142  -0.50100
 Alpha  occ. eigenvalues --   -0.41181  -0.36418
 Alpha virt. eigenvalues --    0.02842   0.03873   0.03923   0.04133   0.05590
 Alpha virt. eigenvalues --    0.05728   0.05967   0.06032   0.06676   0.07831
 Alpha virt. eigenvalues --    0.08272   0.08484   0.11948   0.12232   0.13090
 Alpha virt. eigenvalues --    0.13126   0.13502   0.14279   0.14614   0.15055
 Alpha virt. eigenvalues --    0.15299   0.16190   0.16709   0.18392   0.18453
 Alpha virt. eigenvalues --    0.18687   0.18905   0.19854   0.20651   0.21113
 Alpha virt. eigenvalues --    0.21780   0.24739   0.25213   0.25388   0.26242
 Alpha virt. eigenvalues --    0.26957   0.28019   0.28337   0.30015   0.30930
 Alpha virt. eigenvalues --    0.31370   0.33009   0.33806   0.34259   0.34859
 Alpha virt. eigenvalues --    0.34992   0.35395   0.35635   0.36684   0.36716
 Alpha virt. eigenvalues --    0.37866   0.37976   0.38591   0.38800   0.38926
 Alpha virt. eigenvalues --    0.39413   0.39712   0.40646   0.40893   0.41599
 Alpha virt. eigenvalues --    0.42233   0.42528   0.43444   0.43876   0.45066
 Alpha virt. eigenvalues --    0.45254   0.46042   0.46088   0.47161   0.47682
 Alpha virt. eigenvalues --    0.47810   0.48333   0.48778   0.49456   0.49493
 Alpha virt. eigenvalues --    0.50350   0.50961   0.51647   0.52336   0.53466
 Alpha virt. eigenvalues --    0.53650   0.53773   0.54720   0.55093   0.56130
 Alpha virt. eigenvalues --    0.56942   0.58002   0.58587   0.60651   0.60798
 Alpha virt. eigenvalues --    0.61253   0.62352   0.62888   0.63448   0.64346
 Alpha virt. eigenvalues --    0.64597   0.65595   0.66786   0.67880   0.68484
 Alpha virt. eigenvalues --    0.68940   0.71954   0.73926   0.74871   0.75224
 Alpha virt. eigenvalues --    0.75685   0.76029   0.77591   0.78580   0.79498
 Alpha virt. eigenvalues --    0.79645   0.81057   0.81704   0.83171   0.84885
 Alpha virt. eigenvalues --    0.84962   0.87150   0.88683   0.89224   0.89465
 Alpha virt. eigenvalues --    0.90779   0.91300   0.91300   0.91721   0.93030
 Alpha virt. eigenvalues --    0.93059   0.93682   0.93984   0.94730   0.94758
 Alpha virt. eigenvalues --    0.96028   0.96911   0.97638   0.98349   0.98963
 Alpha virt. eigenvalues --    0.99493   1.01358   1.02162   1.03415   1.03591
 Alpha virt. eigenvalues --    1.03956   1.05385   1.06037   1.06874   1.07548
 Alpha virt. eigenvalues --    1.08877   1.09345   1.10936   1.11556   1.13026
 Alpha virt. eigenvalues --    1.13524   1.13630   1.13877   1.15312   1.15679
 Alpha virt. eigenvalues --    1.16556   1.18990   1.19076   1.19395   1.19668
 Alpha virt. eigenvalues --    1.20444   1.20460   1.22219   1.23062   1.23914
 Alpha virt. eigenvalues --    1.24041   1.24386   1.25703   1.26762   1.27189
 Alpha virt. eigenvalues --    1.27788   1.28304   1.30679   1.31413   1.32273
 Alpha virt. eigenvalues --    1.33866   1.34734   1.35210   1.37628   1.37890
 Alpha virt. eigenvalues --    1.38882   1.39533   1.40685   1.42474   1.43153
 Alpha virt. eigenvalues --    1.43648   1.44225   1.45363   1.45435   1.47777
 Alpha virt. eigenvalues --    1.50767   1.51223   1.52894   1.53031   1.54106
 Alpha virt. eigenvalues --    1.54530   1.54788   1.55309   1.55908   1.57489
 Alpha virt. eigenvalues --    1.57573   1.62752   1.63263   1.63550   1.65306
 Alpha virt. eigenvalues --    1.66137   1.66274   1.67259   1.67978   1.68558
 Alpha virt. eigenvalues --    1.69459   1.70412   1.70684   1.72023   1.72694
 Alpha virt. eigenvalues --    1.75277   1.75697   1.76163   1.78017   1.78147
 Alpha virt. eigenvalues --    1.79358   1.79936   1.81872   1.83076   1.83866
 Alpha virt. eigenvalues --    1.85275   1.87362   1.87368   1.89641   1.91052
 Alpha virt. eigenvalues --    1.91877   1.93528   1.93656   1.96146   1.98170
 Alpha virt. eigenvalues --    1.99580   1.99587   2.00190   2.01728   2.03493
 Alpha virt. eigenvalues --    2.04883   2.06220   2.06565   2.07323   2.09214
 Alpha virt. eigenvalues --    2.10880   2.12573   2.14380   2.15641   2.17273
 Alpha virt. eigenvalues --    2.17300   2.18505   2.18876   2.21466   2.22168
 Alpha virt. eigenvalues --    2.23215   2.23773   2.25415   2.28202   2.28747
 Alpha virt. eigenvalues --    2.29359   2.30940   2.31185   2.32979   2.37863
 Alpha virt. eigenvalues --    2.38230   2.38565   2.40340   2.42880   2.44719
 Alpha virt. eigenvalues --    2.45605   2.45739   2.46838   2.49664   2.50527
 Alpha virt. eigenvalues --    2.51498   2.53230   2.56714   2.57912   2.58640
 Alpha virt. eigenvalues --    2.61013   2.65710   2.65893   2.70291   2.71879
 Alpha virt. eigenvalues --    2.72055   2.73420   2.74808   2.79929   2.81148
 Alpha virt. eigenvalues --    2.86507   3.03287   3.04942   3.06558   3.17516
 Alpha virt. eigenvalues --    3.20958   3.30465   3.41552   3.42227   3.46425
 Alpha virt. eigenvalues --    3.49758   3.54020   3.55268   3.56192   3.59788
 Alpha virt. eigenvalues --    3.60462   3.63926   3.64873   3.67238   3.68613
 Alpha virt. eigenvalues --    3.70655   3.70859   3.74278   3.77123   3.77406
 Alpha virt. eigenvalues --    3.78605   3.81183   3.81454   3.81466   3.83783
 Alpha virt. eigenvalues --    3.84757   3.85752   3.89912   3.90991   3.91839
 Alpha virt. eigenvalues --    3.92740   3.92869   3.94665   3.94670   3.95292
 Alpha virt. eigenvalues --    3.98681   4.00199   4.01334   4.02278   4.02640
 Alpha virt. eigenvalues --    4.03149   4.05005   4.05696   4.10576   4.12127
 Alpha virt. eigenvalues --    4.13229   4.14109   4.15743   4.16502   4.21014
 Alpha virt. eigenvalues --    4.21716   4.23049   4.24269   4.25352   4.26170
 Alpha virt. eigenvalues --    4.27759   4.29072   4.31017   4.31025   4.32010
 Alpha virt. eigenvalues --    4.32564   4.34897   4.35721   4.36291   4.37803
 Alpha virt. eigenvalues --    4.40997   4.41663   4.43152   4.44344   4.46501
 Alpha virt. eigenvalues --    4.47777   4.51602   4.52593   4.53243   4.54341
 Alpha virt. eigenvalues --    4.55996   4.60030   4.60156   4.64047   4.65377
 Alpha virt. eigenvalues --    4.66215   4.66436   4.67568   4.71220   4.71777
 Alpha virt. eigenvalues --    4.73854   4.77021   4.79901   4.81325   4.81388
 Alpha virt. eigenvalues --    4.84202   4.85419   4.86029   4.86673   4.87387
 Alpha virt. eigenvalues --    4.91085   4.91361   4.91618   4.92655   4.97226
 Alpha virt. eigenvalues --    5.00502   5.02266   5.03561   5.03586   5.04530
 Alpha virt. eigenvalues --    5.08940   5.09379   5.09645   5.11518   5.14736
 Alpha virt. eigenvalues --    5.15116   5.17970   5.18096   5.21450   5.22377
 Alpha virt. eigenvalues --    5.24745   5.26812   5.28849   5.29827   5.32262
 Alpha virt. eigenvalues --    5.35960   5.40193   5.40593   5.40872   5.42702
 Alpha virt. eigenvalues --    5.43057   5.48549   5.50617   5.51079   5.54606
 Alpha virt. eigenvalues --    5.54826   5.58698   5.61217   5.65112   5.65892
 Alpha virt. eigenvalues --    5.66257   5.69089   5.73073   5.76480   5.78255
 Alpha virt. eigenvalues --    5.81049   5.84582   5.87191   5.90376   5.91105
 Alpha virt. eigenvalues --    5.91889   5.94899   5.97128   5.98166   6.02547
 Alpha virt. eigenvalues --    6.07147   6.08148   6.08279   6.13041   6.14802
 Alpha virt. eigenvalues --    6.14845   6.20063   6.21832   6.25795   6.29195
 Alpha virt. eigenvalues --    6.31404   6.34329   6.39598   6.40732   6.47313
 Alpha virt. eigenvalues --    6.50256   6.55201   6.58568   6.80932   6.81672
 Alpha virt. eigenvalues --    6.82306   6.83438   6.86743   6.87042   6.93157
 Alpha virt. eigenvalues --    6.94321   6.96314   6.99232   7.02862   7.03320
 Alpha virt. eigenvalues --    7.06606   7.14699   7.81538   7.82269  17.02414
 Alpha virt. eigenvalues --   18.21234  18.53368  18.54606  18.97437
          Condensed to atoms (all electrons):
               1          2          3          4          5          6
     1  N    6.722282   0.186461   0.375924   0.375900  -0.021462  -0.010410
     2  H    0.186461   0.416677  -0.000781  -0.000720   0.023019  -0.004347
     3  H    0.375924  -0.000781   0.517242  -0.010745  -0.003663   0.001182
     4  H    0.375900  -0.000720  -0.010745   0.517158  -0.003652   0.001857
     5  N   -0.021462   0.023019  -0.003663  -0.003652   6.797504   0.175607
     6  C   -0.010410  -0.004347   0.001182   0.001857   0.175607   5.664575
     7  C   -0.010394  -0.004364   0.001863   0.001183   0.175618   0.005787
     8  C    0.005545  -0.009542   0.001488   0.001487   0.019292  -0.030456
     9  H   -0.004164   0.001333   0.000793   0.001255   0.002072  -0.004555
    10  H   -0.000015  -0.000310   0.000231   0.000056  -0.047332  -0.003145
    11  H    0.002362  -0.000587  -0.000480  -0.000210   0.024439  -0.001970
    12  H   -0.004161   0.001324   0.001257   0.000788   0.002116   0.361382
    13  H    0.002365  -0.000585  -0.000210  -0.000481   0.024466   0.398718
    14  H   -0.000018  -0.000309   0.000056   0.000231  -0.047386   0.413574
    15  H   -0.000130   0.000133   0.000026   0.000219  -0.039556  -0.001903
    16  H   -0.000131   0.000134   0.000219   0.000026  -0.039549  -0.007042
    17  H    0.000117  -0.000724   0.000066   0.000066  -0.053297  -0.003708
               7          8          9         10         11         12
     1  N   -0.010394   0.005545  -0.004164  -0.000015   0.002362  -0.004161
     2  H   -0.004364  -0.009542   0.001333  -0.000310  -0.000587   0.001324
     3  H    0.001863   0.001488   0.000793   0.000231  -0.000480   0.001257
     4  H    0.001183   0.001487   0.001255   0.000056  -0.000210   0.000788
     5  N    0.175618   0.019292   0.002072  -0.047332   0.024439   0.002116
     6  C    0.005787  -0.030456  -0.004555  -0.003145  -0.001970   0.361382
     7  C    5.664507  -0.030414   0.361442   0.413533   0.398736  -0.004554
     8  C   -0.030414   5.729258  -0.004280   0.014225  -0.011904  -0.004285
     9  H    0.361442  -0.004280   0.265143   0.006464   0.019590   0.002159
    10  H    0.413533   0.014225   0.006464   0.304302   0.011212  -0.001225
    11  H    0.398736  -0.011904   0.019590   0.011212   0.267545  -0.000558
    12  H   -0.004554  -0.004285   0.002159  -0.001225  -0.000558   0.265147
    13  H   -0.001966  -0.011914  -0.000560  -0.000947  -0.000840   0.019582
    14  H   -0.003146   0.014235  -0.001222   0.009185  -0.000947   0.006447
    15  H   -0.007042   0.420738  -0.001147   0.001114  -0.001230   0.000564
    16  H   -0.001902   0.420741   0.000566   0.001636  -0.000315  -0.001147
    17  H   -0.003703   0.412513   0.000360   0.005447  -0.001666   0.000359
              13         14         15         16         17
     1  N    0.002365  -0.000018  -0.000130  -0.000131   0.000117
     2  H   -0.000585  -0.000309   0.000133   0.000134  -0.000724
     3  H   -0.000210   0.000056   0.000026   0.000219   0.000066
     4  H   -0.000481   0.000231   0.000219   0.000026   0.000066
     5  N    0.024466  -0.047386  -0.039556  -0.039549  -0.053297
     6  C    0.398718   0.413574  -0.001903  -0.007042  -0.003708
     7  C   -0.001966  -0.003146  -0.007042  -0.001902  -0.003703
     8  C   -0.011914   0.014235   0.420738   0.420741   0.412513
     9  H   -0.000560  -0.001222  -0.001147   0.000566   0.000360
    10  H   -0.000947   0.009185   0.001114   0.001636   0.005447
    11  H   -0.000840  -0.000947  -0.001230  -0.000315  -0.001666
    12  H    0.019582   0.006447   0.000564  -0.001147   0.000359
    13  H    0.267538   0.011204  -0.000317  -0.001230  -0.001668
    14  H    0.011204   0.304392   0.001642   0.001114   0.005454
    15  H   -0.000317   0.001642   0.265205   0.024097   0.020570
    16  H   -0.001230   0.001114   0.024097   0.265209   0.020568
    17  H   -0.001668   0.005454   0.020570   0.020568   0.276502
 Mulliken charges:
               1
     1  N   -0.620071
     2  H    0.393188
     3  H    0.115533
     4  H    0.115582
     5  N    0.011765
     6  C   -0.955147
     7  C   -0.955185
     8  C   -0.936726
     9  H    0.354752
    10  H    0.285570
    11  H    0.296823
    12  H    0.354805
    13  H    0.296845
    14  H    0.285496
    15  H    0.317018
    16  H    0.317008
    17  H    0.322745
 Sum of Mulliken charges =  -0.00000
 Mulliken charges with hydrogens summed into heavy atoms:
               1
     1  N    0.004232
     5  N    0.011765
     6  C   -0.018001
     7  C   -0.018040
     8  C    0.020045
 Electronic spatial extent (au):  <R**2>=            675.6416
 Charge=             -0.0000 electrons
 Dipole moment (field-independent basis, Debye):
    X=              1.1395    Y=             -0.0010    Z=              0.9277  Tot=              1.4694
 Quadrupole moment (field-independent basis, Debye-Ang):
   XX=            -36.0247   YY=            -32.7206   ZZ=            -35.3491
   XY=              0.0033   XZ=             -3.2056   YZ=              0.0016
 Traceless Quadrupole moment (field-independent basis, Debye-Ang):
   XX=             -1.3266   YY=              1.9775   ZZ=             -0.6510
   XY=              0.0033   XZ=             -3.2056   YZ=              0.0016
 Octapole moment (field-independent basis, Debye-Ang**2):
  XXX=             -6.7297  YYY=             -0.0024  ZZZ=              1.8567  XYY=             -5.8329
  XXY=             -0.0091  XXZ=             13.5381  XZZ=             -0.3956  YZZ=              0.0027
  YYZ=              3.4154  XYZ=             -0.0044
 Hexadecapole moment (field-independent basis, Debye-Ang**3):
 XXXX=           -531.4685 YYYY=           -198.4770 ZZZZ=           -165.5754 XXXY=              0.0298
 XXXZ=            -45.4791 YYYX=              0.0069 YYYZ=              0.0006 ZZZX=              0.2793
 ZZZY=              0.0050 XXYY=           -112.3949 XXZZ=           -117.6180 YYZZ=            -58.8633
 XXYZ=              0.0164 YYXZ=             -2.7025 ZZXY=             -0.0050
 N-N= 2.010031859120D+02 E-N=-9.376403941265D+02  KE= 2.292770450013D+02
 Calling FoFJK, ICntrl=  10002127 FMM=F ISym2X=0 I1Cent= 0 IOpClX= 0 NMat=1 NMatS=1 NMatT=0.
 ***** Axes restored to original set *****
 -------------------------------------------------------------------
 Center     Atomic                   Forces (Hartrees/Bohr)
 Number     Number              X              Y              Z
 -------------------------------------------------------------------
      1        7          -0.000011850    0.000003891    0.000001266
      2        1           0.000015431   -0.000000426   -0.000025836
      3        1          -0.000000395    0.000003387    0.000003072
      4        1           0.000000882   -0.000005302    0.000004836
      5        7          -0.000017047   -0.000002076    0.000026917
      6        6          -0.000000415   -0.000011729   -0.000011180
      7        6          -0.000002120    0.000011454   -0.000010823
      8        6           0.000026222   -0.000000117    0.000006724
      9        1           0.000000787    0.000004138   -0.000001441
     10        1          -0.000003696   -0.000002870    0.000004144
     11        1          -0.000002091   -0.000004837   -0.000001392
     12        1           0.000000908   -0.000004230   -0.000001202
     13        1          -0.000001895    0.000005420   -0.000001643
     14        1          -0.000003734    0.000002895    0.000004066
     15        1           0.000002794    0.000003165    0.000000732
     16        1           0.000002438   -0.000002888    0.000001234
     17        1          -0.000006219    0.000000126    0.000000526
 -------------------------------------------------------------------
 Cartesian Forces:  Max     0.000026917 RMS     0.000008472

 GradGradGradGradGradGradGradGradGradGradGradGradGradGradGradGradGradGrad
 Berny optimization.
 FormGI is forming the generalized inverse of G from B-inverse, IUseBI=4.
 Internal  Forces:  Max     0.000030031 RMS     0.000006088
 Search for a local minimum.
 Step number   1 out of a maximum of   87
 All quantities printed in internal units (Hartrees-Bohrs-Radians)
 Mixed Optimization -- En-DIIS/RFO-DIIS
 Second derivative matrix not updated -- first step.
 ITU=  0
     Eigenvalues ---    0.00230   0.00770   0.00960   0.00960   0.00985
     Eigenvalues ---    0.02976   0.03285   0.04165   0.05364   0.05918
     Eigenvalues ---    0.05931   0.05931   0.06146   0.06165   0.06165
     Eigenvalues ---    0.06518   0.12525   0.13836   0.14733   0.16000
     Eigenvalues ---    0.16000   0.16000   0.16000   0.16000   0.16000
     Eigenvalues ---    0.16000   0.16000   0.16000   0.16000   0.25000
     Eigenvalues ---    0.33468   0.33501   0.33501   0.34840   0.34840
     Eigenvalues ---    0.34881   0.34881   0.34886   0.34886   0.37558
     Eigenvalues ---    0.37558   0.37798   0.44416   0.45534   0.45534
 RFO step:  Lambda=-1.59141630D-08 EMin= 2.30000000D-03
 Linear search not attempted -- first point.
 Iteration  1 RMS(Cart)=  0.00007458 RMS(Int)=  0.00000000
 Iteration  2 RMS(Cart)=  0.00000000 RMS(Int)=  0.00000000
 Variable       Old X    -DE/DX   Delta X   Delta X   Delta X     New X
                                 (Linear)    (Quad)   (Total)
    R1        1.92660   0.00001   0.00000   0.00002   0.00002   1.92662
    R2        1.91360   0.00000   0.00000   0.00001   0.00001   1.91361
    R3        1.91360   0.00001   0.00000   0.00001   0.00001   1.91361
    R4        4.10334  -0.00001   0.00000  -0.00022  -0.00022   4.10312
    R5        2.75013   0.00001   0.00000   0.00003   0.00003   2.75017
    R6        2.75013   0.00001   0.00000   0.00003   0.00003   2.75016
    R7        2.74660   0.00003   0.00000   0.00007   0.00007   2.74667
    R8        2.05860  -0.00000   0.00000  -0.00000  -0.00000   2.05860
    R9        2.05935  -0.00001   0.00000  -0.00002  -0.00002   2.05934
   R10        2.08180  -0.00001   0.00000  -0.00002  -0.00002   2.08178
   R11        2.05860   0.00000   0.00000   0.00000   0.00000   2.05860
   R12        2.08180  -0.00001   0.00000  -0.00002  -0.00002   2.08179
   R13        2.05935  -0.00000   0.00000  -0.00001  -0.00001   2.05934
   R14        2.05869  -0.00000   0.00000  -0.00001  -0.00001   2.05868
   R15        2.05868  -0.00000   0.00000  -0.00000  -0.00000   2.05868
   R16        2.08238  -0.00001   0.00000  -0.00002  -0.00002   2.08236
    A1        1.87208  -0.00000   0.00000  -0.00002  -0.00002   1.87205
    A2        1.87211  -0.00000   0.00000  -0.00005  -0.00005   1.87206
    A3        1.85634   0.00000   0.00000  -0.00001  -0.00001   1.85633
    A4        2.66250   0.00003   0.00000   0.00012   0.00012   2.66262
    A5        1.65531  -0.00000   0.00000  -0.00003  -0.00003   1.65528
    A6        1.65574  -0.00000   0.00000  -0.00007  -0.00007   1.65567
    A7        2.35264   0.00001   0.00000   0.00014   0.00014   2.35278
    A8        1.91358   0.00000   0.00000  -0.00003  -0.00003   1.91355
    A9        1.92280  -0.00000   0.00000  -0.00002  -0.00002   1.92278
   A10        1.92281  -0.00000   0.00000  -0.00002  -0.00002   1.92279
   A11        1.90916   0.00001   0.00000   0.00005   0.00005   1.90921
   A12        1.91384  -0.00000   0.00000  -0.00002  -0.00002   1.91382
   A13        1.95074  -0.00000   0.00000  -0.00003  -0.00003   1.95071
   A14        1.89883  -0.00000   0.00000  -0.00001  -0.00001   1.89881
   A15        1.89847  -0.00000   0.00000  -0.00000  -0.00000   1.89847
   A16        1.89203   0.00000   0.00000   0.00001   0.00001   1.89204
   A17        1.90916   0.00001   0.00000   0.00005   0.00005   1.90921
   A18        1.95075  -0.00000   0.00000  -0.00003  -0.00003   1.95072
   A19        1.91384  -0.00000   0.00000  -0.00002  -0.00002   1.91382
   A20        1.89847  -0.00000   0.00000  -0.00000  -0.00000   1.89847
   A21        1.89883  -0.00000   0.00000  -0.00001  -0.00001   1.89881
   A22        1.89203   0.00000   0.00000   0.00001   0.00001   1.89205
   A23        1.91493   0.00001   0.00000   0.00004   0.00004   1.91497
   A24        1.91493   0.00001   0.00000   0.00003   0.00003   1.91497
   A25        1.95344  -0.00001   0.00000  -0.00004  -0.00004   1.95339
   A26        1.89589  -0.00000   0.00000  -0.00002  -0.00002   1.89587
   A27        1.89178  -0.00000   0.00000  -0.00000  -0.00000   1.89178
   A28        1.89178   0.00000   0.00000  -0.00000  -0.00000   1.89178
    D1       -2.14779  -0.00000   0.00000  -0.00001  -0.00001  -2.14780
    D2        2.14713   0.00000   0.00000   0.00003   0.00003   2.14716
    D3       -1.99886   0.00000   0.00000   0.00007   0.00007  -1.99879
    D4       -0.96195   0.00000   0.00000   0.00004   0.00004  -0.96191
    D5        0.96188  -0.00000   0.00000   0.00000   0.00000   0.96188
    D6       -3.14135  -0.00000   0.00000  -0.00000  -0.00000  -3.14135
    D7        0.63827  -0.00000   0.00000  -0.00007  -0.00007   0.63820
    D8       -1.44274  -0.00000   0.00000  -0.00007  -0.00007  -1.44281
    D9        2.74183  -0.00000   0.00000  -0.00006  -0.00006   2.74178
   D10       -1.05346   0.00000   0.00000   0.00002   0.00002  -1.05344
   D11       -3.13446   0.00000   0.00000   0.00002   0.00002  -3.13445
   D12        1.05011   0.00000   0.00000   0.00003   0.00003   1.05014
   D13        3.11083   0.00000   0.00000   0.00007   0.00007   3.11089
   D14        1.02982   0.00000   0.00000   0.00006   0.00006   1.02988
   D15       -1.06880   0.00000   0.00000   0.00008   0.00008  -1.06872
   D16       -0.63793   0.00000   0.00000   0.00004   0.00004  -0.63789
   D17       -2.74149   0.00000   0.00000   0.00003   0.00003  -2.74146
   D18        1.44308   0.00000   0.00000   0.00004   0.00004   1.44312
   D19        1.05350  -0.00000   0.00000  -0.00002  -0.00002   1.05348
   D20       -1.05006  -0.00000   0.00000  -0.00003  -0.00003  -1.05009
   D21        3.13451  -0.00000   0.00000  -0.00002  -0.00002   3.13449
   D22       -3.11079  -0.00000   0.00000  -0.00007  -0.00007  -3.11085
   D23        1.06884  -0.00000   0.00000  -0.00008  -0.00008   1.06876
   D24       -1.02978  -0.00000   0.00000  -0.00007  -0.00007  -1.02985
   D25        1.04040   0.00000   0.00000   0.00004   0.00004   1.04044
   D26       -1.04120   0.00000   0.00000   0.00002   0.00002  -1.04117
   D27        3.14119   0.00000   0.00000   0.00003   0.00003   3.14123
   D28       -1.04412  -0.00000   0.00000  -0.00002  -0.00002  -1.04414
   D29       -3.12572  -0.00000   0.00000  -0.00004  -0.00004  -3.12576
   D30        1.05667  -0.00000   0.00000  -0.00003  -0.00003   1.05665
   D31        3.12567   0.00000   0.00000   0.00004   0.00004   3.12570
   D32        1.04407  -0.00000   0.00000   0.00002   0.00002   1.04409
   D33       -1.05673   0.00000   0.00000   0.00003   0.00003  -1.05670
         Item               Value     Threshold  Converged?
 Maximum Force            0.000030     0.000450     YES
 RMS     Force            0.000006     0.000300     YES
 Maximum Displacement     0.000244     0.001800     YES
 RMS     Displacement     0.000075     0.001200     YES
 Predicted change in Energy=-7.957038D-09
 Optimization completed.
    -- Stationary point found.
                           ----------------------------
                           !   Optimized Parameters   !
                           ! (Angstroms and Degrees)  !
 --------------------------                            --------------------------
 ! Name  Definition              Value          Derivative Info.                !
 --------------------------------------------------------------------------------
 ! R1    R(1,2)                  1.0195         -DE/DX =    0.0                 !
 ! R2    R(1,3)                  1.0126         -DE/DX =    0.0                 !
 ! R3    R(1,4)                  1.0126         -DE/DX =    0.0                 !
 ! R4    R(2,5)                  2.1714         -DE/DX =    0.0                 !
 ! R5    R(5,6)                  1.4553         -DE/DX =    0.0                 !
 ! R6    R(5,7)                  1.4553         -DE/DX =    0.0                 !
 ! R7    R(5,8)                  1.4534         -DE/DX =    0.0                 !
 ! R8    R(6,12)                 1.0894         -DE/DX =    0.0                 !
 ! R9    R(6,13)                 1.0898         -DE/DX =    0.0                 !
 ! R10   R(6,14)                 1.1016         -DE/DX =    0.0                 !
 ! R11   R(7,9)                  1.0894         -DE/DX =    0.0                 !
 ! R12   R(7,10)                 1.1016         -DE/DX =    0.0                 !
 ! R13   R(7,11)                 1.0898         -DE/DX =    0.0                 !
 ! R14   R(8,15)                 1.0894         -DE/DX =    0.0                 !
 ! R15   R(8,16)                 1.0894         -DE/DX =    0.0                 !
 ! R16   R(8,17)                 1.1019         -DE/DX =    0.0                 !
 ! A1    A(2,1,3)              107.2621         -DE/DX =    0.0                 !
 ! A2    A(2,1,4)              107.2642         -DE/DX =    0.0                 !
 ! A3    A(3,1,4)              106.3603         -DE/DX =    0.0                 !
 ! A4    A(1,2,5)              152.55           -DE/DX =    0.0                 !
 ! A5    A(2,5,6)               94.8425         -DE/DX =    0.0                 !
 ! A6    A(2,5,7)               94.8668         -DE/DX =    0.0                 !
 ! A7    A(2,5,8)              134.7963         -DE/DX =    0.0                 !
 ! A8    A(6,5,7)              109.64           -DE/DX =    0.0                 !
 ! A9    A(6,5,8)              110.1681         -DE/DX =    0.0                 !
 ! A10   A(7,5,8)              110.1687         -DE/DX =    0.0                 !
 ! A11   A(5,6,12)             109.3871         -DE/DX =    0.0                 !
 ! A12   A(5,6,13)             109.6548         -DE/DX =    0.0                 !
 ! A13   A(5,6,14)             111.7693         -DE/DX =    0.0                 !
 ! A14   A(12,6,13)            108.7948         -DE/DX =    0.0                 !
 ! A15   A(12,6,14)            108.7742         -DE/DX =    0.0                 !
 ! A16   A(13,6,14)            108.4053         -DE/DX =    0.0                 !
 ! A17   A(5,7,9)              109.3868         -DE/DX =    0.0                 !
 ! A18   A(5,7,10)             111.7695         -DE/DX =    0.0                 !
 ! A19   A(5,7,11)             109.6548         -DE/DX =    0.0                 !
 ! A20   A(9,7,10)             108.7742         -DE/DX =    0.0                 !
 ! A21   A(9,7,11)             108.7947         -DE/DX =    0.0                 !
 ! A22   A(10,7,11)            108.4054         -DE/DX =    0.0                 !
 ! A23   A(5,8,15)             109.7176         -DE/DX =    0.0                 !
 ! A24   A(5,8,16)             109.7177         -DE/DX =    0.0                 !
 ! A25   A(5,8,17)             111.9237         -DE/DX =    0.0                 !
 ! A26   A(15,8,16)            108.6266         -DE/DX =    0.0                 !
 ! A27   A(15,8,17)            108.3913         -DE/DX =    0.0                 !
 ! A28   A(16,8,17)            108.3913         -DE/DX =    0.0                 !
 ! D1    D(3,1,2,5)           -123.0591         -DE/DX =    0.0                 !
 ! D2    D(4,1,2,5)            123.0216         -DE/DX =    0.0                 !
 ! D3    D(2,1,3,4)           -114.5264         -DE/DX =    0.0                 !
 ! D4    D(1,2,5,6)            -55.1156         -DE/DX =    0.0                 !
 ! D5    D(1,2,5,7)             55.1118         -DE/DX =    0.0                 !
 ! D6    D(1,2,5,8)           -179.986          -DE/DX =    0.0                 !
 ! D7    D(2,5,6,12)            36.5703         -DE/DX =    0.0                 !
 ! D8    D(2,5,6,13)           -82.6627         -DE/DX =    0.0                 !
 ! D9    D(2,5,6,14)           157.0955         -DE/DX =    0.0                 !
 ! D10   D(7,5,6,12)           -60.3585         -DE/DX =    0.0                 !
 ! D11   D(7,5,6,13)          -179.5916         -DE/DX =    0.0                 !
 ! D12   D(7,5,6,14)            60.1667         -DE/DX =    0.0                 !
 ! D13   D(8,5,6,12)           178.2372         -DE/DX =    0.0                 !
 ! D14   D(8,5,6,13)            59.0041         -DE/DX =    0.0                 !
 ! D15   D(8,5,6,14)           -61.2376         -DE/DX =    0.0                 !
 ! D16   D(2,5,7,9)            -36.5507         -DE/DX =    0.0                 !
 ! D17   D(2,5,7,10)          -157.0758         -DE/DX =    0.0                 !
 ! D18   D(2,5,7,11)            82.6821         -DE/DX =    0.0                 !
 ! D19   D(6,5,7,9)             60.3611         -DE/DX =    0.0                 !
 ! D20   D(6,5,7,10)           -60.164          -DE/DX =    0.0                 !
 ! D21   D(6,5,7,11)           179.594          -DE/DX =    0.0                 !
 ! D22   D(8,5,7,9)           -178.235          -DE/DX =    0.0                 !
 ! D23   D(8,5,7,10)            61.2399         -DE/DX =    0.0                 !
 ! D24   D(8,5,7,11)           -59.0021         -DE/DX =    0.0                 !
 ! D25   D(2,5,8,15)            59.6105         -DE/DX =    0.0                 !
 ! D26   D(2,5,8,16)           -59.6562         -DE/DX =    0.0                 !
 ! D27   D(2,5,8,17)           179.9771         -DE/DX =    0.0                 !
 ! D28   D(6,5,8,15)           -59.8237         -DE/DX =    0.0                 !
 ! D29   D(6,5,8,16)          -179.0905         -DE/DX =    0.0                 !
 ! D30   D(6,5,8,17)            60.5428         -DE/DX =    0.0                 !
 ! D31   D(7,5,8,15)           179.0875         -DE/DX =    0.0                 !
 ! D32   D(7,5,8,16)            59.8207         -DE/DX =    0.0                 !
 ! D33   D(7,5,8,17)           -60.5459         -DE/DX =    0.0                 !
 --------------------------------------------------------------------------------
 GradGradGradGradGradGradGradGradGradGradGradGradGradGradGradGradGradGrad

                          Input orientation:                          
 ---------------------------------------------------------------------
 Center     Atomic      Atomic             Coordinates (Angstroms)
 Number     Number       Type             X           Y           Z
 ---------------------------------------------------------------------
      1          7           0       -2.654237    0.000105    0.269217
      2          1           0       -1.675609   -0.000053    0.555038
      3          1           0       -3.090530    0.810431    0.691652
      4          1           0       -3.090489   -0.810844    0.690491
      5          7           0        0.454658    0.000012    0.134437
      6          6           0        0.414481   -1.189197   -0.703470
      7          6           0        0.415188    1.189781   -0.702704
      8          6           0        1.659120   -0.000616    0.947923
      9          1           0       -0.506572    1.193015   -1.283277
     10          1           0        1.270730    1.230433   -1.395532
     11          1           0        0.437997    2.080432   -0.075169
     12          1           0       -0.507258   -1.191491   -1.284081
     13          1           0        0.436718   -2.080266   -0.076505
     14          1           0        1.270025   -1.229933   -1.396290
     15          1           0        1.673258   -0.885652    1.583002
     16          1           0        1.673821    0.884026    1.583536
     17          1           0        2.572230   -0.000720    0.331061
 ---------------------------------------------------------------------
                    Distance matrix (angstroms):
                    1          2          3          4          5
     1  N    0.000000
     2  H    1.019513   0.000000
     3  H    1.012636   1.636322   0.000000
     4  H    1.012633   1.636342   1.621275   0.000000
     5  N    3.111815   2.171392   3.679079   3.678961   0.000000
     6  C    3.431849   2.714108   4.269658   3.790922   1.455308
     7  C    3.432394   2.714600   3.791859   4.270043   1.455305
     8  C    4.366428   3.357793   4.825210   4.825093   1.453440
     9  H    2.906155   2.483840   3.274684   3.819403   2.087374
    10  H    4.437394   3.741622   4.853177   5.247717   2.126197
    11  H    3.742763   3.031981   3.827717   4.625573   2.091019
    12  H    2.905539   2.483330   3.818967   3.273669   2.087380
    13  H    3.741854   3.031181   4.624681   3.826343   2.091022
    14  H    4.436974   3.741263   5.247573   4.852254   2.126197
    15  H    4.608450   3.613296   5.134674   4.847211   2.089911
    16  H    4.608778   3.613597   4.847671   5.135052   2.089911
    17  H    5.226833   4.253740   5.731914   5.731656   2.126681
                    6          7          8          9         10
     6  C    0.000000
     7  C    2.378978   0.000000
     8  C    2.385152   2.385159   0.000000
     9  H    2.619055   1.089365   3.330650   0.000000
    10  H    2.658331   1.101642   2.675464   1.781237   0.000000
    11  H    3.329533   1.089761   2.620805   1.771791   1.777442
    12  H    1.089365   2.619038   3.330648   2.384506   3.006556
    13  H    1.089763   3.329534   2.620814   3.613926   3.660073
    14  H    1.101642   2.658350   2.675435   3.006617   2.460366
    15  H    2.627663   3.333859   1.089410   4.157893   3.675800
    16  H    3.333855   2.627648   1.089409   3.614997   3.026107
    17  H    2.671818   2.671852   1.101948   3.675610   2.488124
                   11         12         13         14         15
    11  H    0.000000
    12  H    3.613925   0.000000
    13  H    4.160698   1.771793   0.000000
    14  H    3.660075   1.781237   1.777442   0.000000
    15  H    3.615668   3.615018   2.389581   3.026104   0.000000
    16  H    2.389550   4.157897   3.615686   3.675763   1.769678
    17  H    3.008516   3.675577   3.008493   2.488060   1.777248
                   16         17
    16  H    0.000000
    17  H    1.777247   0.000000
 Stoichiometry    C3H12N2
 Framework group  C1[X(C3H12N2)]
 Deg. of freedom    45
 Full point group                 C1      NOp   1
 Largest Abelian subgroup         C1      NOp   1
 Largest concise Abelian subgroup C1      NOp   1
                         Standard orientation:                         
 ---------------------------------------------------------------------
 Center     Atomic      Atomic             Coordinates (Angstroms)
 Number     Number       Type             X           Y           Z
 ---------------------------------------------------------------------
      1          7           0       -2.654237    0.000105    0.269217
      2          1           0       -1.675609   -0.000053    0.555038
      3          1           0       -3.090530    0.810431    0.691652
      4          1           0       -3.090489   -0.810844    0.690491
      5          7           0        0.454658    0.000012    0.134437
      6          6           0        0.414481   -1.189197   -0.703470
      7          6           0        0.415188    1.189781   -0.702704
      8          6           0        1.659120   -0.000616    0.947923
      9          1           0       -0.506572    1.193015   -1.283277
     10          1           0        1.270730    1.230433   -1.395532
     11          1           0        0.437997    2.080432   -0.075169
     12          1           0       -0.507258   -1.191491   -1.284081
     13          1           0        0.436718   -2.080266   -0.076505
     14          1           0        1.270025   -1.229933   -1.396290
     15          1           0        1.673258   -0.885652    1.583002
     16          1           0        1.673821    0.884026    1.583536
     17          1           0        2.572230   -0.000720    0.331061
 ---------------------------------------------------------------------
 Rotational constants (GHZ):           5.6722089           2.3520400           2.2091256
 Unable to Open any file for archive entry.
 1\1\GINC-N3233\FOpt\RMP2-FC\Aug-CC-pVTZ\C3H12N2\GDS001\29-Mar-2025\0\\
 # MP2/aug-cc-pVTZ opt freq=(vibrot,anharmonic,selectAnharmonicModes)\\
 blah\\0,1\N,-2.654237,0.000105,0.269217\H,-1.675609,-0.000053,0.555038
 \H,-3.09053,0.810431,0.691652\H,-3.090489,-0.810844,0.690491\N,0.45465
 8,0.000012,0.134437\C,0.414481,-1.189197,-0.70347\C,0.415188,1.189781,
 -0.702704\C,1.65912,-0.000616,0.947923\H,-0.506572,1.193015,-1.283277\
 H,1.27073,1.230433,-1.395532\H,0.437997,2.080432,-0.075169\H,-0.507258
 ,-1.191491,-1.284081\H,0.436718,-2.080266,-0.076505\H,1.270025,-1.2299
 33,-1.39629\H,1.673258,-0.885652,1.583002\H,1.673821,0.884026,1.583536
 \H,2.57223,-0.00072,0.331061\\Version=EM64L-G16RevC.01\State=1-A\HF=-2
 29.556315\MP2=-230.569367\RMSD=6.224e-09\RMSF=8.472e-06\Dipole=0.43047
 51,-0.000372,0.3544133\PG=C01 [X(C3H12N2)]\\@
 The archive entry for this job was punched.


 IT MATTERS NOT HOW DEEP YOU PLOW,
 BUT HOW LONG YOU STAY IN THE FURROW.
 Job cpu time:       0 days  8 hours 29 minutes  8.7 seconds.
 Elapsed time:       0 days  0 hours 12 minutes 49.3 seconds.
 File lengths (MBytes):  RWF=  42176 Int=      0 D2E=      0 Chk=     25 Scr=      1
 Normal termination of Gaussian 16 at Sat Mar 29 10:53:49 2025.
 Link1:  Proceeding to internal job step number  2.
 ----------------------------------------------------------------------
 #N Geom=AllCheck Guess=TCheck SCRF=Check GenChk RMP2(FC)/Aug-CC-pVTZ F
 req
 ----------------------------------------------------------------------
 1/10=4,29=7,30=1,38=21,40=1,80=1/1,6,3;
 2/12=2,40=1/2;
 3/5=16,6=1,7=10,11=1,14=-4,25=1,30=1,70=2,71=2,116=1,140=1/1,2,3;
 4/5=101,69=2/1;
 5/5=2,38=6,98=1/2;
 8/6=3,8=1,10=1,19=11,30=-1/1;
 9/15=3,16=-3/6;
 11/6=1,8=1,15=11,17=12,24=-1,27=1,28=-2,29=300,32=6,42=3/1,2,10;
 10/6=2,21=1,60=-2/2;
 8/6=4,8=1,10=1,19=11,30=-1/11,4;
 10/5=1,20=4,60=-2/2;
 11/12=2,14=11,16=1,17=2,28=-2,42=3,76=2/2,10,12;
 6/7=2,8=2,9=2,10=2,22=-1/1;
 7/10=1,12=2,25=1,44=2,70=1,71=2,72=2/1,2,3,16;
 1/38=20,80=1/6(3);
 7/8=1,25=202,44=-1,70=1,71=1,72=2,92=10/16,17;
 1/10=4,30=1,38=20,80=1/3;
 99//99;
 3/5=16,6=1,7=10,11=1,14=-2,25=1,30=1,70=5,71=2,116=1,140=1/1,2,3;
 4/5=5,16=3,69=2/1;
 5/5=2,38=5,98=1/2;
 8/6=3,8=1,10=1,19=11,30=-1/1;
 9/15=3,16=-3/6;
 11/6=1,8=1,15=11,17=12,24=-1,27=1,28=-2,29=300,32=6,42=3/1,2,10;
 10/6=2,21=1,60=-2/2;
 8/6=4,8=1,10=1,19=11,30=-1/11,4;
 10/5=1,20=4,60=-2/2;
 11/12=2,14=11,16=1,17=2,28=-2,42=3,76=2/2,10,12;
 6/7=2,8=2,9=2,10=2,22=-1/1;
 7/7=1,10=1,12=2,25=1,44=2,70=1,71=1,72=2/1,2,3,16;
 1/38=20,80=1/6(-12);
 7/8=1,25=202,44=-1,70=1,71=1,72=2,92=10/16,17;
 1/10=4,30=1,38=20,80=1/3;
 99//99;
 Structure from the checkpoint file:  "/scr/Gau-82556.chk"
 ----
 blah
 ----
 Charge =  0 Multiplicity = 1
 Redundant internal coordinates found in file.  (old form).
 N,0,-2.654237,0.000105,0.269217
 H,0,-1.675609,-0.000053,0.555038
 H,0,-3.09053,0.810431,0.691652
 H,0,-3.090489,-0.810844,0.690491
 N,0,0.454658,0.000012,0.134437
 C,0,0.414481,-1.189197,-0.70347
 C,0,0.415188,1.189781,-0.702704
 C,0,1.65912,-0.000616,0.947923
 H,0,-0.506572,1.193015,-1.283277
 H,0,1.27073,1.230433,-1.395532
 H,0,0.437997,2.080432,-0.075169
 H,0,-0.507258,-1.191491,-1.284081
 H,0,0.436718,-2.080266,-0.076505
 H,0,1.270025,-1.229933,-1.39629
 H,0,1.673258,-0.885652,1.583002
 H,0,1.673821,0.884026,1.583536
 H,0,2.57223,-0.00072,0.331061
 Recover connectivity data from disk.
 Numerical evaluation of third derivatives.
 Nuclear step= 0.010000 Angstroms, electric field step= 0.000333 atomic units, NStep=1.

 GradGradGradGradGradGradGradGradGradGradGradGradGradGradGradGradGradGrad
 Berny optimization.
 Initialization pass.
                           ----------------------------
                           !    Initial Parameters    !
                           ! (Angstroms and Degrees)  !
 --------------------------                            --------------------------
 ! Name  Definition              Value          Derivative Info.                !
 --------------------------------------------------------------------------------
 ! R1    R(1,2)                  1.0195         calculate D2E/DX2 analytically  !
 ! R2    R(1,3)                  1.0126         calculate D2E/DX2 analytically  !
 ! R3    R(1,4)                  1.0126         calculate D2E/DX2 analytically  !
 ! R4    R(2,5)                  2.1714         calculate D2E/DX2 analytically  !
 ! R5    R(5,6)                  1.4553         calculate D2E/DX2 analytically  !
 ! R6    R(5,7)                  1.4553         calculate D2E/DX2 analytically  !
 ! R7    R(5,8)                  1.4534         calculate D2E/DX2 analytically  !
 ! R8    R(6,12)                 1.0894         calculate D2E/DX2 analytically  !
 ! R9    R(6,13)                 1.0898         calculate D2E/DX2 analytically  !
 ! R10   R(6,14)                 1.1016         calculate D2E/DX2 analytically  !
 ! R11   R(7,9)                  1.0894         calculate D2E/DX2 analytically  !
 ! R12   R(7,10)                 1.1016         calculate D2E/DX2 analytically  !
 ! R13   R(7,11)                 1.0898         calculate D2E/DX2 analytically  !
 ! R14   R(8,15)                 1.0894         calculate D2E/DX2 analytically  !
 ! R15   R(8,16)                 1.0894         calculate D2E/DX2 analytically  !
 ! R16   R(8,17)                 1.1019         calculate D2E/DX2 analytically  !
 ! A1    A(2,1,3)              107.2621         calculate D2E/DX2 analytically  !
 ! A2    A(2,1,4)              107.2642         calculate D2E/DX2 analytically  !
 ! A3    A(3,1,4)              106.3603         calculate D2E/DX2 analytically  !
 ! A4    A(1,2,5)              152.55           calculate D2E/DX2 analytically  !
 ! A5    A(2,5,6)               94.8425         calculate D2E/DX2 analytically  !
 ! A6    A(2,5,7)               94.8668         calculate D2E/DX2 analytically  !
 ! A7    A(2,5,8)              134.7963         calculate D2E/DX2 analytically  !
 ! A8    A(6,5,7)              109.64           calculate D2E/DX2 analytically  !
 ! A9    A(6,5,8)              110.1681         calculate D2E/DX2 analytically  !
 ! A10   A(7,5,8)              110.1687         calculate D2E/DX2 analytically  !
 ! A11   A(5,6,12)             109.3871         calculate D2E/DX2 analytically  !
 ! A12   A(5,6,13)             109.6548         calculate D2E/DX2 analytically  !
 ! A13   A(5,6,14)             111.7693         calculate D2E/DX2 analytically  !
 ! A14   A(12,6,13)            108.7948         calculate D2E/DX2 analytically  !
 ! A15   A(12,6,14)            108.7742         calculate D2E/DX2 analytically  !
 ! A16   A(13,6,14)            108.4053         calculate D2E/DX2 analytically  !
 ! A17   A(5,7,9)              109.3868         calculate D2E/DX2 analytically  !
 ! A18   A(5,7,10)             111.7695         calculate D2E/DX2 analytically  !
 ! A19   A(5,7,11)             109.6548         calculate D2E/DX2 analytically  !
 ! A20   A(9,7,10)             108.7742         calculate D2E/DX2 analytically  !
 ! A21   A(9,7,11)             108.7947         calculate D2E/DX2 analytically  !
 ! A22   A(10,7,11)            108.4054         calculate D2E/DX2 analytically  !
 ! A23   A(5,8,15)             109.7176         calculate D2E/DX2 analytically  !
 ! A24   A(5,8,16)             109.7177         calculate D2E/DX2 analytically  !
 ! A25   A(5,8,17)             111.9237         calculate D2E/DX2 analytically  !
 ! A26   A(15,8,16)            108.6266         calculate D2E/DX2 analytically  !
 ! A27   A(15,8,17)            108.3913         calculate D2E/DX2 analytically  !
 ! A28   A(16,8,17)            108.3913         calculate D2E/DX2 analytically  !
 ! D1    D(3,1,2,5)           -123.0591         calculate D2E/DX2 analytically  !
 ! D2    D(4,1,2,5)            123.0216         calculate D2E/DX2 analytically  !
 ! D3    D(2,1,3,4)           -114.5264         calculate D2E/DX2 analytically  !
 ! D4    D(1,2,5,6)            -55.1156         calculate D2E/DX2 analytically  !
 ! D5    D(1,2,5,7)             55.1118         calculate D2E/DX2 analytically  !
 ! D6    D(1,2,5,8)           -179.986          calculate D2E/DX2 analytically  !
 ! D7    D(2,5,6,12)            36.5703         calculate D2E/DX2 analytically  !
 ! D8    D(2,5,6,13)           -82.6627         calculate D2E/DX2 analytically  !
 ! D9    D(2,5,6,14)           157.0955         calculate D2E/DX2 analytically  !
 ! D10   D(7,5,6,12)           -60.3585         calculate D2E/DX2 analytically  !
 ! D11   D(7,5,6,13)          -179.5916         calculate D2E/DX2 analytically  !
 ! D12   D(7,5,6,14)            60.1667         calculate D2E/DX2 analytically  !
 ! D13   D(8,5,6,12)           178.2372         calculate D2E/DX2 analytically  !
 ! D14   D(8,5,6,13)            59.0041         calculate D2E/DX2 analytically  !
 ! D15   D(8,5,6,14)           -61.2376         calculate D2E/DX2 analytically  !
 ! D16   D(2,5,7,9)            -36.5507         calculate D2E/DX2 analytically  !
 ! D17   D(2,5,7,10)          -157.0758         calculate D2E/DX2 analytically  !
 ! D18   D(2,5,7,11)            82.6821         calculate D2E/DX2 analytically  !
 ! D19   D(6,5,7,9)             60.3611         calculate D2E/DX2 analytically  !
 ! D20   D(6,5,7,10)           -60.164          calculate D2E/DX2 analytically  !
 ! D21   D(6,5,7,11)           179.594          calculate D2E/DX2 analytically  !
 ! D22   D(8,5,7,9)           -178.235          calculate D2E/DX2 analytically  !
 ! D23   D(8,5,7,10)            61.2399         calculate D2E/DX2 analytically  !
 ! D24   D(8,5,7,11)           -59.0021         calculate D2E/DX2 analytically  !
 ! D25   D(2,5,8,15)            59.6105         calculate D2E/DX2 analytically  !
 ! D26   D(2,5,8,16)           -59.6562         calculate D2E/DX2 analytically  !
 ! D27   D(2,5,8,17)           179.9771         calculate D2E/DX2 analytically  !
 ! D28   D(6,5,8,15)           -59.8237         calculate D2E/DX2 analytically  !
 ! D29   D(6,5,8,16)          -179.0905         calculate D2E/DX2 analytically  !
 ! D30   D(6,5,8,17)            60.5428         calculate D2E/DX2 analytically  !
 ! D31   D(7,5,8,15)           179.0875         calculate D2E/DX2 analytically  !
 ! D32   D(7,5,8,16)            59.8207         calculate D2E/DX2 analytically  !
 ! D33   D(7,5,8,17)           -60.5459         calculate D2E/DX2 analytically  !
 --------------------------------------------------------------------------------
 Trust Radius=3.00D-01 FncErr=1.00D-07 GrdErr=1.00D-07 EigMax=2.50D+02 EigMin=1.00D-04
 Number of steps in this run=      2 maximum allowed number of steps=      2.
 GradGradGradGradGradGradGradGradGradGradGradGradGradGradGradGradGradGrad

                          Input orientation:                          
 ---------------------------------------------------------------------
 Center     Atomic      Atomic             Coordinates (Angstroms)
 Number     Number       Type             X           Y           Z
 ---------------------------------------------------------------------
      1          7           0       -2.654237    0.000105    0.269217
      2          1           0       -1.675609   -0.000053    0.555038
      3          1           0       -3.090530    0.810431    0.691652
      4          1           0       -3.090489   -0.810844    0.690491
      5          7           0        0.454658    0.000012    0.134437
      6          6           0        0.414481   -1.189197   -0.703470
      7          6           0        0.415188    1.189781   -0.702704
      8          6           0        1.659120   -0.000616    0.947923
      9          1           0       -0.506572    1.193015   -1.283277
     10          1           0        1.270730    1.230433   -1.395532
     11          1           0        0.437997    2.080432   -0.075169
     12          1           0       -0.507258   -1.191491   -1.284081
     13          1           0        0.436718   -2.080266   -0.076505
     14          1           0        1.270025   -1.229933   -1.396290
     15          1           0        1.673258   -0.885652    1.583002
     16          1           0        1.673821    0.884026    1.583536
     17          1           0        2.572230   -0.000720    0.331061
 ---------------------------------------------------------------------
                    Distance matrix (angstroms):
                    1          2          3          4          5
     1  N    0.000000
     2  H    1.019513   0.000000
     3  H    1.012636   1.636322   0.000000
     4  H    1.012633   1.636342   1.621275   0.000000
     5  N    3.111815   2.171392   3.679079   3.678961   0.000000
     6  C    3.431849   2.714108   4.269658   3.790922   1.455308
     7  C    3.432394   2.714600   3.791859   4.270043   1.455305
     8  C    4.366428   3.357793   4.825210   4.825093   1.453440
     9  H    2.906155   2.483840   3.274684   3.819403   2.087374
    10  H    4.437394   3.741622   4.853177   5.247717   2.126197
    11  H    3.742763   3.031981   3.827717   4.625573   2.091019
    12  H    2.905539   2.483330   3.818967   3.273669   2.087380
    13  H    3.741854   3.031181   4.624681   3.826343   2.091022
    14  H    4.436974   3.741263   5.247573   4.852254   2.126197
    15  H    4.608450   3.613296   5.134674   4.847211   2.089911
    16  H    4.608778   3.613597   4.847671   5.135052   2.089911
    17  H    5.226833   4.253740   5.731914   5.731656   2.126681
                    6          7          8          9         10
     6  C    0.000000
     7  C    2.378978   0.000000
     8  C    2.385152   2.385159   0.000000
     9  H    2.619055   1.089365   3.330650   0.000000
    10  H    2.658331   1.101642   2.675464   1.781237   0.000000
    11  H    3.329533   1.089761   2.620805   1.771791   1.777442
    12  H    1.089365   2.619038   3.330648   2.384506   3.006556
    13  H    1.089763   3.329534   2.620814   3.613926   3.660073
    14  H    1.101642   2.658350   2.675435   3.006617   2.460366
    15  H    2.627663   3.333859   1.089410   4.157893   3.675800
    16  H    3.333855   2.627648   1.089409   3.614997   3.026107
    17  H    2.671818   2.671852   1.101948   3.675610   2.488124
                   11         12         13         14         15
    11  H    0.000000
    12  H    3.613925   0.000000
    13  H    4.160698   1.771793   0.000000
    14  H    3.660075   1.781237   1.777442   0.000000
    15  H    3.615668   3.615018   2.389581   3.026104   0.000000
    16  H    2.389550   4.157897   3.615686   3.675763   1.769678
    17  H    3.008516   3.675577   3.008493   2.488060   1.777248
                   16         17
    16  H    0.000000
    17  H    1.777247   0.000000
 Stoichiometry    C3H12N2
 Framework group  C1[X(C3H12N2)]
 Deg. of freedom    45
 Full point group                 C1      NOp   1
 Largest Abelian subgroup         C1      NOp   1
 Largest concise Abelian subgroup C1      NOp   1
                         Standard orientation:                         
 ---------------------------------------------------------------------
 Center     Atomic      Atomic             Coordinates (Angstroms)
 Number     Number       Type             X           Y           Z
 ---------------------------------------------------------------------
      1          7           0       -2.654237    0.000105    0.269217
      2          1           0       -1.675609   -0.000053    0.555038
      3          1           0       -3.090530    0.810431    0.691652
      4          1           0       -3.090489   -0.810844    0.690491
      5          7           0        0.454658    0.000012    0.134437
      6          6           0        0.414481   -1.189197   -0.703470
      7          6           0        0.415188    1.189781   -0.702704
      8          6           0        1.659120   -0.000616    0.947923
      9          1           0       -0.506572    1.193015   -1.283277
     10          1           0        1.270730    1.230433   -1.395532
     11          1           0        0.437997    2.080432   -0.075169
     12          1           0       -0.507258   -1.191491   -1.284081
     13          1           0        0.436718   -2.080266   -0.076505
     14          1           0        1.270025   -1.229933   -1.396290
     15          1           0        1.673258   -0.885652    1.583002
     16          1           0        1.673821    0.884026    1.583536
     17          1           0        2.572230   -0.000720    0.331061
 ---------------------------------------------------------------------
 Rotational constants (GHZ):           5.6722089           2.3520400           2.2091256
 Standard basis: Aug-CC-pVTZ (5D, 7F)
 There are   575 symmetry adapted cartesian basis functions of A   symmetry.
 There are   506 symmetry adapted basis functions of A   symmetry.
   506 basis functions,   684 primitive gaussians,   575 cartesian basis functions
    22 alpha electrons       22 beta electrons
       nuclear repulsion energy       201.0031859120 Hartrees.
 NAtoms=   17 NActive=   17 NUniq=   17 SFac= 1.00D+00 NAtFMM=   60 NAOKFM=F Big=F
 Integral buffers will be    131072 words long.
 Raffenetti 1 integral format.
 Two-electron integral symmetry is turned on.
 One-electron integrals computed using PRISM.
 NBasis=   506 RedAO= T EigKep=  6.57D-06  NBF=   506
 NBsUse=   506 1.00D-06 EigRej= -1.00D+00 NBFU=   506
 Initial guess from the checkpoint file:  "/scr/Gau-82556.chk"
 B after Tr=    -0.000000    0.000000    0.000000
         Rot=    1.000000   -0.000000   -0.000000    0.000000 Ang=   0.00 deg.
 Requested convergence on RMS density matrix=1.00D-08 within 128 cycles.
[...]
 Calling FoFCou, ICntrl=  3107 FMM=F I1Cent=   0 AccDes= 0.00D+00.
 End of G2Drv F.D. properties file   721 does not exist.
 End of G2Drv F.D. properties file   722 does not exist.
 End of G2Drv F.D. properties file   788 does not exist.
 Would need an additional 20808192506 words for in-memory AO integral storage.
 DD1Dir will call FoFJK   2 times, MxPair=       254
 NAB=   253 NAA=     0 NBB=     0 NumPrc= 40.
 FoFJK:  IHMeth= 1 ICntrl=     200 DoSepK=F KAlg= 0 I1Cent=           0 FoldK=F
 IRaf= 990000000 NMat=     254 IRICut=     317 DoRegI=T DoRafI=T ISym2E= 0 IDoP0=3 IntGTp=3.
 FoFCou: FMM=F IPFlag=           0 FMFlag=           0 FMFlg1=           0
         NFxFlg=           0 DoJE=F BraDBF=F KetDBF=F FulRan=T
         wScrn=  0.000000 ICntrl=       200 IOpCl=  0 I1Cent=           0 NGrid=           0
         NMat0=  254 NMatS0=      0 NMatT0=  127 NMatD0=  254 NMtDS0=    0 NMtDT0=    0
 Symmetry not used in FoFCou.
 Raff kept on since  98.34% of shell-pairs survive, threshold=   0.20 IRatSp=98.
 Discarding MO integrals.

 **********************************************************************

            Population analysis using the MP2 Density.

 **********************************************************************

 Alpha  occ. eigenvalues --  -15.55191 -15.52018 -11.24151 -11.23875 -11.23873
 Alpha  occ. eigenvalues --   -1.23106  -1.12179  -0.95344  -0.95017  -0.80978
 Alpha  occ. eigenvalues --   -0.65693  -0.63325  -0.63157  -0.61004  -0.59969
 Alpha  occ. eigenvalues --   -0.54657  -0.54540  -0.51962  -0.50157  -0.50139
 Alpha  occ. eigenvalues --   -0.41180  -0.36404
 Alpha virt. eigenvalues --    0.02842   0.03875   0.03922   0.04132   0.05592
 Alpha virt. eigenvalues --    0.05729   0.05966   0.06031   0.06677   0.07831
 Alpha virt. eigenvalues --    0.08273   0.08482   0.11947   0.12235   0.13094
 Alpha virt. eigenvalues --    0.13126   0.13501   0.14283   0.14616   0.15056
 Alpha virt. eigenvalues --    0.15296   0.16190   0.16710   0.18388   0.18454
 Alpha virt. eigenvalues --    0.18694   0.18913   0.19855   0.20656   0.21117
 Alpha virt. eigenvalues --    0.21778   0.24742   0.25223   0.25405   0.26251
 Alpha virt. eigenvalues --    0.26965   0.28019   0.28345   0.30015   0.30942
 Alpha virt. eigenvalues --    0.31377   0.33018   0.33831   0.34265   0.34865
 Alpha virt. eigenvalues --    0.34994   0.35403   0.35640   0.36686   0.36719
 Alpha virt. eigenvalues --    0.37869   0.37980   0.38596   0.38789   0.38939
 Alpha virt. eigenvalues --    0.39422   0.39716   0.40658   0.40944   0.41603
 Alpha virt. eigenvalues --    0.42250   0.42525   0.43444   0.43886   0.45079
 Alpha virt. eigenvalues --    0.45265   0.46083   0.46109   0.47167   0.47676
 Alpha virt. eigenvalues --    0.47822   0.48339   0.48772   0.49467   0.49494
 Alpha virt. eigenvalues --    0.50351   0.50964   0.51664   0.52347   0.53479
 Alpha virt. eigenvalues --    0.53666   0.53831   0.54746   0.55097   0.56123
 Alpha virt. eigenvalues --    0.56956   0.57998   0.58584   0.60649   0.60792
 Alpha virt. eigenvalues --    0.61254   0.62356   0.62899   0.63453   0.64351
 Alpha virt. eigenvalues --    0.64611   0.65610   0.66794   0.67894   0.68503
 Alpha virt. eigenvalues --    0.68941   0.71963   0.73937   0.74895   0.75224
 Alpha virt. eigenvalues --    0.75687   0.76033   0.77599   0.78603   0.79501
 Alpha virt. eigenvalues --    0.79650   0.81087   0.81716   0.83191   0.84891
 Alpha virt. eigenvalues --    0.84989   0.87155   0.88678   0.89252   0.89498
 Alpha virt. eigenvalues --    0.90818   0.91309   0.91334   0.91725   0.93042
 Alpha virt. eigenvalues --    0.93075   0.93691   0.94001   0.94742   0.94804
 Alpha virt. eigenvalues --    0.96042   0.96898   0.97676   0.98380   0.98963
 Alpha virt. eigenvalues --    0.99492   1.01386   1.02161   1.03466   1.03626
 Alpha virt. eigenvalues --    1.04005   1.05398   1.06043   1.06883   1.07559
 Alpha virt. eigenvalues --    1.08875   1.09359   1.10964   1.11580   1.13034
 Alpha virt. eigenvalues --    1.13515   1.13661   1.13925   1.15339   1.15705
 Alpha virt. eigenvalues --    1.16566   1.19010   1.19067   1.19403   1.19665
 Alpha virt. eigenvalues --    1.20470   1.20495   1.22248   1.23085   1.24004
 Alpha virt. eigenvalues --    1.24051   1.24416   1.25707   1.26778   1.27217
 Alpha virt. eigenvalues --    1.27828   1.28317   1.30761   1.31446   1.32323
 Alpha virt. eigenvalues --    1.33903   1.34778   1.35233   1.37650   1.37875
 Alpha virt. eigenvalues --    1.38930   1.39531   1.40685   1.42517   1.43171
 Alpha virt. eigenvalues --    1.43651   1.44202   1.45371   1.45416   1.47810
 Alpha virt. eigenvalues --    1.50787   1.51261   1.52913   1.53060   1.54120
 Alpha virt. eigenvalues --    1.54563   1.54774   1.55305   1.55950   1.57541
 Alpha virt. eigenvalues --    1.57601   1.62892   1.63280   1.63578   1.65329
 Alpha virt. eigenvalues --    1.66179   1.66335   1.67284   1.68021   1.68571
 Alpha virt. eigenvalues --    1.69442   1.70453   1.70726   1.72051   1.72737
 Alpha virt. eigenvalues --    1.75286   1.75707   1.76058   1.78092   1.78237
 Alpha virt. eigenvalues --    1.79380   1.79969   1.81868   1.83085   1.83894
 Alpha virt. eigenvalues --    1.85318   1.87385   1.87471   1.89743   1.91016
 Alpha virt. eigenvalues --    1.91907   1.93571   1.93773   1.96192   1.98193
 Alpha virt. eigenvalues --    1.99570   1.99643   2.00239   2.01778   2.03721
 Alpha virt. eigenvalues --    2.04955   2.06225   2.06617   2.07409   2.09219
 Alpha virt. eigenvalues --    2.10898   2.12550   2.14429   2.15660   2.17285
 Alpha virt. eigenvalues --    2.17372   2.18577   2.18969   2.21584   2.22158
 Alpha virt. eigenvalues --    2.23265   2.23864   2.25375   2.28476   2.28609
 Alpha virt. eigenvalues --    2.29495   2.30959   2.31233   2.33005   2.37906
 Alpha virt. eigenvalues --    2.38274   2.38651   2.40387   2.42893   2.44785
 Alpha virt. eigenvalues --    2.45693   2.45779   2.46837   2.49649   2.50553
 Alpha virt. eigenvalues --    2.51525   2.53237   2.56849   2.57967   2.58644
 Alpha virt. eigenvalues --    2.61052   2.65749   2.65857   2.70240   2.71900
 Alpha virt. eigenvalues --    2.72101   2.73443   2.74824   2.79938   2.81230
 Alpha virt. eigenvalues --    2.86561   3.03124   3.04971   3.06658   3.17630
 Alpha virt. eigenvalues --    3.20848   3.30428   3.41540   3.41992   3.46517
 Alpha virt. eigenvalues --    3.49708   3.54113   3.55286   3.56182   3.59790
 Alpha virt. eigenvalues --    3.60418   3.63962   3.64809   3.67299   3.68648
 Alpha virt. eigenvalues --    3.70666   3.70855   3.74330   3.77103   3.77457
 Alpha virt. eigenvalues --    3.78684   3.81184   3.81498   3.81512   3.83794
 Alpha virt. eigenvalues --    3.84868   3.85786   3.89884   3.90984   3.91892
 Alpha virt. eigenvalues --    3.92756   3.93010   3.94721   3.94756   3.95371
 Alpha virt. eigenvalues --    3.98701   4.00296   4.01399   4.02360   4.02896
 Alpha virt. eigenvalues --    4.03207   4.05054   4.05682   4.10760   4.12158
 Alpha virt. eigenvalues --    4.13263   4.14155   4.15995   4.16509   4.21056
 Alpha virt. eigenvalues --    4.21671   4.23041   4.24321   4.25433   4.26192
 Alpha virt. eigenvalues --    4.27958   4.29131   4.31115   4.31161   4.32216
 Alpha virt. eigenvalues --    4.32572   4.35018   4.35660   4.36372   4.38137
 Alpha virt. eigenvalues --    4.41067   4.41731   4.43185   4.44485   4.46621
 Alpha virt. eigenvalues --    4.47825   4.51914   4.52574   4.53266   4.54376
 Alpha virt. eigenvalues --    4.56080   4.60190   4.60211   4.64188   4.65552
 Alpha virt. eigenvalues --    4.66525   4.66589   4.67756   4.71354   4.71930
 Alpha virt. eigenvalues --    4.74197   4.77153   4.80001   4.81460   4.81480
 Alpha virt. eigenvalues --    4.84248   4.85539   4.86212   4.86725   4.87502
 Alpha virt. eigenvalues --    4.91355   4.91409   4.91790   4.92759   4.97313
 Alpha virt. eigenvalues --    5.00629   5.02309   5.03624   5.03632   5.04630
 Alpha virt. eigenvalues --    5.09161   5.09626   5.09885   5.11726   5.14858
 Alpha virt. eigenvalues --    5.15272   5.18169   5.18221   5.21572   5.22537
 Alpha virt. eigenvalues --    5.25057   5.26816   5.29077   5.30056   5.32300
 Alpha virt. eigenvalues --    5.36095   5.40824   5.40837   5.40991   5.42792
 Alpha virt. eigenvalues --    5.43248   5.48638   5.50662   5.51647   5.54905
 Alpha virt. eigenvalues --    5.54923   5.58874   5.61487   5.65369   5.66179
 Alpha virt. eigenvalues --    5.66738   5.69198   5.73134   5.76817   5.78482
 Alpha virt. eigenvalues --    5.81207   5.84629   5.87207   5.91134   5.91167
 Alpha virt. eigenvalues --    5.92018   5.95398   5.97459   5.98190   6.02577
 Alpha virt. eigenvalues --    6.07853   6.08557   6.08917   6.13076   6.14929
 Alpha virt. eigenvalues --    6.15019   6.20905   6.22396   6.26090   6.29338
 Alpha virt. eigenvalues --    6.31588   6.34351   6.39681   6.40801   6.47498
 Alpha virt. eigenvalues --    6.50260   6.55284   6.59085   6.81002   6.81833
 Alpha virt. eigenvalues --    6.82325   6.83518   6.86908   6.87144   6.93215
 Alpha virt. eigenvalues --    6.94374   6.96441   6.99311   7.02915   7.03408
 Alpha virt. eigenvalues --    7.06614   7.14700   7.81539   7.82272  17.02900
 Alpha virt. eigenvalues --   18.21664  18.55138  18.57323  19.00528
          Condensed to atoms (all electrons):
               1          2          3          4          5          6
     1  N    6.990516   0.042092   0.314294   0.314274  -0.029383  -0.017045
     2  H    0.042092   0.683964  -0.015447  -0.015364  -0.048869  -0.011415
     3  H    0.314294  -0.015447   0.605781  -0.023275  -0.009177   0.000578
     4  H    0.314274  -0.015364  -0.023275   0.605674  -0.009166   0.004008
     5  N   -0.029383  -0.048869  -0.009177  -0.009166   7.810806  -0.035546
     6  C   -0.017045  -0.011415   0.000578   0.004008  -0.035546   6.923475
     7  C   -0.017011  -0.011475   0.004009   0.000578  -0.035408  -0.125767
     8  C    0.013542  -0.027857   0.001776   0.001774  -0.168149  -0.153886
     9  H    0.004318   0.001656  -0.001435   0.002761  -0.036973   0.015245
    10  H   -0.000059   0.007442   0.000508   0.000261  -0.096123   0.007221
    11  H    0.002531   0.001522   0.000128   0.000078  -0.002845  -0.001377
    12  H    0.004331   0.001615   0.002765  -0.001445  -0.036873   0.080941
    13  H    0.002536   0.001504   0.000077   0.000126  -0.002751   0.152877
    14  H   -0.000063   0.007466   0.000262   0.000509  -0.096266   0.140836
    15  H   -0.000512   0.003194   0.000191   0.000243  -0.103894   0.013666
    16  H   -0.000512   0.003196   0.000243   0.000191  -0.103904  -0.007575
    17  H    0.000607   0.000427   0.000164   0.000164  -0.081350   0.008260
               7          8          9         10         11         12
     1  N   -0.017011   0.013542   0.004318  -0.000059   0.002531   0.004331
     2  H   -0.011475  -0.027857   0.001656   0.007442   0.001522   0.001615
     3  H    0.004009   0.001776  -0.001435   0.000508   0.000128   0.002765
     4  H    0.000578   0.001774   0.002761   0.000261   0.000078  -0.001445
     5  N   -0.035408  -0.168149  -0.036973  -0.096123  -0.002845  -0.036873
     6  C   -0.125767  -0.153886   0.015245   0.007221  -0.001377   0.080941
     7  C    6.923196  -0.153800   0.081094   0.140819   0.152883   0.015269
     8  C   -0.153800   6.894196  -0.006159   0.023601   0.007608  -0.006171
     9  H    0.081094  -0.006159   0.663273  -0.033340  -0.044329  -0.005381
    10  H    0.140819   0.023601  -0.033340   0.673692  -0.031723  -0.007672
    11  H    0.152883   0.007608  -0.044329  -0.031723   0.629580   0.004787
    12  H    0.015269  -0.006171  -0.005381  -0.007672   0.004787   0.663430
    13  H   -0.001378   0.007608   0.004783   0.003542  -0.002915  -0.044337
    14  H    0.007189   0.023603  -0.007650   0.007679   0.003546  -0.033441
    15  H   -0.007581   0.167722  -0.004733   0.006283   0.003570   0.005502
    16  H    0.013663   0.167714   0.005504   0.004475  -0.020160  -0.004735
    17  H    0.008256   0.175851   0.002839   0.002638  -0.006193   0.002839
              13         14         15         16         17
     1  N    0.002536  -0.000063  -0.000512  -0.000512   0.000607
     2  H    0.001504   0.007466   0.003194   0.003196   0.000427
     3  H    0.000077   0.000262   0.000191   0.000243   0.000164
     4  H    0.000126   0.000509   0.000243   0.000191   0.000164
     5  N   -0.002751  -0.096266  -0.103894  -0.103904  -0.081350
     6  C    0.152877   0.140836   0.013666  -0.007575   0.008260
     7  C   -0.001378   0.007189  -0.007581   0.013663   0.008256
     8  C    0.007608   0.023603   0.167722   0.167714   0.175851
     9  H    0.004783  -0.007650  -0.004733   0.005504   0.002839
    10  H    0.003542   0.007679   0.006283   0.004475   0.002638
    11  H   -0.002915   0.003546   0.003570  -0.020160  -0.006193
    12  H   -0.044337  -0.033441   0.005502  -0.004735   0.002839
    13  H    0.629590  -0.031795  -0.020170   0.003571  -0.006203
    14  H   -0.031795   0.674022   0.004482   0.006290   0.002656
    15  H   -0.020170   0.004482   0.631298  -0.029277   0.004003
    16  H    0.003571   0.006290  -0.029277   0.631321   0.003993
    17  H   -0.006203   0.002656   0.004003   0.003993   0.555159
 Mulliken charges:
               1
     1  N   -0.624456
     2  H    0.376347
     3  H    0.118558
     4  H    0.118608
     5  N    0.085873
     6  C   -0.994497
     7  C   -0.994537
     8  C   -0.968973
     9  H    0.358526
    10  H    0.290754
    11  H    0.303309
    12  H    0.358576
    13  H    0.303333
    14  H    0.290675
    15  H    0.326013
    16  H    0.326002
    17  H    0.325889
 Sum of Mulliken charges =  -0.00000
 Mulliken charges with hydrogens summed into heavy atoms:
               1
     1  N   -0.010943
     5  N    0.085873
     6  C   -0.041913
     7  C   -0.041948
     8  C    0.008931
 APT charges:
               1
     1  N   -0.494749
     2  H    0.242795
     3  H    0.130483
     4  H    0.130481
     5  N   -0.670237
     6  C    0.297234
     7  C    0.297257
     8  C    0.320434
     9  H    0.008829
    10  H   -0.069882
    11  H   -0.013695
    12  H    0.008841
    13  H   -0.013694
    14  H   -0.069879
    15  H   -0.013136
    16  H   -0.013136
    17  H   -0.077946
 Sum of APT charges =  -0.00000
 APT charges with hydrogens summed into heavy atoms:
               1
     1  N    0.009010
     5  N   -0.670237
     6  C    0.222502
     7  C    0.222508
     8  C    0.216216
 Electronic spatial extent (au):  <R**2>=            676.7936
 Charge=             -0.0000 electrons
 Dipole moment (field-independent basis, Debye):
    X=              1.0930    Y=             -0.0010    Z=              0.9087  Tot=              1.4214
 Quadrupole moment (field-independent basis, Debye-Ang):
   XX=            -36.6869   YY=            -33.0714   ZZ=            -36.0290
   XY=              0.0032   XZ=             -2.7741   YZ=              0.0017
 Traceless Quadrupole moment (field-independent basis, Debye-Ang):
   XX=             -1.4245   YY=              2.1910   ZZ=             -0.7666
   XY=              0.0032   XZ=             -2.7741   YZ=              0.0017
 Octapole moment (field-independent basis, Debye-Ang**2):
  XXX=             -6.9954  YYY=             -0.0023  ZZZ=              1.9240  XYY=             -5.7034
  XXY=             -0.0087  XXZ=             13.4298  XZZ=              0.2638  YZZ=              0.0027
  YYZ=              3.4556  XYZ=             -0.0047
 Hexadecapole moment (field-independent basis, Debye-Ang**3):
 XXXX=           -546.4899 YYYY=           -202.1040 ZZZZ=           -171.0302 XXXY=              0.0288
 XXXZ=            -42.6567 YYYX=              0.0069 YYYZ=              0.0010 ZZZX=              2.6143
 ZZZY=              0.0050 XXYY=           -115.4747 XXZZ=           -122.0638 YYZZ=            -60.5140
 XXYZ=              0.0172 YYXZ=             -2.1445 ZZXY=             -0.0054
 N-N= 2.010458896701D+02 E-N=-9.382173940421D+02  KE= 2.303684245396D+02
  Exact polarizability:      68.243       0.000      62.953       0.038      -0.001      62.702
 Approx polarizability:      51.887       0.000      51.788      -0.337       0.000      51.569
 Calling FoFJK, ICntrl=  10100127 FMM=F ISym2X=0 I1Cent= 0 IOpClX= 0 NMat=1 NMatS=1 NMatT=0.
 -------------------------------------------------------------------
 Center     Atomic                   Forces (Hartrees/Bohr)
 Number     Number              X              Y              Z
 -------------------------------------------------------------------
      1        7          -0.000013127    0.000003865    0.000007432
      2        1           0.000013325   -0.000000410   -0.000031057
      3        1          -0.000000632    0.000001108    0.000001779
      4        1           0.000000641   -0.000003011    0.000003546
      5        7           0.000064951   -0.000002137    0.000000514
      6        6           0.000168686    0.000208750   -0.000026441
      7        6           0.000161577   -0.000204689   -0.000024077
      8        6           0.001354202    0.000002076   -0.006252141
      9        1          -0.000159057    0.000011839   -0.000100293
     10        1          -0.000013839   -0.000020169    0.000028434
     11        1           0.000003677    0.000192138    0.000127137
     12        1          -0.000162676   -0.000011626   -0.000102486
     13        1           0.000003974   -0.000196223    0.000130008
     14        1          -0.000015608    0.000020241    0.000029735
     15        1           0.000058563   -0.003829852    0.002601530
     16        1           0.000060685    0.003827776    0.002603835
     17        1          -0.001525342    0.000000324    0.001002547
 -------------------------------------------------------------------
 Cartesian Forces:  Max     0.006252141 RMS     0.001309547
 NDeriv=     32 NFrqRd=  0 NDerD0=      0 MskFDP=       0 MskDFD=       0 MskDF0=       0
 Re-enter D2Numr:  normal mode     24 step-up   number 1
 Standard basis: Aug-CC-pVTZ (5D, 7F)
   506 basis functions,   684 primitive gaussians,   575 cartesian basis functions
    22 alpha electrons       22 beta electrons
       nuclear repulsion energy       200.9610459717 Hartrees.
 NAtoms=   17 NActive=   17 NUniq=   17 SFac= 1.00D+00 NAtFMM=   60 NAOKFM=F Big=F
 Integral buffers will be    131072 words long.
 Raffenetti 1 integral format.
 Two-electron integral symmetry is turned off.
 One-electron integrals computed using PRISM.
 NBasis=   506 RedAO= T EigKep=  6.57D-06  NBF=   506
 NBsUse=   506 1.00D-06 EigRej= -1.00D+00 NBFU=   506
 Initial guess from the checkpoint file:  "/scr/Gau-82556.chk"
 B after Tr=    -0.000054   -0.000000    0.000190
         Rot=    1.000000    0.000000    0.000030    0.000000 Ang=   0.00 deg.
 Requested convergence on RMS density matrix=1.00D-08 within 128 cycles.
 Requested convergence on MAX density matrix=1.00D-06.
 Requested convergence on             energy=1.00D-06.
 No special actions if energy rises.
 SCF Done:  E(RHF) =  -229.556143689     A.U. after    8 cycles
            NFock=  8  Conv=0.38D-08     -V/T= 2.0013
 ExpMin= 2.53D-02 ExpMax= 1.14D+04 ExpMxC= 3.89D+02 IAcc=3 IRadAn=         5 AccDes= 0.00D+00
 HarFok:  IExCor=  205 AccDes= 0.00D+00 IRadAn=         5 IDoV=-2 UseB2=F ITyADJ=14
 ICtDFT= 12500011 ScaDFX=  1.000000  1.000000  1.000000  1.000000
 Range of M.O.s used for correlation:     6   506
 NBasis=   506 NAE=    22 NBE=    22 NFC=     5 NFV=     0
 NROrb=    501 NOA=    17 NOB=    17 NVA=   484 NVB=   484

 **** Warning!!: The largest alpha MO coefficient is  0.95823352D+02

 Disk-based method using ON**2 memory for 17 occupieds at a time.
 Permanent disk used for amplitudes=   140380570 words.
 Estimated scratch disk usage=  5748454852 words.
 Actual    scratch disk usage=  5558669252 words.
 JobTyp=1 Pass  1:  I=   6 to  22 NPSUse= 40 ParTrn=T ParDer=T DoDerP=T.
