 Entering Gaussian System, Link 0=g16
 Input=az_nh3_mp2_avdz_opt_anharm.gjf
 Output=az_nh3_mp2_avdz_opt_anharm.log
 Initial command:
 /sw/contrib/gaussian/g16/A03/g16/l1.exe "/gscratch/scrubbed/gds001/Gau-31369.inp" -scrdir="/gscratch/scrubbed/gds001/"
 Entering Link 1 = /sw/contrib/gaussian/g16/A03/g16/l1.exe PID=     31370.
  
 Copyright (c) 1988,1990,1992,1993,1995,1998,2003,2009,2016,
            Gaussian, Inc.  All Rights Reserved.
  
 This is part of the Gaussian(R) 16 program.  It is based on
 the Gaussian(R) 09 system (copyright 2009, Gaussian, Inc.),
 the Gaussian(R) 03 system (copyright 2003, Gaussian, Inc.),
 the Gaussian(R) 98 system (copyright 1998, Gaussian, Inc.),
 the Gaussian(R) 94 system (copyright 1995, Gaussian, Inc.),
 the Gaussian 92(TM) system (copyright 1992, Gaussian, Inc.),
 the Gaussian 90(TM) system (copyright 1990, Gaussian, Inc.),
 the Gaussian 88(TM) system (copyright 1988, Gaussian, Inc.),
 the Gaussian 86(TM) system (copyright 1986, Carnegie Mellon
 University), and the Gaussian 82(TM) system (copyright 1983,
 Carnegie Mellon University). Gaussian is a federally registered
 trademark of Gaussian, Inc.
  
 This software contains proprietary and confidential information,
 including trade secrets, belonging to Gaussian, Inc.
  
 This software is provided under written license and may be
 used, copied, transmitted, or stored only in accord with that
 written license.
  
 The following legend is applicable only to US Government
 contracts under FAR:
  
                    RESTRICTED RIGHTS LEGEND
  
 Use, reproduction and disclosure by the US Government is
 subject to restrictions as set forth in subparagraphs (a)
 and (c) of the Commercial Computer Software - Restricted
 Rights clause in FAR 52.227-19.
  
 Gaussian, Inc.
 340 Quinnipiac St., Bldg. 40, Wallingford CT 06492
  
  
 ---------------------------------------------------------------
 Warning -- This program may not be used in any manner that
 competes with the business of Gaussian, Inc. or will provide
 assistance to any competitor of Gaussian, Inc.  The licensee
 of this program is prohibited from giving any competitor of
 Gaussian, Inc. access to this program.  By using this program,
 the user acknowledges that Gaussian, Inc. is engaged in the
 business of creating and licensing software in the field of
 computational chemistry and represents and warrants to the
 licensee that it is not a competitor of Gaussian, Inc. and that
 it will not use this program in any manner prohibited above.
 ---------------------------------------------------------------
  

 Cite this work as:
 Gaussian 16, Revision A.03,
 M. J. Frisch, G. W. Trucks, H. B. Schlegel, G. E. Scuseria, 
 M. A. Robb, J. R. Cheeseman, G. Scalmani, V. Barone, 
 G. A. Petersson, H. Nakatsuji, X. Li, M. Caricato, A. V. Marenich, 
 J. Bloino, B. G. Janesko, R. Gomperts, B. Mennucci, H. P. Hratchian, 
 J. V. Ortiz, A. F. Izmaylov, J. L. Sonnenberg, D. Williams-Young, 
 F. Ding, F. Lipparini, F. Egidi, J. Goings, B. Peng, A. Petrone, 
 T. Henderson, D. Ranasinghe, V. G. Zakrzewski, J. Gao, N. Rega, 
 G. Zheng, W. Liang, M. Hada, M. Ehara, K. Toyota, R. Fukuda, 
 J. Hasegawa, M. Ishida, T. Nakajima, Y. Honda, O. Kitao, H. Nakai, 
 T. Vreven, K. Throssell, J. A. Montgomery, Jr., J. E. Peralta, 
 F. Ogliaro, M. J. Bearpark, J. J. Heyd, E. N. Brothers, K. N. Kudin, 
 V. N. Staroverov, T. A. Keith, R. Kobayashi, J. Normand, 
 K. Raghavachari, A. P. Rendell, J. C. Burant, S. S. Iyengar, 
 J. Tomasi, M. Cossi, J. M. Millam, M. Klene, C. Adamo, R. Cammi, 
 J. W. Ochterski, R. L. Martin, K. Morokuma, O. Farkas, 
 J. B. Foresman, and D. J. Fox, Gaussian, Inc., Wallingford CT, 2016.
 
 ******************************************
 Gaussian 16:  ES64L-G16RevA.03 25-Dec-2016
                20-Dec-2021 
 ******************************************
 %nprocshared=28
 Will use up to   28 processors via shared memory.
 %mem=41GB
 ----------------------------------------------
 # MP2/aug-cc-pVDZ opt freq=(vibrot,anharmonic)
 ----------------------------------------------
 1/18=20,19=15,38=1,80=1/1,3;
 2/9=110,12=2,17=6,18=5,40=1/2;
 3/5=16,7=10,11=9,25=1,30=1,71=1/1,2,3;
 4//1;
 5/5=2,38=5/2;
 8/6=4,10=1/1;
 9/15=2,16=-3/6;
 10/5=1/2;
 6/7=2,8=2,9=2,10=2/1;
 7/12=2/1,2,3,16;
 1/18=20,19=15,80=1/3(2);
 2/9=110/2;
 99//99;
 2/9=110/2;
 3/5=16,7=10,11=9,25=1,30=1,71=1/1,2,3;
 4/5=5,16=3,69=1/1;
 5/5=2,38=5/2;
 8/6=4,10=1/1;
 9/15=2,16=-3/6;
 10/5=1/2;
 7/12=2/1,2,3,16;
 1/18=20,19=15,80=1/3(-8);
 2/9=110/2;
 6/7=2,8=2,9=2,10=2/1;
 99//99;
 ----
 bleh
 ----
 Symbolic Z-matrix:
 Charge =  0 Multiplicity = 1
 N                    -0.44994   0.11132   0.56213 
 H                     0.50184   0.08705   0.15679 
 C                    -1.35854  -0.71441  -0.22634 
 C                    -1.37201   0.78303  -0.34763 
 N                     2.39076   0.05352  -0.46594 
 H                    -2.16046  -1.19161   0.32182 
 H                    -0.91225  -1.29817  -1.02091 
 H                    -0.93508   1.2392   -1.22643 
 H                    -2.18313   1.32781   0.11776 
 H                     2.74337  -0.70927   0.11555 
 H                     2.90867  -0.0145   -1.34286 
 H                     2.72896   0.90767  -0.01835 
 
 Add virtual bond connecting atoms N5         and H2         Dist= 3.76D+00.

 GradGradGradGradGradGradGradGradGradGradGradGradGradGradGradGradGradGrad
 Berny optimization.
 Initialization pass.
                           ----------------------------
                           !    Initial Parameters    !
                           ! (Angstroms and Degrees)  !
 --------------------------                            --------------------------
 ! Name  Definition              Value          Derivative Info.                !
 --------------------------------------------------------------------------------
 ! R1    R(1,2)                  1.0348         estimate D2E/DX2                !
 ! R2    R(1,3)                  1.4591         estimate D2E/DX2                !
 ! R3    R(1,4)                  1.4591         estimate D2E/DX2                !
 ! R4    R(2,5)                  1.9892         estimate D2E/DX2                !
 ! R5    R(3,4)                  1.5024         estimate D2E/DX2                !
 ! R6    R(3,6)                  1.0823         estimate D2E/DX2                !
 ! R7    R(3,7)                  1.0823         estimate D2E/DX2                !
 ! R8    R(4,8)                  1.0823         estimate D2E/DX2                !
 ! R9    R(4,9)                  1.0823         estimate D2E/DX2                !
 ! R10   R(5,10)                 1.0219         estimate D2E/DX2                !
 ! R11   R(5,11)                 1.0207         estimate D2E/DX2                !
 ! R12   R(5,12)                 1.0219         estimate D2E/DX2                !
 ! A1    A(2,1,3)              110.3532         estimate D2E/DX2                !
 ! A2    A(2,1,4)              110.3536         estimate D2E/DX2                !
 ! A3    A(1,3,6)              115.927          estimate D2E/DX2                !
 ! A4    A(1,3,7)              116.4356         estimate D2E/DX2                !
 ! A5    A(4,3,6)              118.2759         estimate D2E/DX2                !
 ! A6    A(4,3,7)              118.8188         estimate D2E/DX2                !
 ! A7    A(6,3,7)              116.0767         estimate D2E/DX2                !
 ! A8    A(1,4,8)              116.4357         estimate D2E/DX2                !
 ! A9    A(1,4,9)              115.927          estimate D2E/DX2                !
 ! A10   A(3,4,8)              118.8187         estimate D2E/DX2                !
 ! A11   A(3,4,9)              118.2759         estimate D2E/DX2                !
 ! A12   A(8,4,9)              116.0767         estimate D2E/DX2                !
 ! A13   A(2,5,10)              99.3291         estimate D2E/DX2                !
 ! A14   A(2,5,11)             138.7553         estimate D2E/DX2                !
 ! A15   A(2,5,12)              99.3846         estimate D2E/DX2                !
 ! A16   A(10,5,11)            105.3103         estimate D2E/DX2                !
 ! A17   A(10,5,12)            105.0982         estimate D2E/DX2                !
 ! A18   A(11,5,12)            105.3109         estimate D2E/DX2                !
 ! A19   L(1,2,5,7,-1)         183.8739         estimate D2E/DX2                !
 ! A20   L(1,2,5,7,-2)         183.1321         estimate D2E/DX2                !
 ! D1    D(3,1,5,10)           -92.7222         estimate D2E/DX2                !
 ! D2    D(3,1,5,11)            33.8654         estimate D2E/DX2                !
 ! D3    D(3,1,5,12)           160.553          estimate D2E/DX2                !
 ! D4    D(4,1,5,10)          -160.7364         estimate D2E/DX2                !
 ! D5    D(4,1,5,11)           -34.1487         estimate D2E/DX2                !
 ! D6    D(4,1,5,12)            92.5389         estimate D2E/DX2                !
 ! D7    D(2,1,3,6)            148.3155         estimate D2E/DX2                !
 ! D8    D(2,1,3,7)              6.3582         estimate D2E/DX2                !
 ! D9    D(2,1,4,8)             -6.3587         estimate D2E/DX2                !
 ! D10   D(2,1,4,9)           -148.3161         estimate D2E/DX2                !
 ! D11   D(6,3,4,8)           -149.955          estimate D2E/DX2                !
 ! D12   D(6,3,4,9)              0.0            estimate D2E/DX2                !
 ! D13   D(7,3,4,8)              0.0002         estimate D2E/DX2                !
 ! D14   D(7,3,4,9)            149.9551         estimate D2E/DX2                !
 --------------------------------------------------------------------------------
 Trust Radius=3.00D-01 FncErr=1.00D-07 GrdErr=1.00D-07 EigMax=2.50D+02 EigMin=1.00D-04
 Number of steps in this run=     56 maximum allowed number of steps=    100.
 GradGradGradGradGradGradGradGradGradGradGradGradGradGradGradGradGradGrad

                          Input orientation:                          
 ---------------------------------------------------------------------
 Center     Atomic      Atomic             Coordinates (Angstroms)
 Number     Number       Type             X           Y           Z
 ---------------------------------------------------------------------
      1          7           0       -0.449941    0.111320    0.562126
      2          1           0        0.501842    0.087047    0.156788
      3          6           0       -1.358538   -0.714409   -0.226344
      4          6           0       -1.372011    0.783028   -0.347629
      5          7           0        2.390758    0.053515   -0.465939
      6          1           0       -2.160460   -1.191613    0.321825
      7          1           0       -0.912251   -1.298174   -1.020913
      8          1           0       -0.935084    1.239205   -1.226429
      9          1           0       -2.183130    1.327810    0.117765
     10          1           0        2.743373   -0.709267    0.115553
     11          1           0        2.908671   -0.014496   -1.342859
     12          1           0        2.728959    0.907674   -0.018354
 ---------------------------------------------------------------------
                    Distance matrix (angstroms):
                    1          2          3          4          5
     1  N    0.000000
     2  H    1.034784   0.000000
     3  C    1.459130   2.061586   0.000000
     4  C    1.459129   2.061590   1.502401   0.000000
     5  N    3.021561   1.989200   3.834623   3.834660   0.000000
     6  H    2.163621   2.958050   1.082262   2.229131   4.783775
     7  H    2.169428   2.303362   1.082263   2.235194   3.611777
     8  H    2.169428   2.303370   2.235193   1.082263   3.611846
     9  H    2.163620   2.958055   2.229130   1.082263   4.783826
    10  H    3.327167   2.379133   4.116138   4.402030   1.021913
    11  H    3.863298   2.837618   4.466044   4.466628   1.020709
    12  H    3.328143   2.379948   4.402504   4.116055   1.021910
                    6          7          8          9         10
     6  H    0.000000
     7  H    1.836389   0.000000
     8  H    3.131694   2.545790   0.000000
     9  H    2.527774   3.131694   1.836389   0.000000
    10  H    4.931814   3.873236   4.373614   5.331052   0.000000
    11  H    5.463778   4.043628   4.044722   5.464581   1.623883
    12  H    5.331899   4.373705   3.872282   4.931902   1.622540
                   11         12
    11  H    0.000000
    12  H    1.623887   0.000000
 Stoichiometry    C2H8N2
 Framework group  C1[X(C2H8N2)]
 Deg. of freedom    30
 Full point group                 C1      NOp   1
 Largest Abelian subgroup         C1      NOp   1
 Largest concise Abelian subgroup C1      NOp   1
                         Standard orientation:                         
 ---------------------------------------------------------------------
 Center     Atomic      Atomic             Coordinates (Angstroms)
 Number     Number       Type             X           Y           Z
 ---------------------------------------------------------------------
      1          7           0        0.503727    0.000016   -0.692898
      2          1           0       -0.477445    0.000032   -0.364142
      3          6           0        1.348155   -0.751213    0.229955
      4          6           0        1.348193    0.751188    0.229965
      5          7           0       -2.410144   -0.000012    0.106594
      6          1           0        2.192635   -1.263918   -0.211949
      7          1           0        0.840991   -1.272900    1.031154
      8          1           0        0.841057    1.272890    1.031172
      9          1           0        2.192699    1.263856   -0.211932
     10          1           0       -2.713104   -0.810367   -0.437324
     11          1           0       -2.996572   -0.001643    0.942026
     12          1           0       -2.713434    0.812171   -0.434399
 ---------------------------------------------------------------------
 Rotational constants (GHZ):          15.2588310           2.8815248           2.7321230
 Standard basis: Aug-CC-pVDZ (5D, 7F)
 There are   172 symmetry adapted cartesian basis functions of A   symmetry.
 There are   164 symmetry adapted basis functions of A   symmetry.
   164 basis functions,   260 primitive gaussians,   172 cartesian basis functions
    17 alpha electrons       17 beta electrons
       nuclear repulsion energy       123.3155354233 Hartrees.
 NAtoms=   12 NActive=   12 NUniq=   12 SFac= 1.00D+00 NAtFMM=   60 NAOKFM=F Big=F
 Integral buffers will be    131072 words long.
 Raffenetti 1 integral format.
 Two-electron integral symmetry is turned on.
 One-electron integrals computed using PRISM.
 NBasis=   164 RedAO= T EigKep=  5.37D-05  NBF=   164
 NBsUse=   164 1.00D-06 EigRej= -1.00D+00 NBFU=   164
 ExpMin= 2.97D-02 ExpMax= 9.05D+03 ExpMxC= 3.09D+02 IAcc=3 IRadAn=         5 AccDes= 0.00D+00
 Harris functional with IExCor=  205 and IRadAn=       5 diagonalized for initial guess.
 HarFok:  IExCor=  205 AccDes= 0.00D+00 IRadAn=         5 IDoV= 1 UseB2=F ITyADJ=14
 ICtDFT=  3500011 ScaDFX=  1.000000  1.000000  1.000000  1.000000
 FoFCou: FMM=F IPFlag=           0 FMFlag=      100000 FMFlg1=           0
         NFxFlg=           0 DoJE=T BraDBF=F KetDBF=T FulRan=T
         wScrn=  0.000000 ICntrl=       500 IOpCl=  0 I1Cent=   200000004 NGrid=           0
         NMat0=    1 NMatS0=      1 NMatT0=    0 NMatD0=    1 NMtDS0=    0 NMtDT0=    0
 Petite list used in FoFCou.
 Keep R1 ints in memory in canonical form, NReq=97723387.
 Requested convergence on RMS density matrix=1.00D-08 within 128 cycles.
 Requested convergence on MAX density matrix=1.00D-06.
 Requested convergence on             energy=1.00D-06.
 No special actions if energy rises.
 SCF Done:  E(RHF) =  -189.264796925     A.U. after   12 cycles
            NFock= 12  Conv=0.30D-08     -V/T= 2.0018
 ExpMin= 2.97D-02 ExpMax= 9.05D+03 ExpMxC= 3.09D+02 IAcc=3 IRadAn=         5 AccDes= 0.00D+00
 HarFok:  IExCor=  205 AccDes= 0.00D+00 IRadAn=         5 IDoV=-2 UseB2=F ITyADJ=14
 ICtDFT= 12500011 ScaDFX=  1.000000  1.000000  1.000000  1.000000
 Range of M.O.s used for correlation:     5   164
 NBasis=   164 NAE=    17 NBE=    17 NFC=     4 NFV=     0
 NROrb=    160 NOA=    13 NOB=    13 NVA=   147 NVB=   147

 **** Warning!!: The largest alpha MO coefficient is  0.32867903D+02

 Fully direct method using O(ONN) memory.
 JobTyp=1 Pass  1:  I=   5 to  17 NPSUse= 28 ParTrn=T ParDer=T DoDerP=T.
 Spin components of T(2) and E(2):
     alpha-alpha T2 =       0.2789383658D-01 E2=     -0.8114746015D-01
     alpha-beta  T2 =       0.1665511141D+00 E2=     -0.5111852695D+00
     beta-beta   T2 =       0.2789383658D-01 E2=     -0.8114746015D-01
 ANorm=    0.1105594314D+01
 E2 =    -0.6734801898D+00 EUMP2 =    -0.18993827711443D+03
          IDoAtm=111111111111
          Differentiating once with respect to electric field.
                with respect to dipole field.
          Differentiating once with respect to nuclear coordinates.
 Keep R1 ints in memory in canonical form, NReq=97732655.
          There are     1 degrees of freedom in the 1st order CPHF.  IDoFFX=0 NUNeed=     1.
 LinEq1:  Iter=  0 NonCon=     1 RMS=3.38D-03 Max=3.20D-02 NDo=     1
 AX will form     1 AO Fock derivatives at one time.
 LinEq1:  Iter=  1 NonCon=     1 RMS=5.48D-04 Max=6.45D-03 NDo=     1
 LinEq1:  Iter=  2 NonCon=     1 RMS=2.33D-04 Max=2.44D-03 NDo=     1
 LinEq1:  Iter=  3 NonCon=     1 RMS=5.21D-05 Max=6.04D-04 NDo=     1
 LinEq1:  Iter=  4 NonCon=     1 RMS=1.94D-05 Max=1.98D-04 NDo=     1
 LinEq1:  Iter=  5 NonCon=     1 RMS=5.10D-06 Max=8.91D-05 NDo=     1
 LinEq1:  Iter=  6 NonCon=     1 RMS=9.96D-07 Max=1.07D-05 NDo=     1
 LinEq1:  Iter=  7 NonCon=     1 RMS=2.47D-07 Max=2.32D-06 NDo=     1
 LinEq1:  Iter=  8 NonCon=     1 RMS=8.39D-08 Max=7.24D-07 NDo=     1
 LinEq1:  Iter=  9 NonCon=     1 RMS=1.35D-08 Max=9.83D-08 NDo=     1
 LinEq1:  Iter= 10 NonCon=     1 RMS=2.75D-09 Max=1.99D-08 NDo=     1
 LinEq1:  Iter= 11 NonCon=     1 RMS=5.43D-10 Max=3.72D-09 NDo=     1
 LinEq1:  Iter= 12 NonCon=     1 RMS=1.16D-10 Max=1.00D-09 NDo=     1
 LinEq1:  Iter= 13 NonCon=     0 RMS=2.07D-11 Max=2.04D-10 NDo=     1
 Linear equations converged to 1.000D-10 1.000D-09 after    13 iterations.
 End of Minotr F.D. properties file   721 does not exist.
 End of Minotr F.D. properties file   722 does not exist.
 End of Minotr F.D. properties file   788 does not exist.

 **********************************************************************

            Population analysis using the SCF density.

 **********************************************************************

 Orbital symmetries:
       Occupied  (A) (A) (A) (A) (A) (A) (A) (A) (A) (A) (A) (A)
                 (A) (A) (A) (A) (A)
       Virtual   (A) (A) (A) (A) (A) (A) (A) (A) (A) (A) (A) (A)
                 (A) (A) (A) (A) (A) (A) (A) (A) (A) (A) (A) (A)
                 (A) (A) (A) (A) (A) (A) (A) (A) (A) (A) (A) (A)
                 (A) (A) (A) (A) (A) (A) (A) (A) (A) (A) (A) (A)
                 (A) (A) (A) (A) (A) (A) (A) (A) (A) (A) (A) (A)
                 (A) (A) (A) (A) (A) (A) (A) (A) (A) (A) (A) (A)
                 (A) (A) (A) (A) (A) (A) (A) (A) (A) (A) (A) (A)
                 (A) (A) (A) (A) (A) (A) (A) (A) (A) (A) (A) (A)
                 (A) (A) (A) (A) (A) (A) (A) (A) (A) (A) (A) (A)
                 (A) (A) (A) (A) (A) (A) (A) (A) (A) (A) (A) (A)
                 (A) (A) (A) (A) (A) (A) (A) (A) (A) (A) (A) (A)
                 (A) (A) (A) (A) (A) (A) (A) (A) (A) (A) (A) (A)
                 (A) (A) (A)
 The electronic state is 1-A.
 Alpha  occ. eigenvalues --  -15.57356 -15.53445 -11.24203 -11.24136  -1.23677
 Alpha  occ. eigenvalues --   -1.16295  -0.86516  -0.82367  -0.67802  -0.64341
 Alpha  occ. eigenvalues --   -0.64163  -0.61532  -0.51322  -0.48060  -0.46054
 Alpha  occ. eigenvalues --   -0.43014  -0.36073
 Alpha virt. eigenvalues --    0.02966   0.05001   0.05003   0.05289   0.06775
 Alpha virt. eigenvalues --    0.06802   0.07938   0.08941   0.13271   0.13512
 Alpha virt. eigenvalues --    0.13655   0.15216   0.16615   0.18522   0.18684
 Alpha virt. eigenvalues --    0.19140   0.19848   0.21335   0.21468   0.22955
 Alpha virt. eigenvalues --    0.24727   0.25583   0.26687   0.29532   0.30110
 Alpha virt. eigenvalues --    0.30874   0.31921   0.32220   0.34340   0.34887
 Alpha virt. eigenvalues --    0.35772   0.38849   0.42807   0.43595   0.44529
 Alpha virt. eigenvalues --    0.44983   0.46291   0.46679   0.47870   0.49153
 Alpha virt. eigenvalues --    0.51606   0.51808   0.52550   0.53600   0.54121
 Alpha virt. eigenvalues --    0.54491   0.55493   0.57579   0.59317   0.60520
 Alpha virt. eigenvalues --    0.61456   0.62214   0.63926   0.64840   0.65394
 Alpha virt. eigenvalues --    0.65968   0.66337   0.67536   0.68994   0.69378
 Alpha virt. eigenvalues --    0.72068   0.73799   0.74473   0.75906   0.76896
 Alpha virt. eigenvalues --    0.78528   0.80627   0.81285   0.86205   0.89026
 Alpha virt. eigenvalues --    0.91037   0.91709   0.96081   0.96597   0.97290
 Alpha virt. eigenvalues --    1.04096   1.04192   1.06548   1.12968   1.19109
 Alpha virt. eigenvalues --    1.19956   1.22527   1.24981   1.25461   1.28078
 Alpha virt. eigenvalues --    1.28919   1.29577   1.35592   1.40173   1.47749
 Alpha virt. eigenvalues --    1.60448   1.66181   1.69414   1.71225   1.71534
 Alpha virt. eigenvalues --    1.72127   1.82393   1.83574   1.84356   1.88464
 Alpha virt. eigenvalues --    1.90919   1.93481   1.93955   1.98991   1.99233
 Alpha virt. eigenvalues --    2.01453   2.05797   2.06615   2.10837   2.14216
 Alpha virt. eigenvalues --    2.17667   2.20056   2.20507   2.20622   2.22950
 Alpha virt. eigenvalues --    2.32691   2.33482   2.35941   2.38761   2.39835
 Alpha virt. eigenvalues --    2.40502   2.42575   2.43440   2.46597   2.49368
 Alpha virt. eigenvalues --    2.54183   2.63939   2.68808   2.70202   2.73591
 Alpha virt. eigenvalues --    2.75491   2.82958   2.84490   2.88666   2.90593
 Alpha virt. eigenvalues --    2.90775   2.94740   3.07433   3.10115   3.14923
 Alpha virt. eigenvalues --    3.17787   3.33112   3.37113   3.46711   3.53633
 Alpha virt. eigenvalues --    3.57973   3.69148
          Condensed to atoms (all electrons):
               1          2          3          4          5          6
     1  N    7.295950   0.291540   0.142335   0.142321  -0.063498  -0.093005
     2  H    0.291540   0.748327  -0.053604  -0.053698  -0.087549   0.007577
     3  C    0.142335  -0.053604   4.242654   0.281745   0.010832   0.303548
     4  C    0.142321  -0.053698   0.281745   4.242712   0.010840   0.001456
     5  N   -0.063498  -0.087549   0.010832   0.010840   6.153857   0.000012
     6  H   -0.093005   0.007577   0.303548   0.001456   0.000012   1.329957
     7  H   -0.024544  -0.001450   0.216974  -0.003663   0.003876  -0.263769
     8  H   -0.024567  -0.001505  -0.003690   0.217048   0.003878   0.068477
     9  H   -0.092968   0.007602   0.001434   0.303568   0.000009  -0.068667
    10  H   -0.003202  -0.015848  -0.000033   0.001842   0.417270   0.000090
    11  H    0.004538   0.015390  -0.002808  -0.002794   0.371721  -0.000372
    12  H   -0.003195  -0.015858   0.001842  -0.000036   0.417213   0.000166
               7          8          9         10         11         12
     1  N   -0.024544  -0.024567  -0.092968  -0.003202   0.004538  -0.003195
     2  H   -0.001450  -0.001505   0.007602  -0.015848   0.015390  -0.015858
     3  C    0.216974  -0.003690   0.001434  -0.000033  -0.002808   0.001842
     4  C   -0.003663   0.217048   0.303568   0.001842  -0.002794  -0.000036
     5  N    0.003876   0.003878   0.000009   0.417270   0.371721   0.417213
     6  H   -0.263769   0.068477  -0.068667   0.000090  -0.000372   0.000166
     7  H    1.429148  -0.100101   0.068469  -0.002281   0.001576  -0.000109
     8  H   -0.100101   1.429234  -0.263814  -0.000110   0.001576  -0.002282
     9  H    0.068469  -0.263814   1.329934   0.000165  -0.000374   0.000092
    10  H   -0.002281  -0.000110   0.000165   0.680360  -0.094891  -0.030014
    11  H    0.001576   0.001576  -0.000374  -0.094891   0.741871  -0.094933
    12  H   -0.000109  -0.002282   0.000092  -0.030014  -0.094933   0.680413
 Mulliken charges:
               1
     1  N   -0.571704
     2  H    0.159075
     3  C    0.858770
     4  C    0.858659
     5  N   -0.238460
     6  H   -0.285470
     7  H   -0.324127
     8  H   -0.324144
     9  H   -0.285452
    10  H    0.046651
    11  H    0.059501
    12  H    0.046702
 Sum of Mulliken charges =  -0.00000
 Mulliken charges with hydrogens summed into heavy atoms:
               1
     1  N   -0.412629
     3  C    0.249173
     4  C    0.249063
     5  N   -0.085606
 Electronic spatial extent (au):  <R**2>=            487.3392
 Charge=             -0.0000 electrons
 Dipole moment (field-independent basis, Debye):
    X=             -2.7454    Y=              0.0002    Z=              1.4331  Tot=              3.0969
 Quadrupole moment (field-independent basis, Debye-Ang):
   XX=            -17.8763   YY=            -25.1814   ZZ=            -29.2037
   XY=             -0.0002   XZ=              0.3340   YZ=              0.0002
 Traceless Quadrupole moment (field-independent basis, Debye-Ang):
   XX=              6.2108   YY=             -1.0942   ZZ=             -5.1166
   XY=             -0.0002   XZ=              0.3340   YZ=              0.0002
 Octapole moment (field-independent basis, Debye-Ang**2):
  XXX=            -29.8680  YYY=              0.0056  ZZZ=              5.1342  XYY=             -5.0184
  XXY=             -0.0009  XXZ=             -1.7520  XZZ=             -9.1594  YZZ=             -0.0050
  YYZ=             -0.1793  XYZ=              0.0006
 Hexadecapole moment (field-independent basis, Debye-Ang**3):
 XXXX=           -410.2678 YYYY=            -95.8060 ZZZZ=            -71.2684 XXXY=              0.0072
 XXXZ=            -17.2725 YYYX=             -0.0162 YYYZ=              0.0000 ZZZX=             -2.5611
 ZZZY=              0.0005 XXYY=            -81.6256 XXZZ=            -82.1079 YYZZ=            -25.5345
 XXYZ=             -0.0040 YYXZ=              1.7574 ZZXY=              0.0147
 N-N= 1.233155354233D+02 E-N=-6.890716766362D+02  KE= 1.889180935238D+02
 Calling FoFJK, ICntrl=  10002127 FMM=F ISym2X=0 I1Cent= 0 IOpClX= 0 NMat=1 NMatS=1 NMatT=0.
 ***** Axes restored to original set *****
 -------------------------------------------------------------------
 Center     Atomic                   Forces (Hartrees/Bohr)
 Number     Number              X              Y              Z
 -------------------------------------------------------------------
      1        7           0.013957045    0.001969745    0.022764495
      2        1          -0.009851125   -0.000167144   -0.000958812
      3        6          -0.000002931    0.005105720   -0.006810997
      4        6           0.000097542   -0.006134326   -0.005900195
      5        7           0.005866333    0.000094733    0.000521817
      6        1          -0.004136915   -0.003972238    0.004582614
      7        1           0.000382208   -0.003508685   -0.008324535
      8        1           0.000331355    0.002129613   -0.008781652
      9        1          -0.004213876    0.004583456    0.003889479
     10        1          -0.000638694   -0.000274675    0.000141366
     11        1          -0.001146703   -0.000110632   -0.001219345
     12        1          -0.000644238    0.000284431    0.000095765
 -------------------------------------------------------------------
 Cartesian Forces:  Max     0.022764495 RMS     0.005938630

 GradGradGradGradGradGradGradGradGradGradGradGradGradGradGradGradGradGrad
 Berny optimization.
 FormGI is forming the generalized inverse of G from B-inverse, IUseBI=4.
 Internal  Forces:  Max     0.009959053 RMS     0.003962411
 Search for a local minimum.
 Step number   1 out of a maximum of   56
 All quantities printed in internal units (Hartrees-Bohrs-Radians)
 Mixed Optimization -- RFO/linear search
 Second derivative matrix not updated -- first step.
 ITU=  0
     Eigenvalues ---    0.00230   0.00230   0.00230   0.02294   0.03502
     Eigenvalues ---    0.03566   0.03574   0.03916   0.04384   0.04857
     Eigenvalues ---    0.08219   0.12344   0.12409   0.13724   0.16000
     Eigenvalues ---    0.16000   0.16000   0.16000   0.16000   0.25103
     Eigenvalues ---    0.33289   0.35721   0.35722   0.35722   0.35722
     Eigenvalues ---    0.35728   0.42060   0.44034   0.44035   0.44225
 RFO step:  Lambda=-3.55569957D-03 EMin= 2.30000000D-03
 Linear search not attempted -- first point.
 Iteration  1 RMS(Cart)=  0.06538875 RMS(Int)=  0.00249495
 Iteration  2 RMS(Cart)=  0.00295833 RMS(Int)=  0.00030122
 Iteration  3 RMS(Cart)=  0.00000978 RMS(Int)=  0.00030114
 Iteration  4 RMS(Cart)=  0.00000000 RMS(Int)=  0.00030114
 Variable       Old X    -DE/DX   Delta X   Delta X   Delta X     New X
                                 (Linear)    (Quad)   (Total)
    R1        1.95546  -0.00539   0.00000  -0.01259  -0.01257   1.94288
    R2        2.75736   0.00996   0.00000   0.03273   0.03310   2.79046
    R3        2.75736   0.00996   0.00000   0.03273   0.03311   2.79046
    R4        3.75904   0.00343   0.00000   0.07189   0.07188   3.83093
    R5        2.83913  -0.00111   0.00000  -0.01712  -0.01786   2.82126
    R6        2.04518   0.00714   0.00000   0.01978   0.01978   2.06496
    R7        2.04518   0.00817   0.00000   0.02263   0.02263   2.06781
    R8        2.04518   0.00816   0.00000   0.02262   0.02262   2.06780
    R9        2.04518   0.00714   0.00000   0.01978   0.01978   2.06496
   R10        1.93114   0.00007   0.00000   0.00015   0.00015   1.93128
   R11        1.92886   0.00047   0.00000   0.00106   0.00106   1.92992
   R12        1.93113   0.00007   0.00000   0.00015   0.00015   1.93128
    A1        1.92603  -0.00363   0.00000  -0.02714  -0.02748   1.89855
    A2        1.92603  -0.00362   0.00000  -0.02710  -0.02744   1.89859
    A3        2.02331  -0.00493   0.00000  -0.02355  -0.02325   2.00006
    A4        2.03219   0.00476   0.00000   0.04326   0.04357   2.07576
    A5        2.06430   0.00210   0.00000   0.01777   0.01770   2.08200
    A6        2.07378  -0.00307   0.00000  -0.03319  -0.03329   2.04049
    A7        2.02592  -0.00009   0.00000  -0.00391  -0.00423   2.02169
    A8        2.03219   0.00476   0.00000   0.04327   0.04358   2.07577
    A9        2.02331  -0.00493   0.00000  -0.02355  -0.02325   2.00006
   A10        2.07378  -0.00308   0.00000  -0.03319  -0.03329   2.04049
   A11        2.06430   0.00210   0.00000   0.01778   0.01770   2.08200
   A12        2.02592  -0.00010   0.00000  -0.00391  -0.00423   2.02169
   A13        1.73362  -0.00021   0.00000  -0.00137  -0.00125   1.73237
   A14        2.42174  -0.00188   0.00000  -0.01194  -0.01187   2.40987
   A15        1.73459  -0.00024   0.00000  -0.00123  -0.00138   1.73320
   A16        1.83801   0.00110   0.00000   0.00611   0.00633   1.84434
   A17        1.83431   0.00070   0.00000   0.00648   0.00600   1.84031
   A18        1.83802   0.00107   0.00000   0.00629   0.00619   1.84421
   A19        3.20921   0.00293   0.00000   0.09691   0.09666   3.30586
   A20        3.19626   0.00203   0.00000   0.06866   0.06840   3.26466
    D1       -1.61831  -0.00295   0.00000  -0.00379  -0.00309  -1.62140
    D2        0.59106  -0.00315   0.00000  -0.00009   0.00022   0.59129
    D3        2.80218  -0.00332   0.00000  -0.00078  -0.00058   2.80159
    D4       -2.80538   0.00333   0.00000  -0.00067  -0.00078  -2.80616
    D5       -0.59601   0.00313   0.00000   0.00302   0.00254  -0.59347
    D6        1.61511   0.00296   0.00000   0.00233   0.00173   1.61684
    D7        2.58859  -0.00181   0.00000  -0.01127  -0.01096   2.57764
    D8        0.11097  -0.00138   0.00000  -0.03218  -0.03244   0.07853
    D9       -0.11098   0.00137   0.00000   0.03212   0.03239  -0.07859
   D10       -2.58860   0.00180   0.00000   0.01121   0.01090  -2.57770
   D11       -2.61721   0.00219   0.00000   0.04027   0.03977  -2.57744
   D12       -0.00000   0.00000   0.00000   0.00000   0.00000   0.00000
   D13        0.00000   0.00000   0.00000   0.00001   0.00001   0.00002
   D14        2.61721  -0.00218   0.00000  -0.04025  -0.03975   2.57746
         Item               Value     Threshold  Converged?
 Maximum Force            0.009959     0.000450     NO 
 RMS     Force            0.003962     0.000300     NO 
 Maximum Displacement     0.189874     0.001800     NO 
 RMS     Displacement     0.066242     0.001200     NO 
 Predicted change in Energy=-1.827729D-03
 GradGradGradGradGradGradGradGradGradGradGradGradGradGradGradGradGradGrad

                          Input orientation:                          
 ---------------------------------------------------------------------
 Center     Atomic      Atomic             Coordinates (Angstroms)
 Number     Number       Type             X           Y           Z
 ---------------------------------------------------------------------
      1          7           0       -0.425933    0.109088    0.551729
      2          1           0        0.490969    0.077754    0.087660
      3          6           0       -1.379283   -0.709886   -0.223444
      4          6           0       -1.389898    0.778086   -0.344766
      5          7           0        2.444380    0.055833   -0.454007
      6          1           0       -2.148101   -1.202836    0.376541
      7          1           0       -1.012728   -1.274529   -1.086096
      8          1           0       -1.030399    1.200668   -1.287918
      9          1           0       -2.166317    1.350767    0.168336
     10          1           0        2.771404   -0.708084    0.140931
     11          1           0        2.994253   -0.008057   -1.312233
     12          1           0        2.753842    0.912835    0.008857
 ---------------------------------------------------------------------
                    Distance matrix (angstroms):
                    1          2          3          4          5
     1  N    0.000000
     2  H    1.028130   0.000000
     3  C    1.476647   2.053047   0.000000
     4  C    1.476648   2.053074   1.492947   0.000000
     5  N    3.041882   2.027240   3.906390   3.903238   0.000000
     6  H    2.172025   2.947550   1.092732   2.240359   4.833730
     7  H    2.222880   2.338263   1.094236   2.214736   3.757792
     8  H    2.222887   2.338313   2.214732   1.094235   3.752352
     9  H    2.172025   2.947582   2.240358   1.092732   4.829357
    10  H    3.325582   2.412626   4.166650   4.445339   1.021991
    11  H    3.896890   2.869407   4.561342   4.557937   1.021271
    12  H    3.324409   2.413331   4.446337   4.160984   1.021989
                    6          7          8          9         10
     6  H    0.000000
     7  H    1.852975   0.000000
     8  H    3.129938   2.483474   0.000000
     9  H    2.562142   3.129943   1.852974   0.000000
    10  H    4.949931   4.018222   4.487611   5.349833   0.000000
    11  H    5.542856   4.208442   4.202313   5.538047   1.628308
    12  H    5.351663   4.491162   4.010606   4.942184   1.626385
                   11         12
    11  H    0.000000
    12  H    1.628226   0.000000
 Stoichiometry    C2H8N2
 Framework group  C1[X(C2H8N2)]
 Deg. of freedom    30
 Full point group                 C1      NOp   1
 Largest Abelian subgroup         C1      NOp   1
 Largest concise Abelian subgroup C1      NOp   1
                         Standard orientation:                         
 ---------------------------------------------------------------------
 Center     Atomic      Atomic             Coordinates (Angstroms)
 Number     Number       Type             X           Y           Z
 ---------------------------------------------------------------------
      1          7           0        0.481836   -0.002195   -0.686117
      2          1           0       -0.466362   -0.004111   -0.288663
      3          6           0        1.379083   -0.745316    0.221189
      4          6           0        1.375357    0.747625    0.219354
      5          7           0       -2.453995   -0.000300    0.110084
      6          1           0        2.191433   -1.278502   -0.278674
      7          1           0        0.952638   -1.240570    1.098810
      8          1           0        0.946452    1.242895    1.095767
      9          1           0        2.185037    1.283630   -0.281825
     10          1           0       -2.733933   -0.813724   -0.441680
     11          1           0       -3.064784    0.001336    0.928575
     12          1           0       -2.732003    0.812660   -0.443332
 ---------------------------------------------------------------------
 Rotational constants (GHZ):          15.3386750           2.7918869           2.6555104
 Standard basis: Aug-CC-pVDZ (5D, 7F)
 There are   172 symmetry adapted cartesian basis functions of A   symmetry.
 There are   164 symmetry adapted basis functions of A   symmetry.
   164 basis functions,   260 primitive gaussians,   172 cartesian basis functions
    17 alpha electrons       17 beta electrons
       nuclear repulsion energy       122.3536597329 Hartrees.
 NAtoms=   12 NActive=   12 NUniq=   12 SFac= 1.00D+00 NAtFMM=   60 NAOKFM=F Big=F
 Integral buffers will be    131072 words long.
 Raffenetti 1 integral format.
 Two-electron integral symmetry is turned on.
 One-electron integrals computed using PRISM.
 NBasis=   164 RedAO= T EigKep=  5.36D-05  NBF=   164
 NBsUse=   164 1.00D-06 EigRej= -1.00D+00 NBFU=   164
 Initial guess from the checkpoint file:  "/gscratch/scrubbed/gds001/Gau-31370.chk"
 B after Tr=    -0.000000    0.000000    0.000000
         Rot=    0.999995    0.000912   -0.003076   -0.000266 Ang=   0.37 deg.
 ExpMin= 2.97D-02 ExpMax= 9.05D+03 ExpMxC= 3.09D+02 IAcc=3 IRadAn=         5 AccDes= 0.00D+00
 Harris functional with IExCor=  205 and IRadAn=       5 diagonalized for initial guess.
 HarFok:  IExCor=  205 AccDes= 0.00D+00 IRadAn=         5 IDoV= 1 UseB2=F ITyADJ=14
 ICtDFT=  3500011 ScaDFX=  1.000000  1.000000  1.000000  1.000000
 FoFCou: FMM=F IPFlag=           0 FMFlag=      100000 FMFlg1=           0
         NFxFlg=           0 DoJE=T BraDBF=F KetDBF=T FulRan=T
         wScrn=  0.000000 ICntrl=       500 IOpCl=  0 I1Cent=   200000004 NGrid=           0
         NMat0=    1 NMatS0=      1 NMatT0=    0 NMatD0=    1 NMtDS0=    0 NMtDT0=    0
 Petite list used in FoFCou.
 Keep R1 ints in memory in canonical form, NReq=97721337.
 Requested convergence on RMS density matrix=1.00D-08 within 128 cycles.
 Requested convergence on MAX density matrix=1.00D-06.
 Requested convergence on             energy=1.00D-06.
 No special actions if energy rises.
 SCF Done:  E(RHF) =  -189.265084687     A.U. after   10 cycles
            NFock= 10  Conv=0.10D-07     -V/T= 2.0023
 ExpMin= 2.97D-02 ExpMax= 9.05D+03 ExpMxC= 3.09D+02 IAcc=3 IRadAn=         5 AccDes= 0.00D+00
 HarFok:  IExCor=  205 AccDes= 0.00D+00 IRadAn=         5 IDoV=-2 UseB2=F ITyADJ=14
 ICtDFT= 12500011 ScaDFX=  1.000000  1.000000  1.000000  1.000000
 Range of M.O.s used for correlation:     5   164
 NBasis=   164 NAE=    17 NBE=    17 NFC=     4 NFV=     0
 NROrb=    160 NOA=    13 NOB=    13 NVA=   147 NVB=   147

 **** Warning!!: The largest alpha MO coefficient is  0.33417172D+02

 Fully direct method using O(ONN) memory.
 JobTyp=1 Pass  1:  I=   5 to  17 NPSUse= 28 ParTrn=T ParDer=T DoDerP=T.
 Spin components of T(2) and E(2):
     alpha-alpha T2 =       0.2807682870D-01 E2=     -0.8121648141D-01
     alpha-beta  T2 =       0.1679942954D+00 E2=     -0.5124647373D+00
     beta-beta   T2 =       0.2807682870D-01 E2=     -0.8121648141D-01
 ANorm=    0.1106412198D+01
 E2 =    -0.6748977001D+00 EUMP2 =    -0.18993998238676D+03
          IDoAtm=111111111111
          Differentiating once with respect to electric field.
                with respect to dipole field.
          Differentiating once with respect to nuclear coordinates.
 Keep R1 ints in memory in canonical form, NReq=97731485.
          There are     1 degrees of freedom in the 1st order CPHF.  IDoFFX=0 NUNeed=     1.
 LinEq1:  Iter=  0 NonCon=     1 RMS=3.41D-03 Max=3.25D-02 NDo=     1
 AX will form     1 AO Fock derivatives at one time.
 LinEq1:  Iter=  1 NonCon=     1 RMS=5.67D-04 Max=6.73D-03 NDo=     1
 LinEq1:  Iter=  2 NonCon=     1 RMS=2.42D-04 Max=2.68D-03 NDo=     1
 LinEq1:  Iter=  3 NonCon=     1 RMS=5.57D-05 Max=6.96D-04 NDo=     1
 LinEq1:  Iter=  4 NonCon=     1 RMS=2.11D-05 Max=2.27D-04 NDo=     1
 LinEq1:  Iter=  5 NonCon=     1 RMS=5.57D-06 Max=9.51D-05 NDo=     1
 LinEq1:  Iter=  6 NonCon=     1 RMS=1.09D-06 Max=1.15D-05 NDo=     1
 LinEq1:  Iter=  7 NonCon=     1 RMS=2.58D-07 Max=2.59D-06 NDo=     1
 LinEq1:  Iter=  8 NonCon=     1 RMS=9.03D-08 Max=7.61D-07 NDo=     1
 LinEq1:  Iter=  9 NonCon=     1 RMS=1.50D-08 Max=1.20D-07 NDo=     1
 LinEq1:  Iter= 10 NonCon=     1 RMS=3.00D-09 Max=2.53D-08 NDo=     1
 LinEq1:  Iter= 11 NonCon=     1 RMS=5.35D-10 Max=4.33D-09 NDo=     1
 LinEq1:  Iter= 12 NonCon=     1 RMS=1.12D-10 Max=1.13D-09 NDo=     1
 LinEq1:  Iter= 13 NonCon=     0 RMS=2.34D-11 Max=2.28D-10 NDo=     1
 Linear equations converged to 1.000D-10 1.000D-09 after    13 iterations.
 End of Minotr F.D. properties file   721 does not exist.
 End of Minotr F.D. properties file   722 does not exist.
 End of Minotr F.D. properties file   788 does not exist.
 Calling FoFJK, ICntrl=  10002127 FMM=F ISym2X=0 I1Cent= 0 IOpClX= 0 NMat=1 NMatS=1 NMatT=0.
 ***** Axes restored to original set *****
 -------------------------------------------------------------------
 Center     Atomic                   Forces (Hartrees/Bohr)
 Number     Number              X              Y              Z
 -------------------------------------------------------------------
      1        7           0.005019982    0.000235050    0.002849478
      2        1          -0.001793074    0.000020830   -0.000164728
      3        6          -0.004354896   -0.002080566   -0.001273767
      4        6          -0.004356508    0.001776640   -0.001601186
      5        7           0.004634179    0.000039068   -0.000063291
      6        1           0.000379227   -0.000383624   -0.000666936
      7        1           0.001086615   -0.000484919    0.001129038
      8        1           0.001083307    0.000678153    0.001033769
      9        1           0.000377879    0.000273781   -0.000715577
     10        1          -0.000546773    0.000215108   -0.000176006
     11        1          -0.000965468   -0.000040314   -0.000224685
     12        1          -0.000564469   -0.000249206   -0.000126107
 -------------------------------------------------------------------
 Cartesian Forces:  Max     0.005019982 RMS     0.001797606

 GradGradGradGradGradGradGradGradGradGradGradGradGradGradGradGradGradGrad
 Berny optimization.
 Using GEDIIS/GDIIS optimizer.
 FormGI is forming the generalized inverse of G from B-inverse, IUseBI=4.
 Internal  Forces:  Max     0.002959925 RMS     0.001042471
 Search for a local minimum.
 Step number   2 out of a maximum of   56
 All quantities printed in internal units (Hartrees-Bohrs-Radians)
 Mixed Optimization -- RFO/linear search
 Update second derivatives using D2CorX and points    1    2
 DE= -1.71D-03 DEPred=-1.83D-03 R= 9.33D-01
 TightC=F SS=  1.41D+00  RLast= 1.97D-01 DXNew= 5.0454D-01 5.9026D-01
 Trust test= 9.33D-01 RLast= 1.97D-01 DXMaxT set to 5.05D-01
 ITU=  1  0
 Use linear search instead of GDIIS.
     Eigenvalues ---    0.00230   0.00230   0.00237   0.02302   0.03408
     Eigenvalues ---    0.03663   0.03831   0.03870   0.03921   0.05133
     Eigenvalues ---    0.08262   0.12124   0.12231   0.13801   0.15844
     Eigenvalues ---    0.16000   0.16000   0.16000   0.17946   0.25218
     Eigenvalues ---    0.32257   0.33177   0.35722   0.35722   0.35722
     Eigenvalues ---    0.37228   0.42463   0.44034   0.44070   0.44251
 RFO step:  Lambda=-4.68757779D-04 EMin= 2.29999944D-03
 Quartic linear search produced a step of -0.03213.
 Iteration  1 RMS(Cart)=  0.05987035 RMS(Int)=  0.00205630
 Iteration  2 RMS(Cart)=  0.00467014 RMS(Int)=  0.00051431
 Iteration  3 RMS(Cart)=  0.00000923 RMS(Int)=  0.00051430
 Iteration  4 RMS(Cart)=  0.00000002 RMS(Int)=  0.00051430
 Variable       Old X    -DE/DX   Delta X   Delta X   Delta X     New X
                                 (Linear)    (Quad)   (Total)
    R1        1.94288   0.00102   0.00040   0.00023   0.00066   1.94354
    R2        2.79046   0.00296  -0.00106   0.01378   0.01337   2.80383
    R3        2.79046   0.00294  -0.00106   0.01371   0.01331   2.80377
    R4        3.83093   0.00262  -0.00231   0.06943   0.06711   3.89804
    R5        2.82126   0.00191   0.00057   0.00170   0.00096   2.82223
    R6        2.06496  -0.00046  -0.00064   0.00210   0.00146   2.06642
    R7        2.06781  -0.00028  -0.00073   0.00307   0.00234   2.07015
    R8        2.06780  -0.00027  -0.00073   0.00308   0.00235   2.07016
    R9        2.06496  -0.00046  -0.00064   0.00209   0.00146   2.06642
   R10        1.93128  -0.00044  -0.00000  -0.00094  -0.00094   1.93034
   R11        1.92992  -0.00033  -0.00003  -0.00054  -0.00057   1.92935
   R12        1.93128  -0.00044  -0.00000  -0.00094  -0.00094   1.93034
    A1        1.89855   0.00043   0.00088  -0.00693  -0.00661   1.89195
    A2        1.89859   0.00041   0.00088  -0.00731  -0.00696   1.89163
    A3        2.00006   0.00144   0.00075   0.00045   0.00096   2.00102
    A4        2.07576  -0.00188  -0.00140  -0.01113  -0.01259   2.06316
    A5        2.08200   0.00039  -0.00057   0.00673   0.00629   2.08830
    A6        2.04049   0.00050   0.00107   0.00689   0.00765   2.04814
    A7        2.02169  -0.00042   0.00014  -0.00367  -0.00364   2.01804
    A8        2.07577  -0.00188  -0.00140  -0.01119  -0.01266   2.06311
    A9        2.00006   0.00142   0.00075   0.00039   0.00091   2.00096
   A10        2.04049   0.00051   0.00107   0.00696   0.00772   2.04820
   A11        2.08200   0.00037  -0.00057   0.00670   0.00627   2.08828
   A12        2.02169  -0.00042   0.00014  -0.00365  -0.00363   2.01806
   A13        1.73237  -0.00018   0.00004  -0.00107  -0.00139   1.73098
   A14        2.40987  -0.00104   0.00038  -0.00858  -0.00814   2.40173
   A15        1.73320  -0.00020   0.00004  -0.00163  -0.00125   1.73195
   A16        1.84434   0.00066  -0.00020   0.00505   0.00448   1.84883
   A17        1.84031   0.00031  -0.00019   0.00422   0.00373   1.84404
   A18        1.84421   0.00069  -0.00020   0.00476   0.00502   1.84923
   A19        3.30586  -0.00023  -0.00311  -0.09613  -0.10006   3.20580
   A20        3.26466  -0.00010  -0.00220  -0.05264  -0.05515   3.20951
    D1       -1.62140  -0.00003   0.00010  -0.01487  -0.01367  -1.63507
    D2        0.59129  -0.00016  -0.00001  -0.02924  -0.02796   0.56333
    D3        2.80159  -0.00030   0.00002  -0.02581  -0.02501   2.77659
    D4       -2.80616   0.00029   0.00003   0.03109   0.03009  -2.77606
    D5       -0.59347   0.00016  -0.00008   0.01672   0.01580  -0.57767
    D6        1.61684   0.00002  -0.00006   0.02014   0.01875   1.63559
    D7        2.57764  -0.00003   0.00035  -0.00223  -0.00174   2.57589
    D8        0.07853   0.00139   0.00104   0.02075   0.02201   0.10054
    D9       -0.07859  -0.00138  -0.00104  -0.02026  -0.02153  -0.10012
   D10       -2.57770   0.00005  -0.00035   0.00285   0.00235  -2.57535
   D11       -2.57744  -0.00072  -0.00128  -0.01725  -0.01843  -2.59587
   D12        0.00000  -0.00000  -0.00000   0.00003   0.00004   0.00004
   D13        0.00002  -0.00000  -0.00000  -0.00010  -0.00010  -0.00008
   D14        2.57746   0.00072   0.00128   0.01718   0.01837   2.59583
         Item               Value     Threshold  Converged?
 Maximum Force            0.002960     0.000450     NO 
 RMS     Force            0.001042     0.000300     NO 
 Maximum Displacement     0.203822     0.001800     NO 
 RMS     Displacement     0.062260     0.001200     NO 
 Predicted change in Energy=-2.381184D-04
 GradGradGradGradGradGradGradGradGradGradGradGradGradGradGradGradGradGrad

                          Input orientation:                          
 ---------------------------------------------------------------------
 Center     Atomic      Atomic             Coordinates (Angstroms)
 Number     Number       Type             X           Y           Z
 ---------------------------------------------------------------------
      1          7           0       -0.466529    0.120762    0.610906
      2          1           0        0.474161    0.102833    0.195517
      3          6           0       -1.365138   -0.709340   -0.228656
      4          6           0       -1.388537    0.779234   -0.347033
      5          7           0        2.427785    0.050873   -0.464489
      6          1           0       -2.159748   -1.220816    0.321562
      7          1           0       -0.924389   -1.273294   -1.057969
      8          1           0       -0.963500    1.218623   -1.256075
      9          1           0       -2.200087    1.346137    0.117464
     10          1           0        2.775619   -0.714196    0.116137
     11          1           0        2.921035   -0.026591   -1.355038
     12          1           0        2.771517    0.907415   -0.026736
 ---------------------------------------------------------------------
                    Distance matrix (angstroms):
                    1          2          3          4          5
     1  N    0.000000
     2  H    1.028477   0.000000
     3  C    1.483723   2.054889   0.000000
     4  C    1.483689   2.054634   1.493458   0.000000
     5  N    3.088432   2.062754   3.875540   3.886981   0.000000
     6  H    2.179574   2.950493   1.093505   2.245437   4.824990
     7  H    2.222199   2.328281   1.095474   2.221202   3.652767
     8  H    2.222138   2.327869   2.221249   1.095481   3.673018
     9  H    2.179508   2.950169   2.245424   1.093503   4.840824
    10  H    3.384298   2.443471   4.155091   4.448040   1.021492
    11  H    3.919469   2.899684   4.483989   4.498648   1.020967
    12  H    3.392691   2.444299   4.445963   4.174335   1.021491
                    6          7          8          9         10
     6  H    0.000000
     7  H    1.852558   0.000000
     8  H    3.141785   2.500086   0.000000
     9  H    2.575370   3.141730   1.852571   0.000000
    10  H    4.965553   3.921884   4.427162   5.385409   0.000000
    11  H    5.481926   4.053369   4.080436   5.502593   1.630430
    12  H    5.382199   4.413463   3.944423   4.993007   1.627899
                   11         12
    11  H    0.000000
    12  H    1.630678   0.000000
 Stoichiometry    C2H8N2
 Framework group  C1[X(C2H8N2)]
 Deg. of freedom    30
 Full point group                 C1      NOp   1
 Largest Abelian subgroup         C1      NOp   1
 Largest concise Abelian subgroup C1      NOp   1
                         Standard orientation:                         
 ---------------------------------------------------------------------
 Center     Atomic      Atomic             Coordinates (Angstroms)
 Number     Number       Type             X           Y           Z
 ---------------------------------------------------------------------
      1          7           0        0.524382    0.008029   -0.731582
      2          1           0       -0.446860    0.015481   -0.393354
      3          6           0        1.352155   -0.751011    0.237997
      4          6           0        1.365671    0.742368    0.245306
      5          7           0       -2.447518    0.001045    0.108757
      6          1           0        2.188796   -1.297404   -0.206117
      7          1           0        0.845761   -1.253803    1.069158
      8          1           0        0.868333    1.246151    1.081330
      9          1           0        2.212096    1.277830   -0.193549
     10          1           0       -2.747067   -0.807647   -0.438722
     11          1           0       -3.011271   -0.012369    0.959860
     12          1           0       -2.754788    0.820109   -0.418655
 ---------------------------------------------------------------------
 Rotational constants (GHZ):          14.8201408           2.7975619           2.6744148
 Standard basis: Aug-CC-pVDZ (5D, 7F)
 There are   172 symmetry adapted cartesian basis functions of A   symmetry.
 There are   164 symmetry adapted basis functions of A   symmetry.
   164 basis functions,   260 primitive gaussians,   172 cartesian basis functions
    17 alpha electrons       17 beta electrons
       nuclear repulsion energy       122.1085376957 Hartrees.
 NAtoms=   12 NActive=   12 NUniq=   12 SFac= 1.00D+00 NAtFMM=   60 NAOKFM=F Big=F
 Integral buffers will be    131072 words long.
 Raffenetti 1 integral format.
 Two-electron integral symmetry is turned on.
 One-electron integrals computed using PRISM.
 NBasis=   164 RedAO= T EigKep=  5.36D-05  NBF=   164
 NBsUse=   164 1.00D-06 EigRej= -1.00D+00 NBFU=   164
 Initial guess from the checkpoint file:  "/gscratch/scrubbed/gds001/Gau-31370.chk"
 B after Tr=     0.000000   -0.000000   -0.000000
         Rot=    0.999984   -0.004230    0.003669    0.001241 Ang=  -0.66 deg.
 ExpMin= 2.97D-02 ExpMax= 9.05D+03 ExpMxC= 3.09D+02 IAcc=3 IRadAn=         5 AccDes= 0.00D+00
 Harris functional with IExCor=  205 and IRadAn=       5 diagonalized for initial guess.
 HarFok:  IExCor=  205 AccDes= 0.00D+00 IRadAn=         5 IDoV= 1 UseB2=F ITyADJ=14
 ICtDFT=  3500011 ScaDFX=  1.000000  1.000000  1.000000  1.000000
 FoFCou: FMM=F IPFlag=           0 FMFlag=      100000 FMFlg1=           0
         NFxFlg=           0 DoJE=T BraDBF=F KetDBF=T FulRan=T
         wScrn=  0.000000 ICntrl=       500 IOpCl=  0 I1Cent=   200000004 NGrid=           0
         NMat0=    1 NMatS0=      1 NMatT0=    0 NMatD0=    1 NMtDS0=    0 NMtDT0=    0
 Petite list used in FoFCou.
 Keep R1 ints in memory in canonical form, NReq=97721847.
 Requested convergence on RMS density matrix=1.00D-08 within 128 cycles.
 Requested convergence on MAX density matrix=1.00D-06.
 Requested convergence on             energy=1.00D-06.
 No special actions if energy rises.
 SCF Done:  E(RHF) =  -189.265225959     A.U. after   10 cycles
            NFock= 10  Conv=0.92D-08     -V/T= 2.0025
 ExpMin= 2.97D-02 ExpMax= 9.05D+03 ExpMxC= 3.09D+02 IAcc=3 IRadAn=         5 AccDes= 0.00D+00
 HarFok:  IExCor=  205 AccDes= 0.00D+00 IRadAn=         5 IDoV=-2 UseB2=F ITyADJ=14
 ICtDFT= 12500011 ScaDFX=  1.000000  1.000000  1.000000  1.000000
 Range of M.O.s used for correlation:     5   164
 NBasis=   164 NAE=    17 NBE=    17 NFC=     4 NFV=     0
 NROrb=    160 NOA=    13 NOB=    13 NVA=   147 NVB=   147

 **** Warning!!: The largest alpha MO coefficient is  0.33552576D+02

 Fully direct method using O(ONN) memory.
 JobTyp=1 Pass  1:  I=   5 to  17 NPSUse= 28 ParTrn=T ParDer=T DoDerP=T.
 Spin components of T(2) and E(2):
     alpha-alpha T2 =       0.2811754343D-01 E2=     -0.8117544046D-01
     alpha-beta  T2 =       0.1683967330D+00 E2=     -0.5127163116D+00
     beta-beta   T2 =       0.2811754343D-01 E2=     -0.8117544046D-01
 ANorm=    0.1106630842D+01
 E2 =    -0.6750671925D+00 EUMP2 =    -0.18994029315133D+03
          IDoAtm=111111111111
          Differentiating once with respect to electric field.
                with respect to dipole field.
          Differentiating once with respect to nuclear coordinates.
 Keep R1 ints in memory in canonical form, NReq=97731643.
          There are     1 degrees of freedom in the 1st order CPHF.  IDoFFX=0 NUNeed=     1.
 LinEq1:  Iter=  0 NonCon=     1 RMS=3.42D-03 Max=3.14D-02 NDo=     1
 AX will form     1 AO Fock derivatives at one time.
 LinEq1:  Iter=  1 NonCon=     1 RMS=5.75D-04 Max=6.88D-03 NDo=     1
 LinEq1:  Iter=  2 NonCon=     1 RMS=2.45D-04 Max=2.77D-03 NDo=     1
 LinEq1:  Iter=  3 NonCon=     1 RMS=5.69D-05 Max=7.08D-04 NDo=     1
 LinEq1:  Iter=  4 NonCon=     1 RMS=2.18D-05 Max=2.38D-04 NDo=     1
 LinEq1:  Iter=  5 NonCon=     1 RMS=5.69D-06 Max=9.94D-05 NDo=     1
 LinEq1:  Iter=  6 NonCon=     1 RMS=1.12D-06 Max=1.16D-05 NDo=     1
 LinEq1:  Iter=  7 NonCon=     1 RMS=2.61D-07 Max=2.45D-06 NDo=     1
 LinEq1:  Iter=  8 NonCon=     1 RMS=9.26D-08 Max=7.99D-07 NDo=     1
 LinEq1:  Iter=  9 NonCon=     1 RMS=1.60D-08 Max=1.21D-07 NDo=     1
 LinEq1:  Iter= 10 NonCon=     1 RMS=3.37D-09 Max=2.78D-08 NDo=     1
 LinEq1:  Iter= 11 NonCon=     1 RMS=6.47D-10 Max=5.36D-09 NDo=     1
 LinEq1:  Iter= 12 NonCon=     1 RMS=1.43D-10 Max=1.39D-09 NDo=     1
 LinEq1:  Iter= 13 NonCon=     0 RMS=2.74D-11 Max=2.92D-10 NDo=     1
 Linear equations converged to 1.000D-10 1.000D-09 after    13 iterations.
 End of Minotr F.D. properties file   721 does not exist.
 End of Minotr F.D. properties file   722 does not exist.
 End of Minotr F.D. properties file   788 does not exist.
 Calling FoFJK, ICntrl=  10002127 FMM=F ISym2X=0 I1Cent= 0 IOpClX= 0 NMat=1 NMatS=1 NMatT=0.
 ***** Axes restored to original set *****
 -------------------------------------------------------------------
 Center     Atomic                   Forces (Hartrees/Bohr)
 Number     Number              X              Y              Z
 -------------------------------------------------------------------
      1        7           0.000766065    0.000237160    0.001483314
      2        1          -0.002399398   -0.000306939   -0.001058809
      3        6          -0.000698201   -0.001102153   -0.000622595
      4        6          -0.000853259    0.001012492   -0.000743381
      5        7           0.002947486    0.000054120    0.000206422
      6        1           0.000665542    0.000540287   -0.000633009
      7        1           0.000001120    0.000534136    0.001138480
      8        1          -0.000010863   -0.000355727    0.001205601
      9        1           0.000667041   -0.000600940   -0.000568748
     10        1          -0.000174690    0.000128488   -0.000207855
     11        1          -0.000807710    0.000035419    0.000021898
     12        1          -0.000103132   -0.000176344   -0.000221319
 -------------------------------------------------------------------
 Cartesian Forces:  Max     0.002947486 RMS     0.000900715

 GradGradGradGradGradGradGradGradGradGradGradGradGradGradGradGradGradGrad
 Berny optimization.
 Using GEDIIS/GDIIS optimizer.
 FormGI is forming the generalized inverse of G from B-inverse, IUseBI=4.
 Internal  Forces:  Max     0.001826967 RMS     0.000542522
 Search for a local minimum.
 Step number   3 out of a maximum of   56
 All quantities printed in internal units (Hartrees-Bohrs-Radians)
 Mixed Optimization -- En-DIIS/RFO-DIIS
 Update second derivatives using D2CorX and points    1    2    3
 DE= -3.11D-04 DEPred=-2.38D-04 R= 1.31D+00
 TightC=F SS=  1.41D+00  RLast= 1.53D-01 DXNew= 8.4853D-01 4.5923D-01
 Trust test= 1.31D+00 RLast= 1.53D-01 DXMaxT set to 5.05D-01
 ITU=  1  1  0
 Use linear search instead of GDIIS.
     Eigenvalues ---    0.00229   0.00230   0.00310   0.01824   0.02302
     Eigenvalues ---    0.03392   0.03655   0.03973   0.04053   0.05098
     Eigenvalues ---    0.08223   0.12229   0.12241   0.13741   0.15745
     Eigenvalues ---    0.16000   0.16000   0.16094   0.17622   0.25110
     Eigenvalues ---    0.33159   0.34942   0.35722   0.35722   0.35723
     Eigenvalues ---    0.40100   0.42504   0.44034   0.44035   0.44324
 RFO step:  Lambda=-2.65373535D-04 EMin= 2.29356685D-03
 Quartic linear search produced a step of  0.57799.
 Iteration  1 RMS(Cart)=  0.04207105 RMS(Int)=  0.00062458
 Iteration  2 RMS(Cart)=  0.00112608 RMS(Int)=  0.00021870
 Iteration  3 RMS(Cart)=  0.00000098 RMS(Int)=  0.00021870
 Variable       Old X    -DE/DX   Delta X   Delta X   Delta X     New X
                                 (Linear)    (Quad)   (Total)
    R1        1.94354   0.00002   0.00038  -0.00115  -0.00076   1.94278
    R2        2.80383  -0.00000   0.00773   0.00468   0.01270   2.81653
    R3        2.80377   0.00012   0.00769   0.00523   0.01321   2.81697
    R4        3.89804   0.00183   0.03879   0.07592   0.11470   4.01274
    R5        2.82223   0.00020   0.00056  -0.00306  -0.00308   2.81915
    R6        2.06642  -0.00105   0.00084  -0.00270  -0.00185   2.06457
    R7        2.07015  -0.00114   0.00135  -0.00275  -0.00140   2.06874
    R8        2.07016  -0.00115   0.00136  -0.00280  -0.00144   2.06872
    R9        2.06642  -0.00105   0.00084  -0.00267  -0.00182   2.06460
   R10        1.93034  -0.00027  -0.00055  -0.00100  -0.00155   1.92879
   R11        1.92935  -0.00041  -0.00033  -0.00140  -0.00173   1.92762
   R12        1.93034  -0.00028  -0.00054  -0.00102  -0.00156   1.92878
    A1        1.89195  -0.00076  -0.00382  -0.01797  -0.02210   1.86984
    A2        1.89163  -0.00067  -0.00402  -0.01570  -0.02008   1.87155
    A3        2.00102   0.00043   0.00055   0.00122   0.00168   2.00269
    A4        2.06316  -0.00061  -0.00728  -0.00648  -0.01387   2.04929
    A5        2.08830   0.00015   0.00364   0.00067   0.00423   2.09253
    A6        2.04814  -0.00010   0.00442   0.00217   0.00654   2.05467
    A7        2.01804   0.00006  -0.00211   0.00027  -0.00203   2.01601
    A8        2.06311  -0.00060  -0.00732  -0.00600  -0.01342   2.04968
    A9        2.00096   0.00048   0.00052   0.00171   0.00214   2.00310
   A10        2.04820  -0.00017   0.00446   0.00157   0.00599   2.05419
   A11        2.08828   0.00024   0.00363   0.00086   0.00441   2.09268
   A12        2.01806   0.00004  -0.00210   0.00014  -0.00214   2.01592
   A13        1.73098   0.00018  -0.00081   0.00111   0.00019   1.73117
   A14        2.40173  -0.00101  -0.00470  -0.01197  -0.01667   2.38507
   A15        1.73195   0.00031  -0.00072   0.00348   0.00281   1.73476
   A16        1.84883   0.00031   0.00259   0.00280   0.00530   1.85412
   A17        1.84404   0.00015   0.00216   0.00427   0.00625   1.85029
   A18        1.84923   0.00027   0.00290   0.00375   0.00676   1.85599
   A19        3.20580   0.00036  -0.05783   0.12860   0.07047   3.27627
   A20        3.20951   0.00009  -0.03187   0.00861  -0.02344   3.18607
    D1       -1.63507   0.00002  -0.00790   0.00279  -0.00462  -1.63969
    D2        0.56333  -0.00008  -0.01616   0.03022   0.01454   0.57787
    D3        2.77659  -0.00021  -0.01445   0.00570  -0.00844   2.76815
    D4       -2.77606   0.00021   0.01739  -0.01651   0.00052  -2.77555
    D5       -0.57767   0.00011   0.00913   0.01092   0.01968  -0.55799
    D6        1.63559  -0.00002   0.01084  -0.01360  -0.00331   1.63229
    D7        2.57589   0.00039  -0.00101   0.00921   0.00826   2.58416
    D8        0.10054   0.00054   0.01272   0.01618   0.02883   0.12937
    D9       -0.10012  -0.00057  -0.01245  -0.01892  -0.03129  -0.13142
   D10       -2.57535  -0.00048   0.00136  -0.01311  -0.01178  -2.58713
   D11       -2.59587  -0.00022  -0.01065  -0.00540  -0.01608  -2.61195
   D12        0.00004   0.00000   0.00002  -0.00037  -0.00035  -0.00031
   D13       -0.00008   0.00001  -0.00006   0.00072   0.00067   0.00059
   D14        2.59583   0.00024   0.01062   0.00576   0.01639   2.61222
         Item               Value     Threshold  Converged?
 Maximum Force            0.001827     0.000450     NO 
 RMS     Force            0.000543     0.000300     NO 
 Maximum Displacement     0.100393     0.001800     NO 
 RMS     Displacement     0.042322     0.001200     NO 
 Predicted change in Energy=-1.825981D-04
 GradGradGradGradGradGradGradGradGradGradGradGradGradGradGradGradGradGrad

                          Input orientation:                          
 ---------------------------------------------------------------------
 Center     Atomic      Atomic             Coordinates (Angstroms)
 Number     Number       Type             X           Y           Z
 ---------------------------------------------------------------------
      1          7           0       -0.481511    0.100377    0.618021
      2          1           0        0.447207    0.051235    0.179838
      3          6           0       -1.406897   -0.711652   -0.222029
      4          6           0       -1.391856    0.774519   -0.350961
      5          7           0        2.468927    0.064625   -0.469405
      6          1           0       -2.212874   -1.202284    0.328692
      7          1           0       -0.966428   -1.297857   -1.034918
      8          1           0       -0.941519    1.202511   -1.252308
      9          1           0       -2.186949    1.368873    0.105340
     10          1           0        2.826826   -0.706012    0.096103
     11          1           0        2.962030    0.016981   -1.361081
     12          1           0        2.785233    0.920323   -0.011703
 ---------------------------------------------------------------------
                    Distance matrix (angstroms):
                    1          2          3          4          5
     1  N    0.000000
     2  H    1.028074   0.000000
     3  C    1.490441   2.044797   0.000000
     4  C    1.490678   2.046225   1.491830   0.000000
     5  N    3.144656   2.123452   3.960532   3.927292   0.000000
     6  H    2.185922   2.944401   1.092525   2.245829   4.915413
     7  H    2.218651   2.300880   1.094732   2.223405   3.738694
     8  H    2.219108   2.303267   2.223078   1.094718   3.679520
     9  H    2.186423   2.946268   2.245938   1.092539   4.869146
    10  H    3.444961   2.498604   4.245663   4.493230   1.020673
    11  H    3.972628   2.949566   4.573387   4.533269   1.020052
    12  H    3.426438   2.501673   4.503502   4.193378   1.020667
                    6          7          8          9         10
     6  H    0.000000
     7  H    1.849917   0.000000
     8  H    3.146259   2.509924   0.000000
     9  H    2.580970   3.146634   1.849860   0.000000
    10  H    5.069415   4.002284   4.434084   5.426157   0.000000
    11  H    5.578671   4.155474   4.081054   5.521774   1.632294
    12  H    5.440809   4.476858   3.937945   4.993745   1.630435
                   11         12
    11  H    0.000000
    12  H    1.633434   0.000000
 Stoichiometry    C2H8N2
 Framework group  C1[X(C2H8N2)]
 Deg. of freedom    30
 Full point group                 C1      NOp   1
 Largest Abelian subgroup         C1      NOp   1
 Largest concise Abelian subgroup C1      NOp   1
                         Standard orientation:                         
 ---------------------------------------------------------------------
 Center     Atomic      Atomic             Coordinates (Angstroms)
 Number     Number       Type             X           Y           Z
 ---------------------------------------------------------------------
      1          7           0        0.538497   -0.023281   -0.734669
      2          1           0       -0.422718   -0.045029   -0.370627
      3          6           0        1.398690   -0.733004    0.254158
      4          6           0        1.359736    0.758172    0.233329
      5          7           0       -2.491138   -0.002506    0.107789
      6          1           0        2.251712   -1.261487   -0.177895
      7          1           0        0.897952   -1.244020    1.082747
      8          1           0        0.832771    1.264820    1.048205
      9          1           0        2.184393    1.318357   -0.213632
     10          1           0       -2.794248   -0.830932   -0.405638
     11          1           0       -3.055658    0.029193    0.956800
     12          1           0       -2.776277    0.798603   -0.456728
 ---------------------------------------------------------------------
 Rotational constants (GHZ):          14.8039725           2.7161802           2.6000967
 Standard basis: Aug-CC-pVDZ (5D, 7F)
 There are   172 symmetry adapted cartesian basis functions of A   symmetry.
 There are   164 symmetry adapted basis functions of A   symmetry.
   164 basis functions,   260 primitive gaussians,   172 cartesian basis functions
    17 alpha electrons       17 beta electrons
       nuclear repulsion energy       121.4619061604 Hartrees.
 NAtoms=   12 NActive=   12 NUniq=   12 SFac= 1.00D+00 NAtFMM=   60 NAOKFM=F Big=F
 Integral buffers will be    131072 words long.
 Raffenetti 1 integral format.
 Two-electron integral symmetry is turned on.
 One-electron integrals computed using PRISM.
 NBasis=   164 RedAO= T EigKep=  5.39D-05  NBF=   164
 NBsUse=   164 1.00D-06 EigRej= -1.00D+00 NBFU=   164
 Initial guess from the checkpoint file:  "/gscratch/scrubbed/gds001/Gau-31370.chk"
 B after Tr=    -0.000000    0.000000   -0.000000
         Rot=    0.999904    0.013352    0.000501   -0.003744 Ang=   1.59 deg.
 ExpMin= 2.97D-02 ExpMax= 9.05D+03 ExpMxC= 3.09D+02 IAcc=3 IRadAn=         5 AccDes= 0.00D+00
 Harris functional with IExCor=  205 and IRadAn=       5 diagonalized for initial guess.
 HarFok:  IExCor=  205 AccDes= 0.00D+00 IRadAn=         5 IDoV= 1 UseB2=F ITyADJ=14
 ICtDFT=  3500011 ScaDFX=  1.000000  1.000000  1.000000  1.000000
 FoFCou: FMM=F IPFlag=           0 FMFlag=      100000 FMFlg1=           0
         NFxFlg=           0 DoJE=T BraDBF=F KetDBF=T FulRan=T
         wScrn=  0.000000 ICntrl=       500 IOpCl=  0 I1Cent=   200000004 NGrid=           0
         NMat0=    1 NMatS0=      1 NMatT0=    0 NMatD0=    1 NMtDS0=    0 NMtDT0=    0
 Petite list used in FoFCou.
 Keep R1 ints in memory in canonical form, NReq=97720545.
 Requested convergence on RMS density matrix=1.00D-08 within 128 cycles.
 Requested convergence on MAX density matrix=1.00D-06.
 Requested convergence on             energy=1.00D-06.
 No special actions if energy rises.
 SCF Done:  E(RHF) =  -189.265475838     A.U. after   10 cycles
            NFock= 10  Conv=0.89D-08     -V/T= 2.0026
 ExpMin= 2.97D-02 ExpMax= 9.05D+03 ExpMxC= 3.09D+02 IAcc=3 IRadAn=         5 AccDes= 0.00D+00
 HarFok:  IExCor=  205 AccDes= 0.00D+00 IRadAn=         5 IDoV=-2 UseB2=F ITyADJ=14
 ICtDFT= 12500011 ScaDFX=  1.000000  1.000000  1.000000  1.000000
 Range of M.O.s used for correlation:     5   164
 NBasis=   164 NAE=    17 NBE=    17 NFC=     4 NFV=     0
 NROrb=    160 NOA=    13 NOB=    13 NVA=   147 NVB=   147

 **** Warning!!: The largest alpha MO coefficient is  0.33446458D+02

 Fully direct method using O(ONN) memory.
 JobTyp=1 Pass  1:  I=   5 to  17 NPSUse= 28 ParTrn=T ParDer=T DoDerP=T.
 Spin components of T(2) and E(2):
     alpha-alpha T2 =       0.2812395345D-01 E2=     -0.8109285187D-01
     alpha-beta  T2 =       0.1686294967D+00 E2=     -0.5127846895D+00
     beta-beta   T2 =       0.2812395345D-01 E2=     -0.8109285187D-01
 ANorm=    0.1106741796D+01
 E2 =    -0.6749703932D+00 EUMP2 =    -0.18994044623166D+03
          IDoAtm=111111111111
          Differentiating once with respect to electric field.
                with respect to dipole field.
          Differentiating once with respect to nuclear coordinates.
 Keep R1 ints in memory in canonical form, NReq=97730561.
          There are     1 degrees of freedom in the 1st order CPHF.  IDoFFX=0 NUNeed=     1.
 LinEq1:  Iter=  0 NonCon=     1 RMS=3.42D-03 Max=3.09D-02 NDo=     1
 AX will form     1 AO Fock derivatives at one time.
 LinEq1:  Iter=  1 NonCon=     1 RMS=5.80D-04 Max=6.67D-03 NDo=     1
 LinEq1:  Iter=  2 NonCon=     1 RMS=2.48D-04 Max=2.85D-03 NDo=     1
 LinEq1:  Iter=  3 NonCon=     1 RMS=5.82D-05 Max=6.98D-04 NDo=     1
 LinEq1:  Iter=  4 NonCon=     1 RMS=2.24D-05 Max=2.47D-04 NDo=     1
 LinEq1:  Iter=  5 NonCon=     1 RMS=5.77D-06 Max=9.86D-05 NDo=     1
 LinEq1:  Iter=  6 NonCon=     1 RMS=1.14D-06 Max=1.15D-05 NDo=     1
 LinEq1:  Iter=  7 NonCon=     1 RMS=2.60D-07 Max=2.38D-06 NDo=     1
 LinEq1:  Iter=  8 NonCon=     1 RMS=9.41D-08 Max=8.10D-07 NDo=     1
 LinEq1:  Iter=  9 NonCon=     1 RMS=1.68D-08 Max=1.27D-07 NDo=     1
 LinEq1:  Iter= 10 NonCon=     1 RMS=3.57D-09 Max=2.97D-08 NDo=     1
 LinEq1:  Iter= 11 NonCon=     1 RMS=6.84D-10 Max=5.46D-09 NDo=     1
 LinEq1:  Iter= 12 NonCon=     1 RMS=1.54D-10 Max=1.39D-09 NDo=     1
 LinEq1:  Iter= 13 NonCon=     0 RMS=2.99D-11 Max=3.33D-10 NDo=     1
 Linear equations converged to 1.000D-10 1.000D-09 after    13 iterations.
 End of Minotr F.D. properties file   721 does not exist.
 End of Minotr F.D. properties file   722 does not exist.
 End of Minotr F.D. properties file   788 does not exist.
 Calling FoFJK, ICntrl=  10002127 FMM=F ISym2X=0 I1Cent= 0 IOpClX= 0 NMat=1 NMatS=1 NMatT=0.
 ***** Axes restored to original set *****
 -------------------------------------------------------------------
 Center     Atomic                   Forces (Hartrees/Bohr)
 Number     Number              X              Y              Z
 -------------------------------------------------------------------
      1        7          -0.002185860   -0.000416921   -0.001834990
      2        1          -0.000551339    0.000671279    0.000508300
      3        6           0.001326511   -0.000559341    0.000462467
      4        6           0.001793479    0.000389808    0.000176422
      5        7           0.000496609   -0.000243661    0.000256642
      6        1           0.000109722    0.000742991   -0.000093731
      7        1          -0.000707345    0.000613091    0.000266608
      8        1          -0.000619686   -0.000507112    0.000400850
      9        1           0.000167553   -0.000800547    0.000146447
     10        1           0.000239997    0.000081463   -0.000026842
     11        1          -0.000215178    0.000081627   -0.000143679
     12        1           0.000145536   -0.000052677   -0.000118494
 -------------------------------------------------------------------
 Cartesian Forces:  Max     0.002185860 RMS     0.000718385

 GradGradGradGradGradGradGradGradGradGradGradGradGradGradGradGradGradGrad
 Berny optimization.
 Using GEDIIS/GDIIS optimizer.
 FormGI is forming the generalized inverse of G from B-inverse, IUseBI=4.
 Internal  Forces:  Max     0.001465028 RMS     0.000457581
 Search for a local minimum.
 Step number   4 out of a maximum of   56
 All quantities printed in internal units (Hartrees-Bohrs-Radians)
 Mixed Optimization -- En-DIIS/RFO-DIIS
 Swapping is turned off.
 Update second derivatives using D2CorX and points    1    2    3    4
 DE= -1.53D-04 DEPred=-1.83D-04 R= 8.38D-01
 TightC=F SS=  1.41D+00  RLast= 1.55D-01 DXNew= 8.4853D-01 4.6552D-01
 Trust test= 8.38D-01 RLast= 1.55D-01 DXMaxT set to 5.05D-01
 ITU=  1  1  1  0
     Eigenvalues ---    0.00230   0.00238   0.00308   0.01487   0.02305
     Eigenvalues ---    0.03373   0.03657   0.04082   0.04152   0.05271
     Eigenvalues ---    0.08253   0.12250   0.12552   0.14260   0.15740
     Eigenvalues ---    0.16000   0.16071   0.16133   0.17987   0.25182
     Eigenvalues ---    0.33188   0.35456   0.35722   0.35722   0.35762
     Eigenvalues ---    0.40870   0.42941   0.44015   0.44036   0.44299
 En-DIIS/RFO-DIIS/Sim-DIIS IScMMF=       -3 using points:     4    3
 RFO step:  Lambda=-1.12012371D-04.
 DidBck=T Rises=F RFO-DIIS coefs:    0.79544    0.20456
 Iteration  1 RMS(Cart)=  0.06603808 RMS(Int)=  0.00205896
 Iteration  2 RMS(Cart)=  0.00445787 RMS(Int)=  0.00019741
 Iteration  3 RMS(Cart)=  0.00000402 RMS(Int)=  0.00019739
 Iteration  4 RMS(Cart)=  0.00000000 RMS(Int)=  0.00019739
 Variable       Old X    -DE/DX   Delta X   Delta X   Delta X     New X
                                 (Linear)    (Quad)   (Total)
    R1        1.94278  -0.00012   0.00016  -0.00108  -0.00092   1.94186
    R2        2.81653  -0.00098  -0.00260   0.00455   0.00199   2.81852
    R3        2.81697  -0.00147  -0.00270   0.00358   0.00091   2.81789
    R4        4.01274   0.00064  -0.02346   0.06759   0.04413   4.05687
    R5        2.81915  -0.00050   0.00063  -0.00255  -0.00200   2.81715
    R6        2.06457  -0.00046   0.00038  -0.00112  -0.00074   2.06383
    R7        2.06874  -0.00081   0.00029  -0.00165  -0.00136   2.06738
    R8        2.06872  -0.00078   0.00029  -0.00160  -0.00130   2.06742
    R9        2.06460  -0.00050   0.00037  -0.00119  -0.00082   2.06378
   R10        1.92879   0.00001   0.00032  -0.00068  -0.00037   1.92843
   R11        1.92762   0.00002   0.00035  -0.00070  -0.00034   1.92728
   R12        1.92878  -0.00005   0.00032  -0.00081  -0.00049   1.92829
    A1        1.86984   0.00036   0.00452  -0.00630  -0.00179   1.86805
    A2        1.87155   0.00004   0.00411  -0.01005  -0.00594   1.86561
    A3        2.00269  -0.00038  -0.00034  -0.00016  -0.00052   2.00217
    A4        2.04929   0.00064   0.00284   0.00164   0.00449   2.05379
    A5        2.09253  -0.00039  -0.00087  -0.00183  -0.00267   2.08986
    A6        2.05467  -0.00007  -0.00134  -0.00119  -0.00257   2.05211
    A7        2.01601   0.00028   0.00042   0.00090   0.00132   2.01733
    A8        2.04968   0.00060   0.00275   0.00076   0.00352   2.05320
    A9        2.00310  -0.00059  -0.00044  -0.00111  -0.00156   2.00155
   A10        2.05419   0.00019  -0.00122  -0.00013  -0.00139   2.05280
   A11        2.09268  -0.00070  -0.00090  -0.00212  -0.00299   2.08969
   A12        2.01592   0.00035   0.00044   0.00112   0.00157   2.01748
   A13        1.73117   0.00046  -0.00004   0.00353   0.00297   1.73414
   A14        2.38507  -0.00052   0.00341  -0.01083  -0.00740   2.37767
   A15        1.73476   0.00027  -0.00058   0.00160   0.00153   1.73629
   A16        1.85412   0.00003  -0.00108   0.00404   0.00233   1.85645
   A17        1.85029  -0.00012  -0.00128   0.00256   0.00127   1.85156
   A18        1.85599  -0.00008  -0.00138   0.00163   0.00087   1.85686
   A19        3.27627  -0.00058  -0.01442  -0.10742  -0.12203   3.15424
   A20        3.18607   0.00007   0.00480   0.02622   0.03120   3.21727
    D1       -1.63969   0.00013   0.00094  -0.00183  -0.00099  -1.64068
    D2        0.57787   0.00018  -0.00298  -0.03783  -0.04038   0.53749
    D3        2.76815   0.00009   0.00173  -0.01108  -0.00947   2.75868
    D4       -2.77555  -0.00017  -0.00011   0.02424   0.02390  -2.75165
    D5       -0.55799  -0.00012  -0.00403  -0.01176  -0.01550  -0.57348
    D6        1.63229  -0.00021   0.00068   0.01499   0.01542   1.64770
    D7        2.58416   0.00046  -0.00169   0.01082   0.00915   2.59330
    D8        0.12937  -0.00039  -0.00590   0.00723   0.00136   0.13074
    D9       -0.13142   0.00050   0.00640  -0.00275   0.00361  -0.12781
   D10       -2.58713  -0.00011   0.00241  -0.00422  -0.00183  -2.58896
   D11       -2.61195   0.00022   0.00329   0.00271   0.00601  -2.60594
   D12       -0.00031  -0.00001   0.00007   0.00077   0.00084   0.00052
   D13        0.00059  -0.00005  -0.00014  -0.00132  -0.00146  -0.00087
   D14        2.61222  -0.00029  -0.00335  -0.00327  -0.00663   2.60559
         Item               Value     Threshold  Converged?
 Maximum Force            0.001465     0.000450     NO 
 RMS     Force            0.000458     0.000300     NO 
 Maximum Displacement     0.190272     0.001800     NO 
 RMS     Displacement     0.068279     0.001200     NO 
 Predicted change in Energy=-5.759483D-05
 GradGradGradGradGradGradGradGradGradGradGradGradGradGradGradGradGradGrad

                          Input orientation:                          
 ---------------------------------------------------------------------
 Center     Atomic      Atomic             Coordinates (Angstroms)
 Number     Number       Type             X           Y           Z
 ---------------------------------------------------------------------
      1          7           0       -0.510547    0.135992    0.656840
      2          1           0        0.434981    0.138359    0.254463
      3          6           0       -1.361687   -0.706094   -0.232549
      4          6           0       -1.408997    0.779745   -0.344126
      5          7           0        2.452365    0.042618   -0.473382
      6          1           0       -2.168747   -1.237113    0.276789
[...]
 ,-0.00002137,0.00002628,-0.00000607,-0.00002646,0.00005386,0.00004563,
 -0.00008697,0.00005770,-0.00006495,0.00002601,-0.00000947,0.00001607,0
 .00001714,0.00000907,-0.00001618,0.00002735,-0.00007858,-0.00002018,0.
 00004568,-0.00001071,-0.00000307,0.00000363,0.00000855,0.00000013,-0.0
 0000264,0.00000196,0.00002247,-0.00003005,0.00003623,-0.00000393,0.000
 01304,0.00001578,-0.00007992,-0.00007322,0.00006888,-0.00006705,0.0002
 3281,0.00000409,0.00007944,-0.00005682,-0.00001554,0.00003083,0.000011
 01,-0.00010165,-0.18201764,0.73808042,-0.39528123,-0.00000931,0.000000
 31,-0.00000761,0.00003612,0.00009690,-0.00000246,0.00003779,-0.0000175
 1,0.00003877,-0.00000309,0.00000136,0.00003211,0.15179918,0.00001018,-
 0.00008238,0.00005885,-0.00067494,0.00052844,0.00027269,-0.00017721,-0
 .00001312,-0.00011423,-0.00005597,0.00002903,-0.00012253,0.70231141,-0
 .79288338,0.56425394,0.00005988,-0.00001272,0.00003015,-0.00003539,-0.
 00006260,0.00000376,-0.00000125,0.00002444,0.00001679,0.00003878,-0.00
 000149,0.00001385,-0.72064694,0.79618571,0.00002831,0.00012250,-0.0000
 9491,0.00051496,-0.00047277,-0.00016665,0.00012034,0.00001268,0.000083
 90,0.00000903,-0.00004557,0.00017554,-0.37003738,0.55470224,-0.0114170
 0,-0.00003469,0.00000228,-0.00003034,0.00007341,0.00003552,-0.00002355
 ,0.00002576,0.00000131,0.00000736,-0.00002161,0.00001648,-0.00002760,0
 .38726256,-0.57340643,0.00438368,0.00007724,0.00000416,0.00004268,0.00
 023205,0.00003849,0.00045459,-0.00007232,-0.00006565,-0.00007166,-0.00
 007377,0.00005223,-0.00008122,0.26490563,0.01931015,0.23790708,-0.0000
 1721,0.00001060,-0.00000297,-0.00006678,-0.00000583,0.00001409,-0.0000
 6753,0.00000757,0.00001237,-0.00001703,-0.00001141,-0.00000127,0.01296
 571,0.00042682,-0.01914043,-0.29086416,-0.00000060,0.00000572,0.000007
 57,0.00000731,0.00006709,0.00007327,-0.00002414,-0.00002008,-0.0000160
 1,-0.00000348,-0.00002483,-0.00000401,0.01566939,0.25872218,-0.1402860
 1,0.00000030,0.00001011,-0.00000331,-0.00003082,-0.00003804,-0.0000304
 5,0.00002068,-0.00002039,0.00002546,0.00000679,0.00001199,0.00000518,0
 .00008084,0.01027264,0.03172528,-0.01639717,-0.27502553,-0.00001699,0.
 00000698,0.00009468,0.00007046,0.00006929,0.00090371,-0.00016191,0.000
 03136,-0.00013832,-0.00016349,-0.00005307,-0.00013264,0.19317088,-0.14
 073368,-1.48273519,0.00004705,-0.00000666,0.00002369,-0.00005504,-0.00
 007938,-0.00005275,-0.00006084,0.00007328,-0.00006989,0.00004634,0.000
 00945,0.00002176,0.00413103,-0.00829152,-0.00660061,-0.20095244,0.1426
 7661,1.49108661,-0.00008094,0.00008416,0.00005690,-0.00007615,-0.00024
 018,0.00004955,0.00002982,-0.00002794,-0.00010132,0.00007483,0.0000548
 2,-0.00002697,-0.15286710,-0.77749662,-0.26225589,-0.00000230,0.000003
 96,0.00003224,0.00003743,0.00002380,0.00003591,0.00003666,-0.00009422,
 0.00001291,-0.00000814,-0.00000129,-0.00000682,0.01722795,0.01874463,0
 .00119975,0.01299818,0.00067091,0.00394495,0.12262975,-0.00000511,-0.0
 0011050,-0.00005513,0.00073828,0.00055155,-0.00039024,0.00005638,0.000
 06017,0.00013940,0.00019595,0.00001019,0.00012685,-0.73813310,-0.98129
 119,-0.41450849,-0.00004174,-0.00000766,-0.00001661,0.00000644,0.00002
 209,-0.00001814,0.00004869,-0.00006891,0.00000335,-0.00006465,-0.00001
 946,-0.00003222,-0.01770914,-0.01398456,-0.01269352,-0.00336997,0.0060
 3913,0.00629734,0.75827797,0.98879917,0.00003167,-0.00011957,-0.000065
 71,0.00039265,0.00036437,-0.00018207,-0.00000133,0.00006461,0.00014494
 ,0.00009038,0.00000177,0.00006527,-0.24331570,-0.40451446,0.14754861,-
 0.00001476,-0.00002012,-0.00002215,0.00002528,-0.00000323,0.00001072,0
 .00006730,-0.00002716,-0.00001846,-0.00002451,-0.00000471,-0.00002468,
 0.00387104,0.01728468,0.01371018,-0.01818081,-0.03417359,-0.00240105,0
 .25705879,0.42114741,-0.15876561,0.00069095,0.00000226,0.00016996,-0.0
 0006021,0.00000879,0.00027477,-0.00036981,0.00001347,0.00020484,0.0001
 9579,0.00001019,-0.00019566,-0.00000489,-0.00002203,0.00041440,0.00016
 546,-0.00000565,-0.00027714,-0.00023821,0.00000892,0.00053984,-0.00005
 849,-0.00011701,-0.00005738,0.00007920,0.00010521,-0.00002536,-0.00014
 207,-0.00005331,-0.00002259,-0.00008857,-0.00002200,-0.00002556,0.0000
 0701,0.00009733,0.00006443,-0.00001426,0.00001884,-0.00004079,-0.00006
 479,0.00005126,-0.00003229,0.00007125,0.00018520,0.00006750,-0.0000639
 5,0.00010329,-0.00007159,0.00007885,-0.00010483,-0.00001033,0.00000595
 ,0.00004368,0.00004437,-0.00013398,0.00004967,-0.00000961,0.00008230,0
 .00001415,-0.00003674,-0.00000645,-0.00003762,0.00005361,0.00000324,-0
 .00008478,0.00003107,-0.00001952,-0.00002590,-0.00005105,-0.00006719,-
 0.00005207,-0.00002351,0.00005069,-0.00000044,0.00006748,0.00009063,-0
 .00017511,0.00013161,0.00005551,-0.00000025,0.00006569,-0.00053077,0.0
 0001618,-0.00000207,0.00018333,0.00005695,0.00007925,0.00019020,-0.000
 04008,0.00008740,0.59600133,-0.00003883,0.00064585,-0.00002418,-0.0000
 7100,-0.00218918,0.00020085,0.00030175,-0.00000932,0.00001238,-0.00031
 318,-0.00001869,-0.00006467,0.07502992,2.77575332,-0.00041061,-0.00002
 941,0.00031977,-0.00102577,0.00018815,0.00024851,-0.00010798,-0.000041
 75,-0.00032638,-0.00005940,-0.00001078,-0.00032275,1.12109035,-0.24090
 798,-0.34097376,-0.00000977,-0.00000848,-0.00001873,0.00001526,0.00000
 628,0.00000817,0.00003782,0.00001565,-0.00002285,-0.00000894,0.0000007
 9,-0.00000113,-0.00001355,-0.00004981,0.00006015,-0.00001415,-0.000011
 43,-0.00000636,-0.00000499,0.00000234,0.00000488,-0.00000761,-0.000001
 82,-0.00001986,-0.00005236,0.00000380,-0.00001727,0.00002591,-0.000024
 05,0.00008770,0.00001796,0.00000222,0.00002424,0.00000592,0.00001184,-
 0.00000035,0.00003285,0.00001708,0.00001368,-0.00006156,-0.00008307,-0
 .00000943,0.00000172,-0.00000119,0.00001112,-0.00003161,-0.00000997,0.
 00006520,0.00004066,0.00003522,-0.00001760,0.00002206,0.00003172,0.000
 02488,-0.00002114,-0.00003724,-0.00004503,-0.00000817,-0.00007227,-0.0
 0005562,0.00001351,0.00000607,-0.00000607,0.00004547,0.00015950,-0.000
 00240,-0.00000470,0.00000607,0.00001585,-0.00009645,-0.00000388,-0.000
 00553,-0.00001271,0.00000983,0.00001929,-0.00003109,-0.00002052,-0.000
 02895,-0.00010652,-0.00001995,0.00000105,0.00006001,0.00000820,0.00006
 739,0.00003544,0.00000267,0.00000777,0.00002652,0.00001032,0.00001110,
 -0.00001935,0.00003449,0.00001735,0.00001625,-0.00004217,-0.00001485,-
 0.00002117,-0.00004370,-0.00009690,0.00002500,-0.00001959,0.00002051,-
 0.00001499,0.00016094,0.00003083,0.00000080,0.00000752,0.00003008,-0.0
 0000268,0.00003375,0.00004819,0.00002444,-0.00002570,0.00002732,-0.000
 02119,0.00002842,-0.00005030,0.00001365,-0.00000606,-0.00000476,-0.000
 00893,0.00005574,-0.00006786,0.00004943,-0.00015949,0.00002393,0.00000
 163,0.00000238,0.00000215,-0.00000265,-0.00001045,0.00001075,-0.000094
 72,0.00000139,-0.00000743,0.00001687,-0.00000804,0.00003039,0.00002267
 ,0.00002349,-0.00000008,-0.00005690,0.00001587,-0.00001530,0.00009341,
 -0.00001039,0.00003283,-0.00003535,-0.00000172,0.00000923,0.00000323,0
 .00001149,0.00001415,-0.00000661,-0.00000920,0.00000671,-0.00001854,-0
 .00003053,0.00001965,0.00001735,0.00003475,-0.00002546,0.00001977,0.00
 002216,0.00002847,-0.00002949,0.00003401,-0.00012158,-0.00000975,-0.00
 016143,0.00006298,0.00000461,-0.00000465,-0.00000051,0.00000893,0.0000
 0418,-0.00000230,0.00000029,-0.00002799,0.00006172,-0.00000986,0.00000
 546,-0.00001996,0.00001502,-0.00000424,0.00000893,-0.00000693,-0.00000
 328,-0.00000100,0.00003891,-0.00001286,-0.00002629,-0.00001491,0.00005
 761,0.00005190,0.00000331,0.00000828,-0.00000493,0.00000189,0.00000224
 ,0.00000428,-0.00000956,-0.00000390,0.00000535,-0.00001192,0.00001185,
 -0.00000575,0.00000562,0.00000314,0.00000360,0.00000948,-0.00000366,-0
 .00001637,-0.00002220,-0.00000657,-0.00000761,0.00005231,0.00001671,0.
 00008692,-0.00002016,-0.00000864,-0.00000241,-0.00000157,-0.00000244,0
 .00000925,0.00000304,-0.00000110,0.00000135,-0.00000444,0.00000149,0.0
 0001734,0.00000202,-0.00000940,0.00000150,0.00003282,-0.00001462,0.000
 01535,0.00000283,0.00000596,0.00001455,-0.00006390,0.00007757,-0.00003
 166,-0.00003494,0.00000674,0.00006698,-0.00000342,-0.00000029,-0.00001
 099,0.00000276,-0.00000504,-0.00000086,0.00001814,-0.00002080,0.000031
 68,0.00004295,-0.00003807,-0.00000290,-0.00021552,0.00006669,-0.000008
 23,0.00035545,-0.00018018,-0.00006394,0.00009055,-0.00004179,0.0000596
 2,-0.00014832,-0.00000318,-0.00001538,-0.31298110,1.22909696,-0.671581
 47,-0.00001998,0.00003309,-0.00002512,0.00011817,0.00008157,0.00003623
 ,-0.00001683,0.00003060,-0.00005167,-0.00000315,0.00002568,-0.00000718
 ,0.30629490,-0.00022780,-0.00021841,0.00006812,-0.00038058,0.00083142,
 0.00011382,-0.00021460,-0.00000184,-0.00010756,0.00000993,0.00003750,-
 0.00009188,1.21234266,-1.21507181,0.94427938,0.00002486,-0.00003981,0.
 00004106,-0.00008380,-0.00005657,-0.00001242,0.00001451,-0.00000497,0.
 00011013,-0.00001974,-0.00003231,0.00003205,-1.21640707,1.19401071,0.0
 0024666,0.00020339,-0.00008971,0.00058461,-0.00074921,-0.00020768,0.00
 022241,-0.00002073,0.00006944,-0.00010170,0.00000114,0.00019942,-0.657
 61486,0.93722876,0.02560177,-0.00004404,0.00004267,-0.00003325,0.00009
 648,0.00005058,0.00004676,-0.00003688,0.00002054,-0.00008330,-0.000021
 69,0.00004241,-0.00003819,0.66140814,-0.93823097,-0.00937222,0.0001553
 9,-0.00000517,-0.00009010,-0.00014442,0.00002480,0.00034211,-0.0000463
 8,-0.00001213,-0.00007395,-0.00004894,-0.00000009,-0.00007575,-0.01860
 686,0.00020732,0.00300961,0.00001613,0.00000507,0.00002642,-0.00005245
 ,-0.00002159,0.00000847,-0.00005330,0.00002207,0.00000476,0.00001620,-
 0.00000035,0.00002679,0.00838956,-0.00127975,-0.00466882,0.00216613,-0
 .00000528,-0.00008796,-0.00000405,-0.00000263,0.00022092,-0.00001127,-
 0.00010287,-0.00004971,-0.00004147,0.00010273,-0.00004404,0.00006035,-
 0.00194242,-0.01877109,0.00332029,-0.00000040,-0.00000320,-0.00000769,
 -0.00000990,-0.00000999,0.00000491,0.00000862,-0.00000688,-0.00000657,
 0.00000040,0.00000030,0.00000458,-0.00639819,0.01039697,0.00473565,0.0
 0054092,-0.00204328,-0.00008891,-0.00000410,-0.00012441,0.00000409,-0.
 00001393,0.00004753,0.00000565,0.00003730,0.00007749,-0.00001027,-0.00
 001723,0.00007357,-0.02347868,0.00307588,0.01893749,-0.00000036,-0.000
 01757,-0.00002195,-0.00000353,-0.00002497,-0.00001847,-0.00000511,0.00
 002283,-0.00002122,-0.00000073,0.00001381,-0.00002547,0.00934516,-0.00
 713836,-0.01130189,0.00612891,0.00024767,0.00352288,-0.00022097,-0.000
 06627,0.00000345,0.00034776,0.00015744,-0.00008943,-0.00014845,-0.0000
 0278,-0.00001726,0.00008566,0.00005219,0.00005046,-0.26437806,-1.30422
 077,-0.45104831,-0.00000306,-0.00002594,-0.00000236,-0.00001553,-0.000
 03844,-0.00004359,0.00011803,-0.00007166,0.00004839,-0.00001899,-0.000
 03611,-0.00001888,-0.00186374,0.00622138,-0.00007031,0.00820895,0.0078
 0901,0.00810378,0.25788839,0.00026516,-0.00025654,-0.00004231,0.000463
 36,0.00092224,-0.00030068,-0.00002968,0.00005622,0.00011610,0.00025001
 ,0.00002600,0.00011806,-1.28545343,-1.54061390,-0.70679581,0.00001657,
 -0.00004493,-0.00003145,-0.00001953,-0.00002897,-0.00012017,0.00010233
 ,-0.00006000,0.00003038,-0.00003147,-0.00005431,-0.00003868,-0.0063041
 7,0.01014912,-0.00332423,0.00051890,0.01039794,0.00381867,1.29022194,1
 .51950712,0.00021135,-0.00017234,-0.00004957,0.00050314,0.00057671,-0.
 00028398,-0.00009915,0.00002064,0.00018087,0.00018496,0.00003208,0.000
 04683,-0.44013580,-0.69951731,0.29628937,-0.00002387,-0.00004183,-0.00
 002599,-0.00003357,-0.00003015,-0.00006033,0.00008232,-0.00003191,0.00
 004988,-0.00003882,-0.00004022,-0.00001999,0.00090384,0.00093663,-0.00
 479114,-0.00463845,-0.00830241,-0.01114554,0.44308405,0.70657012,-0.28
 019039,0.00011778,0.00000637,-0.00008678,0.00002208,0.00002576,0.00021
 258,-0.00018447,-0.00000750,-0.00003965,0.00043548,0.00001312,0.000051
 66,-0.00002760,0.00000372,0.00020843,0.00022252,-0.00002560,-0.0002758
 4,-0.00000594,-0.00000671,0.00012598,0.00005156,-0.00007325,-0.0000896
 1,0.00001616,0.00005922,0.00005715,-0.00043004,-0.00010806,0.00003127,
 -0.00017705,0.00000659,-0.00006142,0.00002548,-0.00002303,0.00003352,-
 0.00009578,-0.00009267,0.00004000,0.00000914,0.00003106,0.00005752,0.0
 0001169,0.00017292,0.00001121,0.00004530,0.00005541,-0.00009767,0.0000
 1535,-0.00004620,0.00006389,0.00030633,0.00006800,0.00001646,-0.000426
 96,0.00009064,0.00007665,0.00016959,-0.00000250,-0.00006828,-0.0000031
 2,-0.00005966,0.00003076,0.00000510,0.00001811,0.00000877,-0.00010999,
 0.00008316,-0.00000324,0.00001011,-0.00001023,0.00006276,0.00002620,0.
 00000909,0.00011423,0.00001251,-0.00016998,0.00007154,0.00031400,0.000
 00593,0.00007987,-0.00061924,-0.00007687,-0.00099577,0.00020134,-0.000
 00385,0.00014483,0.00020456,0.00003165,0.00014227,-0.50062670,0.000028
 57,0.00035542,0.00000147,-0.00003835,-0.00108057,-0.00004692,0.0001562
 2,-0.00004986,-0.00001666,-0.00013710,-0.00003569,-0.00001860,-0.03583
 835,0.29144292,0.00033969,0.00000493,0.00037884,-0.00055123,-0.0000411
 3,-0.00154577,0.00007034,-0.00011951,-0.00027427,0.00009469,0.00008219
 ,-0.00029056,-0.27556120,0.23554187,3.24156497,-0.00000415,0.00002881,
 0.00000726,-0.00001541,0.00000273,-0.00001654,0.00005421,0.00010942,0.
 00003937,-0.00003557,-0.00000039,0.00000598,-0.00000709,-0.00004381,-0
 .00002870,-0.00005747,-0.00002163,-0.00000496,-0.00001568,0.00000935,0
 .00000052,-0.00000992,0.00004034,0.00000653,-0.00001625,0.00003623,-0.
 00000362,-0.00000783,0.00000110,0.00002579,0.00005038,-0.00006988,-0.0
 0001693,0.00003201,0.00003649,-0.00000830,-0.00000856,0.00000447,-0.00
 001774,-0.00000211,-0.00008787,-0.00004241,-0.00002757,-0.00003413,-0.
 00001167,0.00002966,0.00000983,0.00009963,0.00000490,0.00002998,0.0000
 0165,-0.00002426,-0.00000147,0.00002965,-0.00001583,-0.00004330,-0.000
 05318,0.00001009,0.00004049,0.00003979,-0.00001050,0.00001072,-0.00001
 788,0.00014703,0.00018527,0.00008794,0.00005685,-0.00001510,-0.0000180
 0,-0.00014160,0.00000979,-0.00000760,-0.00000600,-0.00001189,-0.000023
 86,-0.00006338,0.00003322,0.00000814,-0.00004281,-0.00002748,-0.000034
 82,0.00005155,0.00007441,0.00012599,0.00021924,-0.00004197,0.00003988,
 0.00004941,-0.00007401,0.00000156,0.00000345,0.00003262,-0.00000366,0.
 00000929,-0.00000040,-0.00000219,0.00006928,-0.00000037,-0.00002106,-0
 .00003053,-0.00005072,-0.00005795,0.00002099,0.00007706,0.00021449,-0.
 00005980,0.00001131,0.00005270,-0.00000921,-0.00001097,0.00001630,-0.0
 0002232,0.00000721,0.00002670,-0.00001639,0.00003353,-0.00005909,-0.00
 001054,-0.00001234,-0.00001593,0.00001321,-0.00003951,0.00004517,0.000
 15208,-0.00016691,0.00012121,-0.00000968,0.00000417,0.00000395,-0.0000
 0686,-0.00000166,0.00001617,-0.00014267,-0.00000895,-0.00001062,0.0000
 0718,0.00001319,-0.00001211,0.00006329,0.00002212,-0.00003061,-0.00005
 658,-0.00002293,0.00000356,0.00004116,-0.00006971,0.00007648,-0.000195
 94,-0.00000251,0.00000141,0.00000101,0.00000405,-0.00001503,0.00002001
 ,0.00007209,0.00001347,0.00000625,-0.00003137,0.,0.00000760,0.00000186
 ,-0.00001250,-0.00003668,0.00004447,-0.00005519,0.00006940,0.00000218,
 -0.00002900,0.00003373,-0.00005449,0.00025985,0.00001014,0.00000438,0.
 00000042,0.00001608,-0.00001106,0.00003643,-0.00002044,0.00001021,0.00
 001556,-0.00000383,-0.00002712,0.00001162,-0.00001536,-0.00000547,-0.0
 0001590,-0.00003296,-0.00000166,0.00000516,0.00005818,-0.00009484,0.00
 005086,-0.00000791,0.00003791,-0.00003480,0.00001457,0.00000893,-0.000
 00620,-0.00000940,0.00000403,0.00000992,0.00005044,0.00003058,-0.00006
 154,-0.00005804,0.00002636,-0.00000699,0.00001558,-0.00001109,0.000000
 52,0.00000674,-0.00004160,0.00000683,0.00000375,-0.00003775,0.00000945
 ,0.00000933,0.00000329,0.00001876,-0.00003800,-0.00000870,-0.00003432,
 0.00000820,-0.00000399,0.00000045,-0.00000432,0.00001450,0.00002962,-0
 .00001047,0.00006635,-0.00001775,0.00002633,-0.00003455,-0.00000388,-0
 .00000691,-0.00000744,-0.00001782,-0.00002116,0.00003063,-0.00001795,0
 .00000157,0.00007481,-0.00005846,0.00002950,0.00000350,0.00010706,-0.0
 0000457,-0.00000130,0.00001018,0.00000472,-0.00000124,0.00000097,-0.00
 001810,-0.00004510,0.00005859,-0.00000428,-0.00002425,0.00001363,0.000
 05966,0.00003080,-0.00006980,0.00001695,0.00001353,0.00014494,-0.00003
 079,-0.00003752,-0.00002731,-0.00005181,0.00000824,-0.00004885,-0.0904
 8405,0.40966961,-0.18716513,0.00001863,0.00000118,-0.00000968,-0.00002
 242,0.00002332,-0.00001157,-0.00001038,0.00000747,-0.00001483,0.000012
 64,0.00000524,0.00000510,0.08512760,-0.00008594,-0.00013347,0.00016480
 ,-0.00039713,0.00045041,0.00002003,-0.00013779,-0.00000891,-0.00008555
 ,0.00004139,0.00000863,-0.00007330,0.38934369,-0.45023737,0.28356041,0
 .00002625,-0.00002033,0.00002629,-0.00003438,-0.00001163,-0.00001139,0
 .00005092,-0.00003470,0.00005905,0.00000145,-0.00001882,0.00003763,-0.
 40287816,0.46440125,0.00009314,-0.00001884,-0.00001090,0.00002688,0.00
 003888,-0.00010878,0.00003344,-0.00003441,0.00005409,-0.00002615,-0.00
 003855,0.00008475,-0.17328574,0.27905534,0.03319423,0.00000079,0.00000
 300,-0.00003885,0.00003165,0.00002578,-0.00005498,-0.00001863,0.000033
 72,-0.00005187,0.00001525,0.00001018,0.00000051,0.18456373,-0.28469714
 ,-0.05605027,-0.00040975,0.00001202,0.00018088,0.00037509,0.00004375,0
 .00050938,-0.00008483,-0.00002032,-0.00007899,-0.00008353,0.00000599,-
 0.00008100,0.66409220,0.04627847,0.57524837,-0.00002762,0.00000884,-0.
 00000491,0.00002621,0.00002099,-0.00000574,0.00002638,-0.00002076,-0.0
 0000198,-0.00002756,-0.00001077,-0.00000350,-0.00284764,0.00439960,-0.
 01014425,-0.65836282,-0.00005258,-0.00011285,-0.00001628,0.00004986,0.
 00010544,0.00014531,0.00007061,0.00000685,0.00001688,-0.00008759,-0.00
 001020,-0.00000546,0.04435615,0.69605507,-0.32858899,-0.00000159,0.000
 03182,-0.00001070,-0.00001614,-0.00003261,-0.00000380,-0.00000050,-0.0
 0000677,-0.00001928,0.00000471,0.00003805,-0.00000440,0.00269506,-0.00
 699547,0.00698535,-0.04479017,-0.68180959,-0.00061486,-0.00002377,-0.0
 0033414,0.00058426,0.00014567,0.00181807,-0.00009930,0.00008929,0.0000
 6907,-0.00008603,-0.00007882,0.00008423,0.55165229,-0.32883202,-3.3828
 2636,0.00002582,-0.00004249,-0.00005303,-0.00010243,-0.00017650,-0.000
 14485,-0.00010719,0.00015265,-0.00017092,0.00002482,0.00002829,-0.0000
 5914,0.00240633,-0.00290312,0.01448479,-0.55637496,0.32518852,3.352522
 28,0.00006045,-0.00003721,-0.00006132,0.00000767,0.00000224,0.00014855
 ,-0.00005051,-0.00001771,-0.00004843,-0.00003457,0.00003156,-0.0000353
 9,-0.07336621,-0.42013154,-0.11262119,0.00001272,-0.00000353,0.0000065
 0,-0.00000931,-0.00000876,-0.00001225,-0.00002326,-0.00002465,-0.00000
 772,0.00001922,-0.00000185,-0.00000871,0.00821162,0.00967010,-0.001290
 11,-0.00267613,-0.00222781,0.00269124,0.06784830,0.00010230,-0.0001517
 2,-0.00014176,0.00038574,0.00042927,-0.00010520,-0.00004640,0.00002692
 ,0.00008082,0.00013991,0.00001477,0.00009109,-0.39782744,-0.53669692,-
 0.19047544,0.00000164,-0.00002579,-0.00003297,-0.00005213,-0.00005048,
 -0.00005904,0.00003848,-0.00001469,0.00000452,-0.00002486,-0.00002579,
 -0.00002830,-0.00953876,-0.00739959,-0.00136329,-0.00592765,-0.0072697
 4,0.00645229,0.41274917,0.55116377,0.00007517,0.00004385,0.00000853,-0
 .00003500,-0.00012844,-0.00008369,-0.00001924,0.00004732,0.00006476,0.
 00000943,0.00004145,0.00003335,-0.10229043,-0.18572037,0.10911790,0.00
 001536,-0.00000557,0.00000743,-0.00000914,-0.00003402,-0.00003619,0.00
 002616,-0.00003160,-0.00005137,0.00000509,-0.00000503,-0.00003369,0.00
 022706,0.00390229,0.00849727,-0.00924329,-0.00368715,0.01460999,0.1112
 3883,0.18557727,-0.13213429\\@


    THE DOUGHNUT CREED
 AS YOU RAMBLE ON THROUGH LIFE, BROTHER
 WHATEVER BE YOUR GOAL
 KEEP YOUR EYE UPON THE DOUGHNUT
 AND NOT UPON THE HOLE.
 Job cpu time:       2 days 23 hours 15 minutes 34.9 seconds.
 Elapsed time:       0 days  2 hours 35 minutes 21.9 seconds.
 File lengths (MBytes):  RWF=   3088 Int=      0 D2E=      0 Chk=     52 Scr=      8
 Normal termination of Gaussian 16 at Mon Dec 20 12:27:29 2021.
