 Entering Gaussian System, Link 0=g16
 Input=az_nh3_mp2_avtz_opt_anharm.gjf
 Output=az_nh3_mp2_avtz_opt_anharm.log
 Initial command:
 /sw/contrib/gaussian/g16/A03/g16/l1.exe "/gscratch/scrubbed/gds001/Gau-13054.inp" -scrdir="/gscratch/scrubbed/gds001/"
 Entering Link 1 = /sw/contrib/gaussian/g16/A03/g16/l1.exe PID=     13055.
  
 Copyright (c) 1988,1990,1992,1993,1995,1998,2003,2009,2016,
            Gaussian, Inc.  All Rights Reserved.
  
 This is part of the Gaussian(R) 16 program.  It is based on
 the Gaussian(R) 09 system (copyright 2009, Gaussian, Inc.),
 the Gaussian(R) 03 system (copyright 2003, Gaussian, Inc.),
 the Gaussian(R) 98 system (copyright 1998, Gaussian, Inc.),
 the Gaussian(R) 94 system (copyright 1995, Gaussian, Inc.),
 the Gaussian 92(TM) system (copyright 1992, Gaussian, Inc.),
 the Gaussian 90(TM) system (copyright 1990, Gaussian, Inc.),
 the Gaussian 88(TM) system (copyright 1988, Gaussian, Inc.),
 the Gaussian 86(TM) system (copyright 1986, Carnegie Mellon
 University), and the Gaussian 82(TM) system (copyright 1983,
 Carnegie Mellon University). Gaussian is a federally registered
 trademark of Gaussian, Inc.
  
 This software contains proprietary and confidential information,
 including trade secrets, belonging to Gaussian, Inc.
  
 This software is provided under written license and may be
 used, copied, transmitted, or stored only in accord with that
 written license.
  
 The following legend is applicable only to US Government
 contracts under FAR:
  
                    RESTRICTED RIGHTS LEGEND
  
 Use, reproduction and disclosure by the US Government is
 subject to restrictions as set forth in subparagraphs (a)
 and (c) of the Commercial Computer Software - Restricted
 Rights clause in FAR 52.227-19.
  
 Gaussian, Inc.
 340 Quinnipiac St., Bldg. 40, Wallingford CT 06492
  
  
 ---------------------------------------------------------------
 Warning -- This program may not be used in any manner that
 competes with the business of Gaussian, Inc. or will provide
 assistance to any competitor of Gaussian, Inc.  The licensee
 of this program is prohibited from giving any competitor of
 Gaussian, Inc. access to this program.  By using this program,
 the user acknowledges that Gaussian, Inc. is engaged in the
 business of creating and licensing software in the field of
 computational chemistry and represents and warrants to the
 licensee that it is not a competitor of Gaussian, Inc. and that
 it will not use this program in any manner prohibited above.
 ---------------------------------------------------------------
  

 Cite this work as:
 Gaussian 16, Revision A.03,
 M. J. Frisch, G. W. Trucks, H. B. Schlegel, G. E. Scuseria, 
 M. A. Robb, J. R. Cheeseman, G. Scalmani, V. Barone, 
 G. A. Petersson, H. Nakatsuji, X. Li, M. Caricato, A. V. Marenich, 
 J. Bloino, B. G. Janesko, R. Gomperts, B. Mennucci, H. P. Hratchian, 
 J. V. Ortiz, A. F. Izmaylov, J. L. Sonnenberg, D. Williams-Young, 
 F. Ding, F. Lipparini, F. Egidi, J. Goings, B. Peng, A. Petrone, 
 T. Henderson, D. Ranasinghe, V. G. Zakrzewski, J. Gao, N. Rega, 
 G. Zheng, W. Liang, M. Hada, M. Ehara, K. Toyota, R. Fukuda, 
 J. Hasegawa, M. Ishida, T. Nakajima, Y. Honda, O. Kitao, H. Nakai, 
 T. Vreven, K. Throssell, J. A. Montgomery, Jr., J. E. Peralta, 
 F. Ogliaro, M. J. Bearpark, J. J. Heyd, E. N. Brothers, K. N. Kudin, 
 V. N. Staroverov, T. A. Keith, R. Kobayashi, J. Normand, 
 K. Raghavachari, A. P. Rendell, J. C. Burant, S. S. Iyengar, 
 J. Tomasi, M. Cossi, J. M. Millam, M. Klene, C. Adamo, R. Cammi, 
 J. W. Ochterski, R. L. Martin, K. Morokuma, O. Farkas, 
 J. B. Foresman, and D. J. Fox, Gaussian, Inc., Wallingford CT, 2016.
 
 ******************************************
 Gaussian 16:  ES64L-G16RevA.03 25-Dec-2016
                20-Dec-2021 
 ******************************************
 %nprocshared=28
 Will use up to   28 processors via shared memory.
 %mem=41GB
 ----------------------------------------------
 # MP2/aug-cc-pVTZ opt freq=(vibrot,anharmonic)
 ----------------------------------------------
 1/18=20,19=15,38=1,80=1/1,3;
 2/9=110,12=2,17=6,18=5,40=1/2;
 3/5=16,6=1,7=10,11=9,25=1,30=1,71=1/1,2,3;
 4//1;
 5/5=2,38=5/2;
 8/6=4,10=1/1;
 9/15=2,16=-3/6;
 10/5=1/2;
 6/7=2,8=2,9=2,10=2/1;
 7/12=2/1,2,3,16;
 1/18=20,19=15,80=1/3(2);
 2/9=110/2;
 99//99;
 2/9=110/2;
 3/5=16,6=1,7=10,11=9,25=1,30=1,71=1/1,2,3;
 4/5=5,16=3,69=1/1;
 5/5=2,38=5/2;
 8/6=4,10=1/1;
 9/15=2,16=-3/6;
 10/5=1/2;
 7/12=2/1,2,3,16;
 1/18=20,19=15,80=1/3(-8);
 2/9=110/2;
 6/7=2,8=2,9=2,10=2/1;
 99//99;
 ----
 bleh
 ----
 Symbolic Z-matrix:
 Charge =  0 Multiplicity = 1
 N                     0.67725  -0.00025  -0.8457 
 H                    -0.34062  -0.00054  -0.7079 
 C                     1.26324  -0.74604   0.29886 
 C                     1.26277   0.74631   0.2986 
 N                    -2.39147  -0.00012   0.07306 
 H                     2.18472  -1.28455   0.06878 
 H                     0.57477  -1.25226   0.98129 
 H                     0.57398   1.25232   0.98086 
 H                     2.1839    1.28533   0.06833 
 H                    -2.86413  -0.81518  -0.31872 
 H                    -2.60629   0.00041   1.07046 
 H                    -2.86287   0.81538  -0.31933 
 
 Add virtual bond connecting atoms N5         and H2         Dist= 4.15D+00.

 GradGradGradGradGradGradGradGradGradGradGradGradGradGradGradGradGradGrad
 Berny optimization.
 Initialization pass.
                           ----------------------------
                           !    Initial Parameters    !
                           ! (Angstroms and Degrees)  !
 --------------------------                            --------------------------
 ! Name  Definition              Value          Derivative Info.                !
 --------------------------------------------------------------------------------
 ! R1    R(1,2)                  1.0272         estimate D2E/DX2                !
 ! R2    R(1,3)                  1.4865         estimate D2E/DX2                !
 ! R3    R(1,4)                  1.4865         estimate D2E/DX2                !
 ! R4    R(2,5)                  2.1945         estimate D2E/DX2                !
 ! R5    R(3,4)                  1.4924         estimate D2E/DX2                !
 ! R6    R(3,6)                  1.0918         estimate D2E/DX2                !
 ! R7    R(3,7)                  1.0936         estimate D2E/DX2                !
 ! R8    R(4,8)                  1.0936         estimate D2E/DX2                !
 ! R9    R(4,9)                  1.0918         estimate D2E/DX2                !
 ! R10   R(5,10)                 1.0204         estimate D2E/DX2                !
 ! R11   R(5,11)                 1.0203         estimate D2E/DX2                !
 ! R12   R(5,12)                 1.0204         estimate D2E/DX2                !
 ! A1    A(2,1,3)              106.6908         estimate D2E/DX2                !
 ! A2    A(2,1,4)              106.6906         estimate D2E/DX2                !
 ! A3    A(1,3,6)              114.7032         estimate D2E/DX2                !
 ! A4    A(1,3,7)              117.6813         estimate D2E/DX2                !
 ! A5    A(4,3,6)              119.5679         estimate D2E/DX2                !
 ! A6    A(4,3,7)              117.5679         estimate D2E/DX2                !
 ! A7    A(6,3,7)              115.7548         estimate D2E/DX2                !
 ! A8    A(1,4,8)              117.6813         estimate D2E/DX2                !
 ! A9    A(1,4,9)              114.7032         estimate D2E/DX2                !
 ! A10   A(3,4,8)              117.5674         estimate D2E/DX2                !
 ! A11   A(3,4,9)              119.5683         estimate D2E/DX2                !
 ! A12   A(8,4,9)              115.7548         estimate D2E/DX2                !
 ! A13   A(2,5,10)             107.2239         estimate D2E/DX2                !
 ! A14   A(2,5,11)             123.0013         estimate D2E/DX2                !
 ! A15   A(2,5,12)             107.1603         estimate D2E/DX2                !
 ! A16   A(10,5,11)            106.1537         estimate D2E/DX2                !
 ! A17   A(10,5,12)            106.0652         estimate D2E/DX2                !
 ! A18   A(11,5,12)            106.1546         estimate D2E/DX2                !
 ! A19   L(1,2,5,7,-1)         169.1203         estimate D2E/DX2                !
 ! A20   L(1,2,5,7,-2)         172.4655         estimate D2E/DX2                !
 ! D1    D(3,1,5,10)           -91.5482         estimate D2E/DX2                !
 ! D2    D(3,1,5,11)            30.5635         estimate D2E/DX2                !
 ! D3    D(3,1,5,12)           152.6082         estimate D2E/DX2                !
 ! D4    D(4,1,5,10)          -152.6436         estimate D2E/DX2                !
 ! D5    D(4,1,5,11)           -30.5319         estimate D2E/DX2                !
 ! D6    D(4,1,5,12)            91.5128         estimate D2E/DX2                !
 ! D7    D(2,1,3,6)            148.815          estimate D2E/DX2                !
 ! D8    D(2,1,3,7)              7.4231         estimate D2E/DX2                !
 ! D9    D(2,1,4,8)             -7.4221         estimate D2E/DX2                !
 ! D10   D(2,1,4,9)           -148.8141         estimate D2E/DX2                !
 ! D11   D(6,3,4,8)           -149.2893         estimate D2E/DX2                !
 ! D12   D(6,3,4,9)              0.0002         estimate D2E/DX2                !
 ! D13   D(7,3,4,8)              0.0003         estimate D2E/DX2                !
 ! D14   D(7,3,4,9)            149.2899         estimate D2E/DX2                !
 --------------------------------------------------------------------------------
 Trust Radius=3.00D-01 FncErr=1.00D-07 GrdErr=1.00D-07 EigMax=2.50D+02 EigMin=1.00D-04
 Number of steps in this run=     56 maximum allowed number of steps=    100.
 GradGradGradGradGradGradGradGradGradGradGradGradGradGradGradGradGradGrad

                          Input orientation:                          
 ---------------------------------------------------------------------
 Center     Atomic      Atomic             Coordinates (Angstroms)
 Number     Number       Type             X           Y           Z
 ---------------------------------------------------------------------
      1          7           0        0.677251   -0.000246   -0.845700
      2          1           0       -0.340616   -0.000538   -0.707897
      3          6           0        1.263239   -0.746041    0.298855
      4          6           0        1.262770    0.746311    0.298598
      5          7           0       -2.391467   -0.000117    0.073057
      6          1           0        2.184716   -1.284549    0.068779
      7          1           0        0.574767   -1.252259    0.981288
      8          1           0        0.573980    1.252323    0.980864
      9          1           0        2.183903    1.285326    0.068334
     10          1           0       -2.864133   -0.815180   -0.318716
     11          1           0       -2.606288    0.000413    1.070457
     12          1           0       -2.862874    0.815383   -0.319327
 ---------------------------------------------------------------------
                    Distance matrix (angstroms):
                    1          2          3          4          5
     1  N    0.000000
     2  H    1.027153   0.000000
     3  C    1.486472   2.035111   0.000000
     4  C    1.486472   2.035107   1.492352   0.000000
     5  N    3.203302   2.194511   3.736879   3.736505   0.000000
     6  H    2.181320   2.937552   1.091808   2.242140   4.753024
     7  H    2.217188   2.293050   1.093602   2.221192   3.345338
     8  H    2.217190   2.293046   2.221187   1.093603   3.344637
     9  H    2.181319   2.937546   2.242145   1.091808   4.752515
    10  H    3.671952   2.680157   4.173892   4.455408   1.020405
    11  H    3.801748   2.880245   4.015695   4.015189   1.020272
    12  H    3.670804   2.679272   4.454773   4.172234   1.020407
                    6          7          8          9         10
     6  H    0.000000
     7  H    1.850851   0.000000
     8  H    3.140396   2.504582   0.000000
     9  H    2.569875   3.140405   1.850852   0.000000
    10  H    5.085404   3.702308   4.217120   5.481296   0.000000
    11  H    5.060455   3.419978   3.418978   5.059761   1.631404
    12  H    5.480740   4.217122   3.700457   5.083413   1.630564
                   11         12
    11  H    0.000000
    12  H    1.631414   0.000000
 Stoichiometry    C2H8N2
 Framework group  C1[X(C2H8N2)]
 Deg. of freedom    30
 Full point group                 C1      NOp   1
 Largest Abelian subgroup         C1      NOp   1
 Largest concise Abelian subgroup C1      NOp   1
                         Standard orientation:                         
 ---------------------------------------------------------------------
 Center     Atomic      Atomic             Coordinates (Angstroms)
 Number     Number       Type             X           Y           Z
 ---------------------------------------------------------------------
      1          7           0       -0.677251   -0.000246    0.845700
      2          1           0        0.340616   -0.000538    0.707897
      3          6           0       -1.263239   -0.746041   -0.298855
      4          6           0       -1.262770    0.746311   -0.298598
      5          7           0        2.391467   -0.000117   -0.073057
      6          1           0       -2.184716   -1.284549   -0.068779
      7          1           0       -0.574767   -1.252259   -0.981288
      8          1           0       -0.573980    1.252323   -0.980864
      9          1           0       -2.183903    1.285326   -0.068334
     10          1           0        2.864133   -0.815180    0.318716
     11          1           0        2.606288    0.000413   -1.070457
     12          1           0        2.862874    0.815383    0.319327
 ---------------------------------------------------------------------
 Rotational constants (GHZ):          13.5926426           2.8979227           2.8139757
 Standard basis: Aug-CC-pVTZ (5D, 7F)
 There are   420 symmetry adapted cartesian basis functions of A   symmetry.
 There are   368 symmetry adapted basis functions of A   symmetry.
   368 basis functions,   504 primitive gaussians,   420 cartesian basis functions
    17 alpha electrons       17 beta electrons
       nuclear repulsion energy       122.4674298994 Hartrees.
 NAtoms=   12 NActive=   12 NUniq=   12 SFac= 1.00D+00 NAtFMM=   60 NAOKFM=F Big=F
 Integral buffers will be    131072 words long.
 Raffenetti 1 integral format.
 Two-electron integral symmetry is turned on.
 One-electron integrals computed using PRISM.
 NBasis=   368 RedAO= T EigKep=  9.79D-06  NBF=   368
 NBsUse=   368 1.00D-06 EigRej= -1.00D+00 NBFU=   368
 ExpMin= 2.53D-02 ExpMax= 1.14D+04 ExpMxC= 3.89D+02 IAcc=3 IRadAn=         5 AccDes= 0.00D+00
 Harris functional with IExCor=  205 and IRadAn=       5 diagonalized for initial guess.
 HarFok:  IExCor=  205 AccDes= 0.00D+00 IRadAn=         5 IDoV= 1 UseB2=F ITyADJ=14
 ICtDFT=  3500011 ScaDFX=  1.000000  1.000000  1.000000  1.000000
 FoFCou: FMM=F IPFlag=           0 FMFlag=      100000 FMFlg1=           0
         NFxFlg=           0 DoJE=T BraDBF=F KetDBF=T FulRan=T
         wScrn=  0.000000 ICntrl=       500 IOpCl=  0 I1Cent=   200000004 NGrid=           0
         NMat0=    1 NMatS0=      1 NMatT0=    0 NMatD0=    1 NMtDS0=    0 NMtDT0=    0
 Petite list used in FoFCou.
 Keep R1 ints in memory in canonical form, NReq=2342278159.
 Requested convergence on RMS density matrix=1.00D-08 within 128 cycles.
 Requested convergence on MAX density matrix=1.00D-06.
 Requested convergence on             energy=1.00D-06.
 No special actions if energy rises.
 SCF Done:  E(RHF) =  -189.311619543     A.U. after   11 cycles
            NFock= 11  Conv=0.52D-08     -V/T= 2.0025
 ExpMin= 2.53D-02 ExpMax= 1.14D+04 ExpMxC= 3.89D+02 IAcc=3 IRadAn=         5 AccDes= 0.00D+00
 HarFok:  IExCor=  205 AccDes= 0.00D+00 IRadAn=         5 IDoV=-2 UseB2=F ITyADJ=14
 ICtDFT= 12500011 ScaDFX=  1.000000  1.000000  1.000000  1.000000
 Range of M.O.s used for correlation:     5   368
 NBasis=   368 NAE=    17 NBE=    17 NFC=     4 NFV=     0
 NROrb=    364 NOA=    13 NOB=    13 NVA=   351 NVB=   351

 **** Warning!!: The largest alpha MO coefficient is  0.71294176D+02

 Disk-based method using ON**2 memory for 13 occupieds at a time.
 Estimated scratch disk usage=  1745826152 words.
 Actual    scratch disk usage=  1643589992 words.
 JobTyp=1 Pass  1:  I=   5 to  17 NPSUse= 28 ParTrn=T ParDer=T DoDerP=T.
 (rs|ai) integrals will be sorted in core.
 Spin components of T(2) and E(2):
     alpha-alpha T2 =       0.2977846850D-01 E2=     -0.9293461158D-01
     alpha-beta  T2 =       0.1821418307D+00 E2=     -0.6220811457D+00
     beta-beta   T2 =       0.2977846850D-01 E2=     -0.9293461158D-01
 ANorm=    0.1114315381D+01
 E2 =    -0.8079503688D+00 EUMP2 =    -0.19011956991210D+03
          IDoAtm=111111111111
          Differentiating once with respect to electric field.
                with respect to dipole field.
          Differentiating once with respect to nuclear coordinates.
 Keep R1 ints in memory in canonical form, NReq=2342280375.
          There are     1 degrees of freedom in the 1st order CPHF.  IDoFFX=0 NUNeed=     1.
 LinEq1:  Iter=  0 NonCon=     1 RMS=2.15D-03 Max=2.24D-02 NDo=     1
 AX will form     1 AO Fock derivatives at one time.
 LinEq1:  Iter=  1 NonCon=     1 RMS=6.18D-04 Max=6.59D-03 NDo=     1
 LinEq1:  Iter=  2 NonCon=     1 RMS=1.92D-04 Max=2.58D-03 NDo=     1
 LinEq1:  Iter=  3 NonCon=     1 RMS=4.04D-05 Max=4.56D-04 NDo=     1
 LinEq1:  Iter=  4 NonCon=     1 RMS=1.11D-05 Max=1.26D-04 NDo=     1
 LinEq1:  Iter=  5 NonCon=     1 RMS=4.07D-06 Max=1.11D-04 NDo=     1
 LinEq1:  Iter=  6 NonCon=     1 RMS=8.55D-07 Max=9.83D-06 NDo=     1
 LinEq1:  Iter=  7 NonCon=     1 RMS=2.54D-07 Max=6.51D-06 NDo=     1
 LinEq1:  Iter=  8 NonCon=     1 RMS=9.50D-08 Max=7.92D-07 NDo=     1
 LinEq1:  Iter=  9 NonCon=     1 RMS=1.55D-08 Max=2.42D-07 NDo=     1
 LinEq1:  Iter= 10 NonCon=     1 RMS=3.10D-09 Max=3.25D-08 NDo=     1
 LinEq1:  Iter= 11 NonCon=     1 RMS=5.17D-10 Max=6.86D-09 NDo=     1
 LinEq1:  Iter= 12 NonCon=     1 RMS=9.37D-11 Max=1.63D-09 NDo=     1
 LinEq1:  Iter= 13 NonCon=     0 RMS=2.00D-11 Max=2.97D-10 NDo=     1
 Linear equations converged to 1.000D-10 1.000D-09 after    13 iterations.
 End of Minotr F.D. properties file   721 does not exist.
 End of Minotr F.D. properties file   722 does not exist.
 End of Minotr F.D. properties file   788 does not exist.

 **********************************************************************

            Population analysis using the SCF density.

 **********************************************************************

 Orbital symmetries:
       Occupied  (A) (A) (A) (A) (A) (A) (A) (A) (A) (A) (A) (A)
                 (A) (A) (A) (A) (A)
       Virtual   (A) (A) (A) (A) (A) (A) (A) (A) (A) (A) (A) (A)
                 (A) (A) (A) (A) (A) (A) (A) (A) (A) (A) (A) (A)
                 (A) (A) (A) (A) (A) (A) (A) (A) (A) (A) (A) (A)
                 (A) (A) (A) (A) (A) (A) (A) (A) (A) (A) (A) (A)
                 (A) (A) (A) (A) (A) (A) (A) (A) (A) (A) (A) (A)
                 (A) (A) (A) (A) (A) (A) (A) (A) (A) (A) (A) (A)
                 (A) (A) (A) (A) (A) (A) (A) (A) (A) (A) (A) (A)
                 (A) (A) (A) (A) (A) (A) (A) (A) (A) (A) (A) (A)
                 (A) (A) (A) (A) (A) (A) (A) (A) (A) (A) (A) (A)
                 (A) (A) (A) (A) (A) (A) (A) (A) (A) (A) (A) (A)
                 (A) (A) (A) (A) (A) (A) (A) (A) (A) (A) (A) (A)
                 (A) (A) (A) (A) (A) (A) (A) (A) (A) (A) (A) (A)
                 (A) (A) (A) (A) (A) (A) (A) (A) (A) (A) (A) (A)
                 (A) (A) (A) (A) (A) (A) (A) (A) (A) (A) (A) (A)
                 (A) (A) (A) (A) (A) (A) (A) (A) (A) (A) (A) (A)
                 (A) (A) (A) (A) (A) (A) (A) (A) (A) (A) (A) (A)
                 (A) (A) (A) (A) (A) (A) (A) (A) (A) (A) (A) (A)
                 (A) (A) (A) (A) (A) (A) (A) (A) (A) (A) (A) (A)
                 (A) (A) (A) (A) (A) (A) (A) (A) (A) (A) (A) (A)
                 (A) (A) (A) (A) (A) (A) (A) (A) (A) (A) (A) (A)
                 (A) (A) (A) (A) (A) (A) (A) (A) (A) (A) (A) (A)
                 (A) (A) (A) (A) (A) (A) (A) (A) (A) (A) (A) (A)
                 (A) (A) (A) (A) (A) (A) (A) (A) (A) (A) (A) (A)
                 (A) (A) (A) (A) (A) (A) (A) (A) (A) (A) (A) (A)
                 (A) (A) (A) (A) (A) (A) (A) (A) (A) (A) (A) (A)
                 (A) (A) (A) (A) (A) (A) (A) (A) (A) (A) (A) (A)
                 (A) (A) (A) (A) (A) (A) (A) (A) (A) (A) (A) (A)
                 (A) (A) (A) (A) (A) (A) (A) (A) (A) (A) (A) (A)
                 (A) (A) (A) (A) (A) (A) (A) (A) (A) (A) (A) (A)
                 (A) (A) (A)
 The electronic state is 1-A.
 Alpha  occ. eigenvalues --  -15.56255 -15.53472 -11.24177 -11.24106  -1.22578
 Alpha  occ. eigenvalues --   -1.15869  -0.86971  -0.81805  -0.67449  -0.64355
 Alpha  occ. eigenvalues --   -0.64284  -0.61098  -0.51126  -0.47363  -0.45283
 Alpha  occ. eigenvalues --   -0.43757  -0.37353
 Alpha virt. eigenvalues --    0.02378   0.03914   0.04038   0.04396   0.05547
 Alpha virt. eigenvalues --    0.05992   0.06810   0.07027   0.10353   0.11060
 Alpha virt. eigenvalues --    0.12090   0.12622   0.13183   0.14485   0.15210
 Alpha virt. eigenvalues --    0.15579   0.15744   0.16909   0.17685   0.19252
 Alpha virt. eigenvalues --    0.19633   0.20158   0.20611   0.21796   0.24387
 Alpha virt. eigenvalues --    0.25056   0.25679   0.26067   0.27304   0.27583
 Alpha virt. eigenvalues --    0.29567   0.30790   0.31095   0.34289   0.34554
 Alpha virt. eigenvalues --    0.34868   0.35273   0.36708   0.36804   0.37426
 Alpha virt. eigenvalues --    0.38241   0.38943   0.38953   0.39107   0.39209
 Alpha virt. eigenvalues --    0.40776   0.41394   0.41801   0.43102   0.43141
 Alpha virt. eigenvalues --    0.43434   0.44951   0.45187   0.46615   0.47087
 Alpha virt. eigenvalues --    0.47476   0.48017   0.48816   0.50717   0.50974
 Alpha virt. eigenvalues --    0.51512   0.53347   0.53916   0.55434   0.55832
 Alpha virt. eigenvalues --    0.57856   0.58164   0.59438   0.61689   0.62583
 Alpha virt. eigenvalues --    0.62991   0.64295   0.64525   0.66745   0.68120
 Alpha virt. eigenvalues --    0.69022   0.71476   0.71653   0.76240   0.77987
 Alpha virt. eigenvalues --    0.80105   0.81276   0.82427   0.84352   0.84839
 Alpha virt. eigenvalues --    0.86170   0.87435   0.87648   0.89114   0.89766
 Alpha virt. eigenvalues --    0.90711   0.90926   0.92201   0.92900   0.93578
 Alpha virt. eigenvalues --    0.93919   0.94185   0.96915   0.96985   0.97406
 Alpha virt. eigenvalues --    0.98346   0.98620   0.99736   1.01450   1.03041
 Alpha virt. eigenvalues --    1.04372   1.04609   1.05937   1.06094   1.06746
 Alpha virt. eigenvalues --    1.07235   1.07933   1.08896   1.09887   1.11094
 Alpha virt. eigenvalues --    1.13811   1.14261   1.15202   1.15812   1.17021
 Alpha virt. eigenvalues --    1.18567   1.19221   1.20368   1.21852   1.23534
 Alpha virt. eigenvalues --    1.24527   1.24979   1.25545   1.26299   1.27477
 Alpha virt. eigenvalues --    1.27532   1.28755   1.29215   1.31476   1.35946
 Alpha virt. eigenvalues --    1.36131   1.39223   1.40079   1.40884   1.41697
 Alpha virt. eigenvalues --    1.43412   1.46619   1.49032   1.51258   1.52199
 Alpha virt. eigenvalues --    1.53392   1.55827   1.56140   1.58295   1.58474
 Alpha virt. eigenvalues --    1.59241   1.61168   1.63772   1.64670   1.66316
 Alpha virt. eigenvalues --    1.67138   1.69918   1.71966   1.73755   1.75486
 Alpha virt. eigenvalues --    1.75819   1.78298   1.81301   1.83331   1.83542
 Alpha virt. eigenvalues --    1.85645   1.87399   1.90186   1.90334   1.92443
 Alpha virt. eigenvalues --    1.94272   1.95730   1.95983   1.96003   1.99777
 Alpha virt. eigenvalues --    2.00249   2.02503   2.04480   2.05935   2.06731
 Alpha virt. eigenvalues --    2.08703   2.08823   2.09743   2.13738   2.14375
 Alpha virt. eigenvalues --    2.16752   2.18993   2.22646   2.23199   2.27731
 Alpha virt. eigenvalues --    2.28249   2.28360   2.31022   2.36808   2.37314
 Alpha virt. eigenvalues --    2.37356   2.38246   2.39710   2.43005   2.44483
 Alpha virt. eigenvalues --    2.45552   2.46100   2.47822   2.49313   2.52779
 Alpha virt. eigenvalues --    2.54511   2.55455   2.61121   2.65603   2.68480
 Alpha virt. eigenvalues --    2.69920   2.69934   2.75406   2.81619   2.97328
 Alpha virt. eigenvalues --    3.16964   3.21277   3.32322   3.34709   3.43516
 Alpha virt. eigenvalues --    3.44319   3.52726   3.53093   3.54642   3.57010
 Alpha virt. eigenvalues --    3.62497   3.62986   3.63196   3.65208   3.65742
 Alpha virt. eigenvalues --    3.69625   3.74875   3.75863   3.80042   3.80195
 Alpha virt. eigenvalues --    3.85323   3.89825   3.91374   3.93443   3.94458
 Alpha virt. eigenvalues --    3.98882   4.01163   4.02026   4.02156   4.05603
 Alpha virt. eigenvalues --    4.07534   4.07771   4.09947   4.13499   4.14779
 Alpha virt. eigenvalues --    4.18389   4.19926   4.20875   4.21237   4.22596
 Alpha virt. eigenvalues --    4.24047   4.25824   4.27419   4.29973   4.30531
 Alpha virt. eigenvalues --    4.32851   4.35858   4.38993   4.42517   4.47729
 Alpha virt. eigenvalues --    4.48339   4.50073   4.50437   4.53654   4.54705
 Alpha virt. eigenvalues --    4.57844   4.59683   4.60502   4.61266   4.70453
 Alpha virt. eigenvalues --    4.71094   4.71671   4.75730   4.76001   4.76417
 Alpha virt. eigenvalues --    4.77287   4.81046   4.84204   4.84616   4.87498
 Alpha virt. eigenvalues --    4.88318   4.92994   4.93670   4.95495   4.96274
 Alpha virt. eigenvalues --    4.97793   5.03060   5.03511   5.07148   5.07317
 Alpha virt. eigenvalues --    5.09755   5.13580   5.15386   5.19120   5.20321
 Alpha virt. eigenvalues --    5.22588   5.25909   5.30783   5.32396   5.34117
 Alpha virt. eigenvalues --    5.38943   5.43153   5.46283   5.47927   5.53866
 Alpha virt. eigenvalues --    5.56772   5.67338   5.68505   5.70088   5.70994
 Alpha virt. eigenvalues --    5.71392   5.73651   5.76757   5.83354   5.89064
 Alpha virt. eigenvalues --    5.89985   5.90829   6.02523   6.06313   6.10576
 Alpha virt. eigenvalues --    6.15049   6.17514   6.24381   6.30180   6.30262
 Alpha virt. eigenvalues --    6.35470   6.36080   6.36929   6.38152   6.59235
 Alpha virt. eigenvalues --    6.62658   6.63066   6.68879   6.69393   6.78707
 Alpha virt. eigenvalues --    6.80110   6.92504   6.92593   6.96405   7.40313
 Alpha virt. eigenvalues --    7.72830   7.78773  16.30279  16.90665  17.29118
 Alpha virt. eigenvalues --   17.56631
          Condensed to atoms (all electrons):
               1          2          3          4          5          6
     1  N    7.336031   0.174647   0.078575   0.078544   0.000283  -0.047670
     2  H    0.174647   0.553782  -0.007972  -0.007970  -0.042905   0.003255
     3  C    0.078575  -0.007972   5.488285   0.382080   0.000662   0.365349
     4  C    0.078544  -0.007970   0.382080   5.488358   0.000575  -0.027148
     5  N    0.000283  -0.042905   0.000662   0.000575   6.363815  -0.000603
     6  H   -0.047670   0.003255   0.365349  -0.027148  -0.000603   0.277935
     7  H   -0.005801   0.002047   0.372287  -0.009043   0.004178   0.014285
     8  H   -0.005807   0.002040  -0.009075   0.372276   0.004152   0.001748
     9  H   -0.047722   0.003260  -0.027102   0.365400  -0.000600   0.002688
    10  H   -0.000895  -0.002400  -0.000003   0.000972   0.389332   0.000040
    11  H    0.000499  -0.000163   0.000253   0.000254   0.362522   0.000014
    12  H   -0.000900  -0.002385   0.000973  -0.000001   0.389320  -0.000057
               7          8          9         10         11         12
     1  N   -0.005801  -0.005807  -0.047722  -0.000895   0.000499  -0.000900
     2  H    0.002047   0.002040   0.003260  -0.002400  -0.000163  -0.002385
     3  C    0.372287  -0.009075  -0.027102  -0.000003   0.000253   0.000973
     4  C   -0.009043   0.372276   0.365400   0.000972   0.000254  -0.000001
     5  N    0.004178   0.004152  -0.000600   0.389332   0.362522   0.389320
     6  H    0.014285   0.001748   0.002688   0.000040   0.000014  -0.000057
     7  H    0.267982   0.001907   0.001750  -0.000357   0.000344   0.000381
     8  H    0.001907   0.267993   0.014303   0.000380   0.000341  -0.000357
     9  H    0.001750   0.014303   0.277919  -0.000057   0.000014   0.000040
    10  H   -0.000357   0.000380  -0.000057   0.473054  -0.001672  -0.009151
    11  H    0.000344   0.000341   0.000014  -0.001672   0.466829  -0.001629
    12  H    0.000381  -0.000357   0.000040  -0.009151  -0.001629   0.472969
 Mulliken charges:
               1
     1  N   -0.559784
     2  H    0.324764
     3  C   -0.644311
     4  C   -0.644296
     5  N   -0.470730
     6  H    0.410165
     7  H    0.350038
     8  H    0.350099
     9  H    0.410106
    10  H    0.150756
    11  H    0.172395
    12  H    0.150798
 Sum of Mulliken charges =  -0.00000
 Mulliken charges with hydrogens summed into heavy atoms:
               1
     1  N   -0.235021
     3  C    0.115892
     4  C    0.115910
     5  N    0.003218
 Electronic spatial extent (au):  <R**2>=            483.9128
 Charge=             -0.0000 electrons
 Dipole moment (field-independent basis, Debye):
    X=              2.9244    Y=              0.0013    Z=             -2.0309  Tot=              3.5604
 Quadrupole moment (field-independent basis, Debye-Ang):
   XX=            -18.7053   YY=            -25.1537   ZZ=            -29.4547
   XY=              0.0004   XZ=              1.1137   YZ=              0.0012
 Traceless Quadrupole moment (field-independent basis, Debye-Ang):
   XX=              5.7326   YY=             -0.7158   ZZ=             -5.0168
   XY=              0.0004   XZ=              1.1137   YZ=              0.0012
 Octapole moment (field-independent basis, Debye-Ang**2):
  XXX=             26.1384  YYY=              0.0019  ZZZ=             -6.1590  XYY=              5.2909
  XXY=             -0.0047  XXZ=              0.8928  XZZ=             11.0956  YZZ=              0.0013
  YYZ=             -0.2495  XYZ=             -0.0014
 Hexadecapole moment (field-independent basis, Debye-Ang**3):
 XXXX=           -397.3388 YYYY=            -94.8679 ZZZZ=            -82.6410 XXXY=             -0.0296
 XXXZ=              0.4841 YYYX=             -0.0027 YYYZ=              0.0026 ZZZX=             -1.3308
 ZZZY=              0.0019 XXYY=            -76.1031 XXZZ=            -85.9029 YYZZ=            -28.0246
 XXYZ=              0.0032 YYXZ=              1.8948 ZZXY=              0.0029
 N-N= 1.224674298994D+02 E-N=-6.874477422119D+02  KE= 1.888356690354D+02
 Calling FoFJK, ICntrl=  10002127 FMM=F ISym2X=0 I1Cent= 0 IOpClX= 0 NMat=1 NMatS=1 NMatT=0.
 ***** Axes restored to original set *****
 -------------------------------------------------------------------
 Center     Atomic                   Forces (Hartrees/Bohr)
 Number     Number              X              Y              Z
 -------------------------------------------------------------------
      1        7          -0.000966025    0.000000998    0.009924740
      2        1           0.005748975    0.000001047   -0.000394854
      3        6          -0.000587992    0.003069926   -0.001378515
      4        6          -0.000587341   -0.003071085   -0.001376662
      5        7          -0.006972303    0.000006588    0.001156780
      6        1          -0.006676597    0.004130693    0.001599408
      7        1           0.004832605    0.003864785   -0.004933860
      8        1           0.004835166   -0.003862846   -0.004932607
      9        1          -0.006673505   -0.004134368    0.001601181
     10        1           0.002842680    0.004462095    0.002173389
     11        1           0.001370813   -0.000002159   -0.005617890
     12        1           0.002833524   -0.004465672    0.002178889
 -------------------------------------------------------------------
 Cartesian Forces:  Max     0.009924740 RMS     0.003938632

 GradGradGradGradGradGradGradGradGradGradGradGradGradGradGradGradGradGrad
 Berny optimization.
 FormGI is forming the generalized inverse of G from B-inverse, IUseBI=4.
 Internal  Forces:  Max     0.008009397 RMS     0.003378931
 Search for a local minimum.
 Step number   1 out of a maximum of   56
 All quantities printed in internal units (Hartrees-Bohrs-Radians)
 Mixed Optimization -- RFO/linear search
 Second derivative matrix not updated -- first step.
 ITU=  0
     Eigenvalues ---    0.00230   0.00230   0.00230   0.02155   0.03172
     Eigenvalues ---    0.03317   0.03652   0.03653   0.04958   0.06060
     Eigenvalues ---    0.07391   0.12162   0.12310   0.15597   0.16000
     Eigenvalues ---    0.16000   0.16000   0.16000   0.16000   0.23965
     Eigenvalues ---    0.30403   0.33629   0.34400   0.34400   0.34604
     Eigenvalues ---    0.34605   0.43213   0.44273   0.44273   0.44295
 RFO step:  Lambda=-1.47643568D-03 EMin= 2.30000000D-03
 Linear search not attempted -- first point.
 Iteration  1 RMS(Cart)=  0.04788002 RMS(Int)=  0.00089888
 Iteration  2 RMS(Cart)=  0.00188798 RMS(Int)=  0.00021926
 Iteration  3 RMS(Cart)=  0.00000078 RMS(Int)=  0.00021926
 Variable       Old X    -DE/DX   Delta X   Delta X   Delta X     New X
                                 (Linear)    (Quad)   (Total)
    R1        1.94104  -0.00583   0.00000  -0.01346  -0.01347   1.92757
    R2        2.80902  -0.00631   0.00000  -0.01802  -0.01773   2.79130
    R3        2.80902  -0.00631   0.00000  -0.01802  -0.01773   2.79130
    R4        4.14703  -0.00011   0.00000  -0.00328  -0.00328   4.14375
    R5        2.82014  -0.00763   0.00000  -0.02399  -0.02457   2.79556
    R6        2.06322  -0.00801   0.00000  -0.02305  -0.02305   2.04017
    R7        2.06661  -0.00791   0.00000  -0.02290  -0.02290   2.04371
    R8        2.06661  -0.00791   0.00000  -0.02290  -0.02290   2.04371
    R9        2.06322  -0.00801   0.00000  -0.02305  -0.02305   2.04017
   R10        1.92829  -0.00572   0.00000  -0.01287  -0.01287   1.91542
   R11        1.92803  -0.00578   0.00000  -0.01301  -0.01301   1.91503
   R12        1.92829  -0.00572   0.00000  -0.01287  -0.01287   1.91542
    A1        1.86211   0.00001   0.00000  -0.00073  -0.00084   1.86127
    A2        1.86210   0.00001   0.00000  -0.00075  -0.00086   1.86124
    A3        2.00195  -0.00011   0.00000  -0.00015  -0.00023   2.00172
    A4        2.05393  -0.00015   0.00000  -0.00063  -0.00065   2.05328
    A5        2.08685  -0.00009   0.00000  -0.00112  -0.00107   2.08578
    A6        2.05195  -0.00021   0.00000  -0.00131  -0.00140   2.05054
    A7        2.02030   0.00024   0.00000   0.00161   0.00162   2.02193
    A8        2.05393  -0.00015   0.00000  -0.00063  -0.00065   2.05328
    A9        2.00195  -0.00011   0.00000  -0.00015  -0.00022   2.00173
   A10        2.05194  -0.00021   0.00000  -0.00130  -0.00140   2.05054
   A11        2.08686  -0.00009   0.00000  -0.00112  -0.00107   2.08579
   A12        2.02030   0.00024   0.00000   0.00161   0.00162   2.02193
   A13        1.87141  -0.00017   0.00000  -0.00097  -0.00103   1.87038
   A14        2.14678  -0.00016   0.00000  -0.00112  -0.00103   2.14575
   A15        1.87030  -0.00016   0.00000  -0.00093  -0.00096   1.86934
   A16        1.85273   0.00013   0.00000   0.00069   0.00074   1.85347
   A17        1.85119   0.00031   0.00000   0.00223   0.00202   1.85321
   A18        1.85275   0.00014   0.00000   0.00068   0.00079   1.85354
   A19        2.95171   0.00035   0.00000   0.07013   0.06998   3.02169
   A20        3.01009   0.00023   0.00000   0.04596   0.04587   3.05596
    D1       -1.59782  -0.00026   0.00000  -0.00400  -0.00340  -1.60122
    D2        0.53343  -0.00026   0.00000   0.00341   0.00392   0.53735
    D3        2.66352  -0.00027   0.00000   0.01049   0.01085   2.67437
    D4       -2.66413   0.00026   0.00000  -0.01055  -0.01093  -2.67507
    D5       -0.53288   0.00027   0.00000  -0.00314  -0.00361  -0.53649
    D6        1.59720   0.00026   0.00000   0.00394   0.00332   1.60052
    D7        2.59731   0.00009   0.00000   0.00192   0.00193   2.59924
    D8        0.12956   0.00001   0.00000   0.00013   0.00024   0.12979
    D9       -0.12954  -0.00001   0.00000  -0.00009  -0.00020  -0.12974
   D10       -2.59730  -0.00009   0.00000  -0.00188  -0.00189  -2.59919
   D11       -2.60559   0.00004   0.00000   0.00112   0.00118  -2.60441
   D12        0.00000  -0.00000   0.00000  -0.00001  -0.00001  -0.00000
   D13        0.00001  -0.00000   0.00000  -0.00001  -0.00001  -0.00000
   D14        2.60560  -0.00004   0.00000  -0.00114  -0.00120   2.60440
         Item               Value     Threshold  Converged?
 Maximum Force            0.008009     0.000450     NO 
 RMS     Force            0.003379     0.000300     NO 
 Maximum Displacement     0.141470     0.001800     NO 
 RMS     Displacement     0.046777     0.001200     NO 
 Predicted change in Energy=-7.453864D-04
 GradGradGradGradGradGradGradGradGradGradGradGradGradGradGradGradGradGrad

                          Input orientation:                          
 ---------------------------------------------------------------------
 Center     Atomic      Atomic             Coordinates (Angstroms)
 Number     Number       Type             X           Y           Z
 ---------------------------------------------------------------------
      1          7           0        0.655479   -0.000569   -0.813780
      2          1           0       -0.348405   -0.001374   -0.633034
      3          6           0        1.286226   -0.739642    0.298751
      4          6           0        1.284981    0.739706    0.298658
      5          7           0       -2.427091    0.000169    0.065060
      6          1           0        2.188023   -1.270636    0.033475
      7          1           0        0.634549   -1.239312    1.002495
      8          1           0        0.632460    1.238365    1.002341
      9          1           0        2.185882    1.272186    0.033319
     10          1           0       -2.880007   -0.810029   -0.342157
     11          1           0       -2.678743    0.001079    1.046705
     12          1           0       -2.878106    0.810883   -0.343240
 ---------------------------------------------------------------------
                    Distance matrix (angstroms):
                    1          2          3          4          5
     1  N    0.000000
     2  H    1.020026   0.000000
     3  C    1.477090   2.021209   0.000000
     4  C    1.477091   2.021188   1.479349   0.000000
     5  N    3.205402   2.192778   3.793502   3.792224   0.000000
     6  H    2.163238   2.913542   1.079612   2.219748   4.786984
     7  H    2.198585   2.274565   1.081484   2.198854   3.433473
     8  H    2.198586   2.274533   2.198854   1.081486   3.431105
     9  H    2.163242   2.913519   2.219750   1.079612   4.785244
    10  H    3.657501   2.673488   4.215829   4.489927   1.013597
    11  H    3.818173   2.872631   4.102327   4.100762   1.013389
    12  H    3.655966   2.672663   4.489760   4.212884   1.013598
                    6          7          8          9         10
     6  H    0.000000
     7  H    1.831191   0.000000
     8  H    3.107018   2.477678   0.000000
     9  H    2.542823   3.107018   1.831193   0.000000
    10  H    5.102762   3.787410   4.282641   5.489976   0.000000
    11  H    5.131209   3.538139   3.535097   5.129059   1.620908
    12  H    5.490018   4.284045   3.783834   5.098880   1.620913
                   11         12
    11  H    0.000000
    12  H    1.620949   0.000000
 Stoichiometry    C2H8N2
 Framework group  C1[X(C2H8N2)]
 Deg. of freedom    30
 Full point group                 C1      NOp   1
 Largest Abelian subgroup         C1      NOp   1
 Largest concise Abelian subgroup C1      NOp   1
                         Standard orientation:                         
 ---------------------------------------------------------------------
 Center     Atomic      Atomic             Coordinates (Angstroms)
 Number     Number       Type             X           Y           Z
 ---------------------------------------------------------------------
      1          7           0       -0.653648   -0.000872    0.822247
      2          1           0        0.349044   -0.001765    0.635001
      3          6           0       -1.291733   -0.739192   -0.286595
      4          6           0       -1.290200    0.740156   -0.285669
      5          7           0        2.423164   -0.000222   -0.076544
      6          1           0       -2.191895   -1.270165   -0.015783
      7          1           0       -0.644725   -1.238585   -0.994829
      8          1           0       -0.642154    1.239091   -0.993281
      9          1           0       -2.189260    1.272656   -0.014196
     10          1           0        2.878551   -0.810737    0.327269
     11          1           0        2.668451    0.001200   -1.059799
     12          1           0        2.876972    0.810174    0.329285
 ---------------------------------------------------------------------
 Rotational constants (GHZ):          14.0327602           2.8431339           2.7563167
 Standard basis: Aug-CC-pVTZ (5D, 7F)
 There are   420 symmetry adapted cartesian basis functions of A   symmetry.
 There are   368 symmetry adapted basis functions of A   symmetry.
   368 basis functions,   504 primitive gaussians,   420 cartesian basis functions
    17 alpha electrons       17 beta electrons
       nuclear repulsion energy       122.8363247461 Hartrees.
 NAtoms=   12 NActive=   12 NUniq=   12 SFac= 1.00D+00 NAtFMM=   60 NAOKFM=F Big=F
 Integral buffers will be    131072 words long.
 Raffenetti 1 integral format.
 Two-electron integral symmetry is turned on.
 One-electron integrals computed using PRISM.
 NBasis=   368 RedAO= T EigKep=  9.27D-06  NBF=   368
 NBsUse=   368 1.00D-06 EigRej= -1.00D+00 NBFU=   368
 Initial guess from the checkpoint file:  "/gscratch/scrubbed/gds001/Gau-13055.chk"
 B after Tr=    -0.000000    0.000000   -0.000000
         Rot=    0.999996   -0.000304   -0.002856    0.000079 Ang=  -0.33 deg.
 ExpMin= 2.53D-02 ExpMax= 1.14D+04 ExpMxC= 3.89D+02 IAcc=3 IRadAn=         5 AccDes= 0.00D+00
 Harris functional with IExCor=  205 and IRadAn=       5 diagonalized for initial guess.
 HarFok:  IExCor=  205 AccDes= 0.00D+00 IRadAn=         5 IDoV= 1 UseB2=F ITyADJ=14
 ICtDFT=  3500011 ScaDFX=  1.000000  1.000000  1.000000  1.000000
 FoFCou: FMM=F IPFlag=           0 FMFlag=      100000 FMFlg1=           0
         NFxFlg=           0 DoJE=T BraDBF=F KetDBF=T FulRan=T
         wScrn=  0.000000 ICntrl=       500 IOpCl=  0 I1Cent=   200000004 NGrid=           0
         NMat0=    1 NMatS0=      1 NMatT0=    0 NMatD0=    1 NMtDS0=    0 NMtDT0=    0
 Petite list used in FoFCou.
 Keep R1 ints in memory in canonical form, NReq=2342278159.
 Requested convergence on RMS density matrix=1.00D-08 within 128 cycles.
 Requested convergence on MAX density matrix=1.00D-06.
 Requested convergence on             energy=1.00D-06.
 No special actions if energy rises.
 SCF Done:  E(RHF) =  -189.314225841     A.U. after    9 cycles
            NFock=  9  Conv=0.83D-08     -V/T= 2.0016
 ExpMin= 2.53D-02 ExpMax= 1.14D+04 ExpMxC= 3.89D+02 IAcc=3 IRadAn=         5 AccDes= 0.00D+00
 HarFok:  IExCor=  205 AccDes= 0.00D+00 IRadAn=         5 IDoV=-2 UseB2=F ITyADJ=14
 ICtDFT= 12500011 ScaDFX=  1.000000  1.000000  1.000000  1.000000
 Range of M.O.s used for correlation:     5   368
 NBasis=   368 NAE=    17 NBE=    17 NFC=     4 NFV=     0
 NROrb=    364 NOA=    13 NOB=    13 NVA=   351 NVB=   351

 **** Warning!!: The largest alpha MO coefficient is  0.78239346D+02

 Disk-based method using ON**2 memory for 13 occupieds at a time.
 Estimated scratch disk usage=  1744162248 words.
 Actual    scratch disk usage=  1641926088 words.
 JobTyp=1 Pass  1:  I=   5 to  17 NPSUse= 28 ParTrn=T ParDer=T DoDerP=T.
 (rs|ai) integrals will be sorted in core.
 Spin components of T(2) and E(2):
     alpha-alpha T2 =       0.2948478203D-01 E2=     -0.9280045571D-01
     alpha-beta  T2 =       0.1799478800D+00 E2=     -0.6204969235D+00
     beta-beta   T2 =       0.2948478203D-01 E2=     -0.9280045571D-01
 ANorm=    0.1113066684D+01
 E2 =    -0.8060978349D+00 EUMP2 =    -0.19012032367592D+03
          IDoAtm=111111111111
          Differentiating once with respect to electric field.
                with respect to dipole field.
          Differentiating once with respect to nuclear coordinates.
 Keep R1 ints in memory in canonical form, NReq=2342280375.
          There are     1 degrees of freedom in the 1st order CPHF.  IDoFFX=0 NUNeed=     1.
 LinEq1:  Iter=  0 NonCon=     1 RMS=2.12D-03 Max=2.29D-02 NDo=     1
 AX will form     1 AO Fock derivatives at one time.
 LinEq1:  Iter=  1 NonCon=     1 RMS=6.01D-04 Max=7.20D-03 NDo=     1
 LinEq1:  Iter=  2 NonCon=     1 RMS=1.87D-04 Max=2.49D-03 NDo=     1
 LinEq1:  Iter=  3 NonCon=     1 RMS=3.89D-05 Max=4.35D-04 NDo=     1
 LinEq1:  Iter=  4 NonCon=     1 RMS=1.05D-05 Max=1.32D-04 NDo=     1
 LinEq1:  Iter=  5 NonCon=     1 RMS=3.81D-06 Max=1.02D-04 NDo=     1
 LinEq1:  Iter=  6 NonCon=     1 RMS=7.93D-07 Max=1.01D-05 NDo=     1
 LinEq1:  Iter=  7 NonCon=     1 RMS=2.17D-07 Max=5.47D-06 NDo=     1
 LinEq1:  Iter=  8 NonCon=     1 RMS=8.69D-08 Max=8.77D-07 NDo=     1
 LinEq1:  Iter=  9 NonCon=     1 RMS=1.46D-08 Max=2.06D-07 NDo=     1
 LinEq1:  Iter= 10 NonCon=     1 RMS=2.91D-09 Max=2.90D-08 NDo=     1
 LinEq1:  Iter= 11 NonCon=     1 RMS=4.68D-10 Max=5.98D-09 NDo=     1
 LinEq1:  Iter= 12 NonCon=     1 RMS=7.70D-11 Max=1.14D-09 NDo=     1
 LinEq1:  Iter= 13 NonCon=     0 RMS=1.36D-11 Max=2.39D-10 NDo=     1
 Linear equations converged to 1.000D-10 1.000D-09 after    13 iterations.
 End of Minotr F.D. properties file   721 does not exist.
 End of Minotr F.D. properties file   722 does not exist.
 End of Minotr F.D. properties file   788 does not exist.
 Calling FoFJK, ICntrl=  10002127 FMM=F ISym2X=0 I1Cent= 0 IOpClX= 0 NMat=1 NMatS=1 NMatT=0.
 ***** Axes restored to original set *****
 -------------------------------------------------------------------
 Center     Atomic                   Forces (Hartrees/Bohr)
 Number     Number              X              Y              Z
 -------------------------------------------------------------------
      1        7           0.000070851   -0.000003191    0.003669159
      2        1          -0.000115411    0.000007796   -0.001262671
      3        6          -0.000268644    0.000954459   -0.001372784
      4        6          -0.000269852   -0.000956248   -0.001372882
      5        7          -0.001469680   -0.000004073    0.000346214
      6        1           0.000232478   -0.000202233    0.000074421
      7        1          -0.000048485   -0.000240314    0.000076382
      8        1          -0.000049674    0.000239729    0.000074935
      9        1           0.000232075    0.000202217    0.000073434
     10        1           0.000594564   -0.000088476   -0.000189551
     11        1           0.000497553    0.000003436    0.000068109
     12        1           0.000594226    0.000086898   -0.000184766
 -------------------------------------------------------------------
 Cartesian Forces:  Max     0.003669159 RMS     0.000824477

 GradGradGradGradGradGradGradGradGradGradGradGradGradGradGradGradGradGrad
 Berny optimization.
 Using GEDIIS/GDIIS optimizer.
 FormGI is forming the generalized inverse of G from B-inverse, IUseBI=4.
 Internal  Forces:  Max     0.001101170 RMS     0.000408747
 Search for a local minimum.
 Step number   2 out of a maximum of   56
 All quantities printed in internal units (Hartrees-Bohrs-Radians)
 Mixed Optimization -- En-DIIS/RFO-DIIS
 Update second derivatives using D2CorX and points    1    2
 DE= -7.54D-04 DEPred=-7.45D-04 R= 1.01D+00
 TightC=F SS=  1.41D+00  RLast= 1.07D-01 DXNew= 5.0454D-01 3.1972D-01
 Trust test= 1.01D+00 RLast= 1.07D-01 DXMaxT set to 3.20D-01
 ITU=  1  0
 Use linear search instead of GDIIS.
     Eigenvalues ---    0.00230   0.00230   0.00237   0.02153   0.03169
     Eigenvalues ---    0.03313   0.03660   0.03661   0.04964   0.05962
     Eigenvalues ---    0.07474   0.12154   0.12311   0.15254   0.15856
     Eigenvalues ---    0.16000   0.16000   0.16000   0.16000   0.24214
     Eigenvalues ---    0.30357   0.31500   0.34400   0.34485   0.34605
     Eigenvalues ---    0.36170   0.43029   0.44245   0.44273   0.44330
 RFO step:  Lambda=-5.59153495D-05 EMin= 2.29998303D-03
 Quartic linear search produced a step of  0.00969.
 Iteration  1 RMS(Cart)=  0.03424560 RMS(Int)=  0.00043350
 Iteration  2 RMS(Cart)=  0.00087405 RMS(Int)=  0.00008647
 Iteration  3 RMS(Cart)=  0.00000008 RMS(Int)=  0.00008647
 Variable       Old X    -DE/DX   Delta X   Delta X   Delta X     New X
                                 (Linear)    (Quad)   (Total)
    R1        1.92757  -0.00032  -0.00013  -0.00117  -0.00131   1.92626
    R2        2.79130  -0.00110  -0.00017  -0.00447  -0.00453   2.78677
    R3        2.79130  -0.00110  -0.00017  -0.00449  -0.00454   2.78676
    R4        4.14375  -0.00019  -0.00003  -0.00622  -0.00625   4.13750
    R5        2.79556  -0.00023  -0.00024  -0.00021  -0.00068   2.79488
    R6        2.04017   0.00028  -0.00022   0.00007  -0.00016   2.04002
    R7        2.04371   0.00019  -0.00022  -0.00017  -0.00039   2.04331
    R8        2.04371   0.00019  -0.00022  -0.00018  -0.00040   2.04332
    R9        2.04017   0.00028  -0.00022   0.00007  -0.00016   2.04002
   R10        1.91542  -0.00012  -0.00012  -0.00068  -0.00081   1.91461
   R11        1.91503  -0.00006  -0.00013  -0.00055  -0.00067   1.91435
   R12        1.91542  -0.00012  -0.00012  -0.00069  -0.00081   1.91461
    A1        1.86127   0.00093  -0.00001   0.00770   0.00764   1.86891
    A2        1.86124   0.00092  -0.00001   0.00767   0.00762   1.86886
    A3        2.00172   0.00029  -0.00000   0.00141   0.00138   2.00311
    A4        2.05328  -0.00012  -0.00001  -0.00039  -0.00040   2.05288
    A5        2.08578  -0.00026  -0.00001  -0.00056  -0.00056   2.08522
    A6        2.05054   0.00043  -0.00001   0.00158   0.00154   2.05208
    A7        2.02193  -0.00015   0.00002  -0.00094  -0.00092   2.02101
    A8        2.05328  -0.00012  -0.00001  -0.00040  -0.00042   2.05286
    A9        2.00173   0.00029  -0.00000   0.00140   0.00137   2.00310
   A10        2.05054   0.00043  -0.00001   0.00158   0.00154   2.05208
   A11        2.08579  -0.00026  -0.00001  -0.00056  -0.00056   2.08523
   A12        2.02193  -0.00015   0.00002  -0.00093  -0.00091   2.02101
   A13        1.87038  -0.00058  -0.00001  -0.00368  -0.00372   1.86666
   A14        2.14575  -0.00033  -0.00001  -0.00217  -0.00216   2.14359
   A15        1.86934  -0.00058  -0.00001  -0.00370  -0.00370   1.86564
   A16        1.85347   0.00057   0.00001   0.00359   0.00357   1.85704
   A17        1.85321   0.00052   0.00002   0.00345   0.00342   1.85663
   A18        1.85354   0.00056   0.00001   0.00350   0.00356   1.85710
   A19        3.02169  -0.00023   0.00068  -0.05635  -0.05573   2.96596
   A20        3.05596  -0.00015   0.00044  -0.03323  -0.03281   3.02315
    D1       -1.60122   0.00031  -0.00003   0.00337   0.00354  -1.59767
    D2        0.53735   0.00028   0.00004  -0.00351  -0.00325   0.53410
    D3        2.67437   0.00026   0.00011  -0.00848  -0.00822   2.66615
    D4       -2.67507  -0.00026  -0.00011   0.00905   0.00876  -2.66630
    D5       -0.53649  -0.00028  -0.00003   0.00217   0.00196  -0.53453
    D6        1.60052  -0.00030   0.00003  -0.00279  -0.00300   1.59753
    D7        2.59924  -0.00018   0.00002  -0.00373  -0.00371   2.59553
    D8        0.12979  -0.00016   0.00000  -0.00350  -0.00346   0.12633
    D9       -0.12974   0.00016  -0.00000   0.00352   0.00349  -0.12625
   D10       -2.59919   0.00018  -0.00002   0.00377   0.00376  -2.59543
   D11       -2.60441   0.00000   0.00001   0.00011   0.00014  -2.60427
   D12       -0.00000  -0.00000  -0.00000   0.00001   0.00001   0.00000
   D13       -0.00000  -0.00000  -0.00000  -0.00001  -0.00001  -0.00002
   D14        2.60440  -0.00000  -0.00001  -0.00011  -0.00015   2.60426
         Item               Value     Threshold  Converged?
 Maximum Force            0.001101     0.000450     NO 
 RMS     Force            0.000409     0.000300     NO 
 Maximum Displacement     0.111804     0.001800     NO 
 RMS     Displacement     0.034782     0.001200     NO 
 Predicted change in Energy=-2.843295D-05
 GradGradGradGradGradGradGradGradGradGradGradGradGradGradGradGradGradGrad

                          Input orientation:                          
 ---------------------------------------------------------------------
 Center     Atomic      Atomic             Coordinates (Angstroms)
 Number     Number       Type             X           Y           Z
 ---------------------------------------------------------------------
      1          7           0        0.666297    0.000617   -0.828266
      2          1           0       -0.342775    0.001856   -0.683992
      3          6           0        1.264079   -0.739109    0.298761
      4          6           0        1.265733    0.739878    0.298178
      5          7           0       -2.397877   -0.000780    0.071204
      6          1           0        2.172275   -1.271387    0.059500
      7          1           0        0.592328   -1.238631    0.983148
      8          1           0        0.595091    1.241443    0.982159
      9          1           0        2.175115    1.269937    0.058495
     10          1           0       -2.857335   -0.811977   -0.325495
     11          1           0       -2.619579   -0.001350    1.059680
     12          1           0       -2.858102    0.810329   -0.324782
 ---------------------------------------------------------------------
                    Distance matrix (angstroms):
                    1          2          3          4          5
     1  N    0.000000
     2  H    1.019335   0.000000
     3  C    1.474696   2.024058   0.000000
     4  C    1.474689   2.024014   1.478989   0.000000
     5  N    3.193464   2.189468   3.742570   3.744613   0.000000
     6  H    2.161964   2.915374   1.079530   2.219003   4.743508
     7  H    2.196002   2.278724   1.081276   2.199354   3.362327
     8  H    2.195987   2.278647   2.199356   1.081276   3.366127
     9  H    2.161955   2.915319   2.219004   1.079530   4.746276
    10  H    3.650899   2.667180   4.169059   4.449371   1.013169
    11  H    3.789634   2.867793   4.025678   4.028021   1.013033
    12  H    3.651098   2.666370   4.447689   4.171217   1.013168
                    6          7          8          9         10
     6  H    0.000000
     7  H    1.830418   0.000000
     8  H    3.106947   2.480076   0.000000
     9  H    2.541325   3.106945   1.830421   0.000000
    10  H    5.065199   3.714129   4.224421   5.459611   0.000000
    11  H    5.057194   3.442829   3.447411   5.060398   1.622452
    12  H    5.457646   4.220709   3.717323   5.068669   1.622307
                   11         12
    11  H    0.000000
    12  H    1.622482   0.000000
 Stoichiometry    C2H8N2
 Framework group  C1[X(C2H8N2)]
 Deg. of freedom    30
 Full point group                 C1      NOp   1
 Largest Abelian subgroup         C1      NOp   1
 Largest concise Abelian subgroup C1      NOp   1
                         Standard orientation:                         
 ---------------------------------------------------------------------
 Center     Atomic      Atomic             Coordinates (Angstroms)
 Number     Number       Type             X           Y           Z
 ---------------------------------------------------------------------
      1          7           0       -0.666756    0.001397    0.832582
      2          1           0        0.341958    0.002933    0.685823
      3          6           0       -1.266932   -0.740295   -0.291877
      4          6           0       -1.269338    0.738691   -0.293473
      5          7           0        2.395196    0.000221   -0.074424
      6          1           0       -2.174265   -1.272677   -0.049597
      7          1           0       -0.596613   -1.240487   -0.977178
      8          1           0       -0.600636    1.239584   -0.979842
      9          1           0       -2.178397    1.268643   -0.052335
     10          1           0        2.856041   -0.810157    0.322339
     11          1           0        2.614466   -0.001696   -1.063440
     12          1           0        2.855981    0.812147    0.319230
 ---------------------------------------------------------------------
 Rotational constants (GHZ):          13.9047256           2.9001676           2.8151396
 Standard basis: Aug-CC-pVTZ (5D, 7F)
 There are   420 symmetry adapted cartesian basis functions of A   symmetry.
 There are   368 symmetry adapted basis functions of A   symmetry.
   368 basis functions,   504 primitive gaussians,   420 cartesian basis functions
    17 alpha electrons       17 beta electrons
       nuclear repulsion energy       123.2328244510 Hartrees.
 NAtoms=   12 NActive=   12 NUniq=   12 SFac= 1.00D+00 NAtFMM=   60 NAOKFM=F Big=F
 Integral buffers will be    131072 words long.
 Raffenetti 1 integral format.
 Two-electron integral symmetry is turned on.
 One-electron integrals computed using PRISM.
 NBasis=   368 RedAO= T EigKep=  9.02D-06  NBF=   368
 NBsUse=   368 1.00D-06 EigRej= -1.00D+00 NBFU=   368
 Initial guess from the checkpoint file:  "/gscratch/scrubbed/gds001/Gau-13055.chk"
 B after Tr=    -0.000000    0.000000    0.000000
         Rot=    0.999998    0.001094    0.001792   -0.000297 Ang=   0.24 deg.
 ExpMin= 2.53D-02 ExpMax= 1.14D+04 ExpMxC= 3.89D+02 IAcc=3 IRadAn=         5 AccDes= 0.00D+00
 Harris functional with IExCor=  205 and IRadAn=       5 diagonalized for initial guess.
 HarFok:  IExCor=  205 AccDes= 0.00D+00 IRadAn=         5 IDoV= 1 UseB2=F ITyADJ=14
 ICtDFT=  3500011 ScaDFX=  1.000000  1.000000  1.000000  1.000000
 FoFCou: FMM=F IPFlag=           0 FMFlag=      100000 FMFlg1=           0
         NFxFlg=           0 DoJE=T BraDBF=F KetDBF=T FulRan=T
         wScrn=  0.000000 ICntrl=       500 IOpCl=  0 I1Cent=   200000004 NGrid=           0
         NMat0=    1 NMatS0=      1 NMatT0=    0 NMatD0=    1 NMtDS0=    0 NMtDT0=    0
 Petite list used in FoFCou.
 Keep R1 ints in memory in canonical form, NReq=2342278159.
 Requested convergence on RMS density matrix=1.00D-08 within 128 cycles.
 Requested convergence on MAX density matrix=1.00D-06.
 Requested convergence on             energy=1.00D-06.
 No special actions if energy rises.
 SCF Done:  E(RHF) =  -189.314398636     A.U. after    9 cycles
            NFock=  9  Conv=0.71D-08     -V/T= 2.0016
 ExpMin= 2.53D-02 ExpMax= 1.14D+04 ExpMxC= 3.89D+02 IAcc=3 IRadAn=         5 AccDes= 0.00D+00
 HarFok:  IExCor=  205 AccDes= 0.00D+00 IRadAn=         5 IDoV=-2 UseB2=F ITyADJ=14
 ICtDFT= 12500011 ScaDFX=  1.000000  1.000000  1.000000  1.000000
 Range of M.O.s used for correlation:     5   368
 NBasis=   368 NAE=    17 NBE=    17 NFC=     4 NFV=     0
 NROrb=    364 NOA=    13 NOB=    13 NVA=   351 NVB=   351

 **** Warning!!: The largest alpha MO coefficient is  0.78637994D+02

 Disk-based method using ON**2 memory for 13 occupieds at a time.
 Estimated scratch disk usage=  1745826152 words.
 Actual    scratch disk usage=  1643589992 words.
 JobTyp=1 Pass  1:  I=   5 to  17 NPSUse= 28 ParTrn=T ParDer=T DoDerP=T.
 (rs|ai) integrals will be sorted in core.
 Spin components of T(2) and E(2):
     alpha-alpha T2 =       0.2946124957D-01 E2=     -0.9280545438D-01
     alpha-beta  T2 =       0.1797375991D+00 E2=     -0.6203413063D+00
     beta-beta   T2 =       0.2946124957D-01 E2=     -0.9280545438D-01
 ANorm=    0.1112951076D+01
 E2 =    -0.8059522151D+00 EUMP2 =    -0.19012035085087D+03
          IDoAtm=111111111111
          Differentiating once with respect to electric field.
                with respect to dipole field.
          Differentiating once with respect to nuclear coordinates.
 Keep R1 ints in memory in canonical form, NReq=2342280375.
          There are     1 degrees of freedom in the 1st order CPHF.  IDoFFX=0 NUNeed=     1.
 LinEq1:  Iter=  0 NonCon=     1 RMS=2.12D-03 Max=2.24D-02 NDo=     1
 AX will form     1 AO Fock derivatives at one time.
 LinEq1:  Iter=  1 NonCon=     1 RMS=5.99D-04 Max=6.78D-03 NDo=     1
 LinEq1:  Iter=  2 NonCon=     1 RMS=1.87D-04 Max=2.47D-03 NDo=     1
 LinEq1:  Iter=  3 NonCon=     1 RMS=3.87D-05 Max=4.30D-04 NDo=     1
 LinEq1:  Iter=  4 NonCon=     1 RMS=1.04D-05 Max=1.29D-04 NDo=     1
 LinEq1:  Iter=  5 NonCon=     1 RMS=3.76D-06 Max=9.72D-05 NDo=     1
 LinEq1:  Iter=  6 NonCon=     1 RMS=7.79D-07 Max=1.05D-05 NDo=     1
 LinEq1:  Iter=  7 NonCon=     1 RMS=1.99D-07 Max=4.95D-06 NDo=     1
 LinEq1:  Iter=  8 NonCon=     1 RMS=8.38D-08 Max=7.99D-07 NDo=     1
 LinEq1:  Iter=  9 NonCon=     1 RMS=1.44D-08 Max=2.04D-07 NDo=     1
 LinEq1:  Iter= 10 NonCon=     1 RMS=2.87D-09 Max=2.88D-08 NDo=     1
 LinEq1:  Iter= 11 NonCon=     1 RMS=4.63D-10 Max=5.65D-09 NDo=     1
 LinEq1:  Iter= 12 NonCon=     1 RMS=7.88D-11 Max=1.32D-09 NDo=     1
 LinEq1:  Iter= 13 NonCon=     0 RMS=1.51D-11 Max=2.38D-10 NDo=     1
 Linear equations converged to 1.000D-10 1.000D-09 after    13 iterations.
 End of Minotr F.D. properties file   721 does not exist.
 End of Minotr F.D. properties file   722 does not exist.
 End of Minotr F.D. properties file   788 does not exist.
 Calling FoFJK, ICntrl=  10002127 FMM=F ISym2X=0 I1Cent= 0 IOpClX= 0 NMat=1 NMatS=1 NMatT=0.
 ***** Axes restored to original set *****
 -------------------------------------------------------------------
 Center     Atomic                   Forces (Hartrees/Bohr)
 Number     Number              X              Y              Z
 -------------------------------------------------------------------
      1        7           0.000667305    0.000012742    0.001174228
      2        1          -0.000021357   -0.000032823   -0.000006216
      3        6          -0.000418386    0.000382809   -0.000866948
      4        6          -0.000400496   -0.000374966   -0.000864202
      5        7          -0.000834613    0.000005072    0.000175778
      6        1           0.000274578   -0.000277330   -0.000047862
      7        1          -0.000175100   -0.000162568    0.000338512
      8        1          -0.000169493    0.000163581    0.000342399
      9        1           0.000276083    0.000279212   -0.000042720
     10        1           0.000265135   -0.000150440   -0.000152567
     11        1           0.000283000    0.000004455    0.000094834
     12        1           0.000253343    0.000150256   -0.000145236
 -------------------------------------------------------------------
 Cartesian Forces:  Max     0.001174228 RMS     0.000395901

 GradGradGradGradGradGradGradGradGradGradGradGradGradGradGradGradGradGrad
 Berny optimization.
 Using GEDIIS/GDIIS optimizer.
 FormGI is forming the generalized inverse of G from B-inverse, IUseBI=4.
 Internal  Forces:  Max     0.000618220 RMS     0.000218595
 Search for a local minimum.
 Step number   3 out of a maximum of   56
 All quantities printed in internal units (Hartrees-Bohrs-Radians)
 Mixed Optimization -- En-DIIS/RFO-DIIS
 Swapping is turned off.
 Update second derivatives using D2CorX and points    1    2    3
 DE= -2.72D-05 DEPred=-2.84D-05 R= 9.56D-01
 TightC=F SS=  1.41D+00  RLast= 6.85D-02 DXNew= 5.3771D-01 2.0559D-01
 Trust test= 9.56D-01 RLast= 6.85D-02 DXMaxT set to 3.20D-01
 ITU=  1  1  0
     Eigenvalues ---    0.00230   0.00230   0.00417   0.02156   0.03143
     Eigenvalues ---    0.03318   0.03654   0.03656   0.04279   0.06074
     Eigenvalues ---    0.07447   0.10518   0.12155   0.12362   0.15977
     Eigenvalues ---    0.16000   0.16000   0.16000   0.16645   0.23841
     Eigenvalues ---    0.29876   0.30355   0.34400   0.34510   0.34605
     Eigenvalues ---    0.37082   0.43258   0.44273   0.44294   0.44658
 En-DIIS/RFO-DIIS/Sim-DIIS IScMMF=       -3 using points:     3    2
 RFO step:  Lambda=-3.07058593D-05.
 DidBck=T Rises=F RFO-DIIS coefs:    0.23209    0.76791
 Iteration  1 RMS(Cart)=  0.03783964 RMS(Int)=  0.00051972
 Iteration  2 RMS(Cart)=  0.00096220 RMS(Int)=  0.00008333
 Iteration  3 RMS(Cart)=  0.00000015 RMS(Int)=  0.00008333
 Variable       Old X    -DE/DX   Delta X   Delta X   Delta X     New X
                                 (Linear)    (Quad)   (Total)
    R1        1.92626   0.00005   0.00100  -0.00179  -0.00079   1.92547
    R2        2.78677  -0.00062   0.00348  -0.00837  -0.00479   2.78198
    R3        2.78676  -0.00059   0.00349  -0.00832  -0.00472   2.78204
    R4        4.13750   0.00002   0.00480  -0.00769  -0.00289   4.13461
    R5        2.79488   0.00015   0.00052  -0.00004   0.00027   2.79515
    R6        2.04002   0.00038   0.00012   0.00058   0.00070   2.04071
    R7        2.04331   0.00040   0.00030   0.00032   0.00062   2.04394
    R8        2.04332   0.00040   0.00031   0.00032   0.00062   2.04394
    R9        2.04002   0.00038   0.00012   0.00058   0.00070   2.04071
   R10        1.91461   0.00006   0.00062  -0.00110  -0.00048   1.91413
   R11        1.91435   0.00003   0.00052  -0.00099  -0.00047   1.91388
   R12        1.91461   0.00006   0.00062  -0.00110  -0.00048   1.91413
    A1        1.86891  -0.00003  -0.00587   0.01103   0.00512   1.87403
    A2        1.86886  -0.00001  -0.00585   0.01121   0.00532   1.87417
    A3        2.00311   0.00002  -0.00106   0.00191   0.00082   2.00393
    A4        2.05288   0.00012   0.00031   0.00065   0.00096   2.05383
    A5        2.08522   0.00006   0.00043   0.00012   0.00057   2.08579
    A6        2.05208   0.00001  -0.00118   0.00107  -0.00015   2.05193
    A7        2.02101  -0.00007   0.00070  -0.00157  -0.00087   2.02014
    A8        2.05286   0.00012   0.00032   0.00070   0.00101   2.05387
    A9        2.00310   0.00003  -0.00105   0.00195   0.00087   2.00397
   A10        2.05208   0.00000  -0.00118   0.00104  -0.00018   2.05190
   A11        2.08523   0.00007   0.00043   0.00012   0.00057   2.08580
   A12        2.02101  -0.00007   0.00070  -0.00159  -0.00089   2.02013
   A13        1.86666  -0.00030   0.00286  -0.00678  -0.00395   1.86271
   A14        2.14359  -0.00024   0.00166  -0.00445  -0.00275   2.14084
   A15        1.86564  -0.00029   0.00284  -0.00660  -0.00377   1.86187
   A16        1.85704   0.00031  -0.00274   0.00648   0.00377   1.86082
   A17        1.85663   0.00031  -0.00263   0.00674   0.00401   1.86064
   A18        1.85710   0.00030  -0.00273   0.00647   0.00378   1.86087
   A19        2.96596   0.00016   0.04280   0.00877   0.05151   3.01747
   A20        3.02315   0.00007   0.02520  -0.00003   0.02513   3.04828
    D1       -1.59767   0.00018  -0.00272   0.00298   0.00050  -1.59718
    D2        0.53410   0.00017   0.00250   0.00430   0.00698   0.54108
    D3        2.66615   0.00016   0.00631   0.00365   0.01009   2.67624
    D4       -2.66630  -0.00016  -0.00673  -0.00386  -0.01072  -2.67702
    D5       -0.53453  -0.00017  -0.00151  -0.00254  -0.00423  -0.53876
    D6        1.59753  -0.00018   0.00230  -0.00319  -0.00113   1.59640
    D7        2.59553  -0.00008   0.00285  -0.00687  -0.00401   2.59151
    D8        0.12633  -0.00016   0.00266  -0.00766  -0.00497   0.12137
    D9       -0.12625   0.00015  -0.00268   0.00742   0.00470  -0.12155
   D10       -2.59543   0.00007  -0.00289   0.00654   0.00365  -2.59178
   D11       -2.60427   0.00002  -0.00011   0.00130   0.00121  -2.60306
   D12        0.00000   0.00000  -0.00001  -0.00003  -0.00004  -0.00003
   D13       -0.00002   0.00000   0.00001   0.00005   0.00006   0.00005
   D14        2.60426  -0.00002   0.00011  -0.00128  -0.00119   2.60307
         Item               Value     Threshold  Converged?
 Maximum Force            0.000618     0.000450     NO 
 RMS     Force            0.000219     0.000300     YES
 Maximum Displacement     0.107674     0.001800     NO 
 RMS     Displacement     0.037299     0.001200     NO 
 Predicted change in Energy=-1.587027D-05
 GradGradGradGradGradGradGradGradGradGradGradGradGradGradGradGradGradGrad

                          Input orientation:                          
 ---------------------------------------------------------------------
 Center     Atomic      Atomic             Coordinates (Angstroms)
 Number     Number       Type             X           Y           Z
 ---------------------------------------------------------------------
      1          7           0        0.649220   -0.001601   -0.804098
      2          1           0       -0.354988   -0.004392   -0.631617
      3          6           0        1.286700   -0.739842    0.298571
      4          6           0        1.282886    0.739283    0.299035
      5          7           0       -2.429414    0.001080    0.063948
      6          1           0        2.188173   -1.269316    0.028048
      7          1           0        0.641111   -1.242284    1.006128
      8          1           0        0.634740    1.237916    1.006948
      9          1           0        2.181624    1.273575    0.028876
     10          1           0       -2.876207   -0.810680   -0.345222
     11          1           0       -2.676557    0.003442    1.046111
     12          1           0       -2.872040    0.813646   -0.348138
 ---------------------------------------------------------------------
                    Distance matrix (angstroms):
                    1          2          3          4          5
     1  N    0.000000
     2  H    1.018917   0.000000
     3  C    1.472161   2.025160   0.000000
     4  C    1.472190   2.025289   1.479130   0.000000
     5  N    3.198671   2.187941   3.796513   3.792279   0.000000
     6  H    2.160543   2.915966   1.079898   2.219785   4.789290
     7  H    2.194602   2.281841   1.081605   2.199651   3.444093
     8  H    2.194652   2.282057   2.199631   1.081605   3.436284
     9  H    2.160597   2.916135   2.219791   1.079899   4.783528
    10  H    3.646068   2.662455   4.212989   4.485031   1.012915
    11  H    3.805798   2.864353   4.101060   4.095947   1.012783
    12  H    3.643048   2.661785   4.486276   4.205684   1.012915
                    6          7          8          9         10
     6  H    0.000000
     7  H    1.830512   0.000000
     8  H    3.107670   2.480208   0.000000
     9  H    2.542899   3.107691   1.830504   0.000000
    10  H    5.098786   3.792618   4.283906   5.483221   0.000000
    11  H    5.130494   3.544059   3.534141   5.123468   1.624334
    12  H    5.485071   4.289885   3.783354   5.088535   1.624334
                   11         12
    11  H    0.000000
    12  H    1.624369   0.000000
 Stoichiometry    C2H8N2
 Framework group  C1[X(C2H8N2)]
 Deg. of freedom    30
 Full point group                 C1      NOp   1
 Largest Abelian subgroup         C1      NOp   1
 Largest concise Abelian subgroup C1      NOp   1
                         Standard orientation:                         
 ---------------------------------------------------------------------
 Center     Atomic      Atomic             Coordinates (Angstroms)
 Number     Number       Type             X           Y           Z
 ---------------------------------------------------------------------
      1          7           0       -0.648133   -0.002931    0.814919
      2          1           0        0.354699   -0.006103    0.634619
      3          6           0       -1.294784   -0.737924   -0.284575
      4          6           0       -1.289755    0.741194   -0.281413
      5          7           0        2.423653   -0.000578   -0.077059
      6          1           0       -2.194561   -1.267340   -0.008353
      7          1           0       -0.655136   -1.239130   -0.998377
      8          1           0       -0.646727    1.241058   -0.993115
      9          1           0       -2.185921    1.275538   -0.002946
     10          1           0        2.872947   -0.813709    0.326612
     11          1           0        2.663147    0.004019   -1.061108
     12          1           0        2.870143    0.810608    0.333576
 ---------------------------------------------------------------------
 Rotational constants (GHZ):          14.1069006           2.8473180           2.7571522
 Standard basis: Aug-CC-pVTZ (5D, 7F)
 There are   420 symmetry adapted cartesian basis functions of A   symmetry.
 There are   368 symmetry adapted basis functions of A   symmetry.
   368 basis functions,   504 primitive gaussians,   420 cartesian basis functions
    17 alpha electrons       17 beta electrons
       nuclear repulsion energy       122.9739413033 Hartrees.
 NAtoms=   12 NActive=   12 NUniq=   12 SFac= 1.00D+00 NAtFMM=   60 NAOKFM=F Big=F
 Integral buffers will be    131072 words long.
 Raffenetti 1 integral format.
 Two-electron integral symmetry is turned on.
 One-electron integrals computed using PRISM.
 NBasis=   368 RedAO= T EigKep=  9.29D-06  NBF=   368
 NBsUse=   368 1.00D-06 EigRej= -1.00D+00 NBFU=   368
 Initial guess from the checkpoint file:  "/gscratch/scrubbed/gds001/Gau-13055.chk"
 B after Tr=     0.000000   -0.000000   -0.000000
         Rot=    0.999995   -0.002101   -0.002312    0.000558 Ang=  -0.36 deg.
 ExpMin= 2.53D-02 ExpMax= 1.14D+04 ExpMxC= 3.89D+02 IAcc=3 IRadAn=         5 AccDes= 0.00D+00
 Harris functional with IExCor=  205 and IRadAn=       5 diagonalized for initial guess.
 HarFok:  IExCor=  205 AccDes= 0.00D+00 IRadAn=         5 IDoV= 1 UseB2=F ITyADJ=14
 ICtDFT=  3500011 ScaDFX=  1.000000  1.000000  1.000000  1.000000
 FoFCou: FMM=F IPFlag=           0 FMFlag=      100000 FMFlg1=           0
         NFxFlg=           0 DoJE=T BraDBF=F KetDBF=T FulRan=T
         wScrn=  0.000000 ICntrl=       500 IOpCl=  0 I1Cent=   200000004 NGrid=           0
         NMat0=    1 NMatS0=      1 NMatT0=    0 NMatD0=    1 NMtDS0=    0 NMtDT0=    0
 Petite list used in FoFCou.
 Keep R1 ints in memory in canonical form, NReq=2342278159.
 Requested convergence on RMS density matrix=1.00D-08 within 128 cycles.
 Requested convergence on MAX density matrix=1.00D-06.
 Requested convergence on             energy=1.00D-06.
 No special actions if energy rises.
 SCF Done:  E(RHF) =  -189.314697902     A.U. after    9 cycles
            NFock=  9  Conv=0.76D-08     -V/T= 2.0016
 ExpMin= 2.53D-02 ExpMax= 1.14D+04 ExpMxC= 3.89D+02 IAcc=3 IRadAn=         5 AccDes= 0.00D+00
 HarFok:  IExCor=  205 AccDes= 0.00D+00 IRadAn=         5 IDoV=-2 UseB2=F ITyADJ=14
 ICtDFT= 12500011 ScaDFX=  1.000000  1.000000  1.000000  1.000000
 Range of M.O.s used for correlation:     5   368
 NBasis=   368 NAE=    17 NBE=    17 NFC=     4 NFV=     0
 NROrb=    364 NOA=    13 NOB=    13 NVA=   351 NVB=   351

 **** Warning!!: The largest alpha MO coefficient is  0.79873806D+02

 Disk-based method using ON**2 memory for 13 occupieds at a time.
 Estimated scratch disk usage=  1744162248 words.
 Actual    scratch disk usage=  1641926088 words.
 JobTyp=1 Pass  1:  I=   5 to  17 NPSUse= 28 ParTrn=T ParDer=T DoDerP=T.
 (rs|ai) integrals will be sorted in core.
 Spin components of T(2) and E(2):
     alpha-alpha T2 =       0.2942372303D-01 E2=     -0.9276371439D-01
     alpha-beta  T2 =       0.1795582839D+00 E2=     -0.6201421224D+00
     beta-beta   T2 =       0.2942372303D-01 E2=     -0.9276371439D-01
 ANorm=    0.1112836794D+01
 E2 =    -0.8056695511D+00 EUMP2 =    -0.19012036745324D+03
          IDoAtm=111111111111
          Differentiating once with respect to electric field.
                with respect to dipole field.
          Differentiating once with respect to nuclear coordinates.
 Keep R1 ints in memory in canonical form, NReq=2342280375.
          There are     1 degrees of freedom in the 1st order CPHF.  IDoFFX=0 NUNeed=     1.
 LinEq1:  Iter=  0 NonCon=     1 RMS=2.12D-03 Max=2.25D-02 NDo=     1
 AX will form     1 AO Fock derivatives at one time.
 LinEq1:  Iter=  1 NonCon=     1 RMS=5.98D-04 Max=6.47D-03 NDo=     1
 LinEq1:  Iter=  2 NonCon=     1 RMS=1.86D-04 Max=2.46D-03 NDo=     1
 LinEq1:  Iter=  3 NonCon=     1 RMS=3.85D-05 Max=4.45D-04 NDo=     1
 LinEq1:  Iter=  4 NonCon=     1 RMS=1.03D-05 Max=1.19D-04 NDo=     1
 LinEq1:  Iter=  5 NonCon=     1 RMS=3.71D-06 Max=9.45D-05 NDo=     1
 LinEq1:  Iter=  6 NonCon=     1 RMS=7.64D-07 Max=1.10D-05 NDo=     1
 LinEq1:  Iter=  7 NonCon=     1 RMS=1.81D-07 Max=4.33D-06 NDo=     1
 LinEq1:  Iter=  8 NonCon=     1 RMS=7.94D-08 Max=8.50D-07 NDo=     1
 LinEq1:  Iter=  9 NonCon=     1 RMS=1.42D-08 Max=2.01D-07 NDo=     1
 LinEq1:  Iter= 10 NonCon=     1 RMS=2.82D-09 Max=2.83D-08 NDo=     1
 LinEq1:  Iter= 11 NonCon=     1 RMS=4.52D-10 Max=5.43D-09 NDo=     1
 LinEq1:  Iter= 12 NonCon=     1 RMS=7.69D-11 Max=1.08D-09 NDo=     1
 LinEq1:  Iter= 13 NonCon=     0 RMS=1.54D-11 Max=2.52D-10 NDo=     1
 Linear equations converged to 1.000D-10 1.000D-09 after    13 iterations.
 End of Minotr F.D. properties file   721 does not exist.
 End of Minotr F.D. properties file   722 does not exist.
 End of Minotr F.D. properties file   788 does not exist.
 Calling FoFJK, ICntrl=  10002127 FMM=F ISym2X=0 I1Cent= 0 IOpClX= 0 NMat=1 NMatS=1 NMatT=0.
 ***** Axes restored to original set *****
 -------------------------------------------------------------------
 Center     Atomic                   Forces (Hartrees/Bohr)
 Number     Number              X              Y              Z
 -------------------------------------------------------------------
      1        7           0.000060183   -0.000022512   -0.000448529
      2        1          -0.000433615    0.000061131   -0.000122106
      3        6           0.000041946   -0.000401513    0.000006568
      4        6          -0.000004314    0.000380465    0.000004762
      5        7          -0.000098150   -0.000018048    0.000161314
      6        1           0.000119055   -0.000134019    0.000027582
      7        1           0.000008778   -0.000068150    0.000257166
      8        1          -0.000001567    0.000069171    0.000250976
      9        1           0.000113607    0.000129508    0.000014663
     10        1           0.000070248   -0.000046731   -0.000092734
     11        1           0.000042363    0.000001979    0.000033429
     12        1           0.000081466    0.000048721   -0.000093091
 -------------------------------------------------------------------
 Cartesian Forces:  Max     0.000448529 RMS     0.000166124

 GradGradGradGradGradGradGradGradGradGradGradGradGradGradGradGradGradGrad
 Berny optimization.
 Using GEDIIS/GDIIS optimizer.
 FormGI is forming the generalized inverse of G from B-inverse, IUseBI=4.
 Internal  Forces:  Max     0.000413704 RMS     0.000137184
 Search for a local minimum.
 Step number   4 out of a maximum of   56
 All quantities printed in internal units (Hartrees-Bohrs-Radians)
 Mixed Optimization -- En-DIIS/RFO-DIIS
 Swapping is turned off.
 Update second derivatives using D2CorX and points    1    2    3    4
 DE= -1.66D-05 DEPred=-1.59D-05 R= 1.05D+00
 TightC=F SS=  1.41D+00  RLast= 6.20D-02 DXNew= 5.3771D-01 1.8609D-01
 Trust test= 1.05D+00 RLast= 6.20D-02 DXMaxT set to 3.20D-01
 ITU=  1  1  1  0
     Eigenvalues ---    0.00230   0.00230   0.00402   0.02159   0.02758
     Eigenvalues ---    0.03324   0.03407   0.03652   0.04070   0.06039
     Eigenvalues ---    0.07582   0.10906   0.12155   0.12622   0.15967
     Eigenvalues ---    0.16000   0.16000   0.16082   0.16796   0.24623
     Eigenvalues ---    0.30349   0.34399   0.34439   0.34604   0.34869
     Eigenvalues ---    0.35303   0.43534   0.44238   0.44274   0.44319
 En-DIIS/RFO-DIIS/Sim-DIIS IScMMF=       -3 using points:     4    3    2
[...]
 00000136,0.00000445,-0.00000766,-0.00008002,0.00001941,0.00004485,0.00
 005370,-0.00008204,-0.00004525,-0.00002281,0.00002790,0.00000007,-0.00
 001064,0.00000895,0.00004209,0.00002290,-0.00001284,0.00000166,0.00001
 097,-0.00000954,0.00001306,-0.00002303,0.00001509,0.00000350,0.0000067
 4,-0.00001497,0.00000516,0.00000733,0.00001415,-0.00004652,-0.00001144
 ,-0.00004671,0.00008984,0.00011071,-0.00002971,-0.00017203,-0.00011795
 ,0.00000103,0.00005667,-0.00002209,0.00010080,-0.00000167,-0.00006335,
 -0.02222648,-0.64315064,-0.34426027,-0.00000271,-0.00000590,0.00000383
 ,-0.00002293,-0.00002004,0.00002537,-0.00000075,0.00001038,0.00002771,
 0.00001003,0.00000369,0.00003214,-0.00623703,-0.00017369,-0.00001838,-
 0.00006877,0.00046618,0.00018543,-0.00022321,0.00005514,0.00001502,0.0
 0015722,0.00000820,0.00001148,0.00013951,-0.60274062,-0.89316211,-0.62
 422045,-0.00004561,-0.00000523,-0.00003005,0.00005607,-0.00003626,-0.0
 0000255,0.00003648,0.00002746,0.00000788,-0.00004399,-0.00000498,-0.00
 004011,0.62139691,0.88706744,-0.00005461,-0.00000356,-0.00011709,0.000
 28642,0.00006192,-0.00004573,0.00002054,-0.00001254,0.00009887,-0.0000
 0540,0.00002002,0.00013121,-0.32103266,-0.62108135,-0.04829369,-0.0000
 2710,0.00000123,-0.00002937,0.00004170,0.00001834,0.00000299,0.0000094
 9,-0.00000047,0.00000663,-0.00002659,-0.00001203,-0.00003022,0.3324386
 2,0.63027666,0.03338098,0.00009605,0.00000061,-0.00004203,0.00016288,-
 0.00000105,0.00020863,-0.00001010,0.00005521,-0.00003875,-0.00000995,-
 0.00005576,-0.00004099,0.14036657,0.00044725,0.52964660,-0.00001365,-0
 .00000982,-0.00000221,-0.00002490,-0.00002022,0.00002321,-0.00002297,0
 .00002125,0.00002220,-0.00001259,0.00001006,-0.00000229,0.01379189,-0.
 00353820,-0.01401064,-0.16811756,-0.00000013,-0.00001518,-0.00000013,0
 .00000110,0.00010590,0.00000060,0.00002244,-0.00002959,0.00000430,-0.0
 0002367,-0.00003057,-0.00000395,0.00040043,0.27382446,-0.00130808,-0.0
 0000020,0.00000494,0.00000803,-0.00001176,0.00000381,0.00000836,0.0000
 1161,0.00000399,-0.00000854,0.00000088,0.00000463,-0.00000839,0.006295
 10,0.00966606,-0.02826609,-0.00042343,-0.29323099,0.00029929,-0.000000
 60,0.00007954,-0.00030346,-0.00000032,0.00048072,-0.00009572,-0.000005
 14,-0.00016087,-0.00009621,0.00000602,-0.00016156,0.48295862,-0.001333
 38,-1.35364382,0.00004478,-0.00001180,0.00002627,-0.00005463,0.0000182
 7,-0.00003923,-0.00005525,-0.00001855,-0.00003914,0.00004587,0.0000121
 8,0.00002675,0.00947454,0.01296573,0.00120280,-0.50171970,0.00133784,1
 .35105882,-0.00004619,-0.00008702,0.00011154,-0.00003100,0.00016965,-0
 .00011697,0.00010168,0.00000086,-0.00006225,0.00000297,-0.00005524,-0.
 00002311,-0.02353393,0.64336243,-0.34614413,0.00000636,-0.00000281,0.0
 0003107,0.00000060,-0.00001176,0.00002876,-0.00002367,0.00001786,0.000
 02336,-0.00000214,0.00000711,0.00000450,0.01466256,-0.01547689,0.00236
 020,0.01379433,-0.00627237,0.00950186,-0.00493157,0.00017267,-0.000017
 92,0.00006855,-0.00046543,0.00018398,0.00022264,-0.00000797,0.00001328
 ,-0.00013771,-0.00005639,0.00001477,-0.00015642,0.60299891,-0.88941386
 ,0.62545846,0.00004452,-0.00000514,0.00004056,-0.00003626,0.00002750,-
 0.00000929,-0.00005558,-0.00003608,0.00000128,0.00004556,-0.00000606,0
 .00002982,0.01549768,-0.00374594,0.01899787,0.00351411,0.00969256,-0.0
 1297026,-0.62165181,0.88329294,-0.00005547,0.00000337,-0.00011832,0.00
 028791,-0.00006006,-0.00004419,-0.00000382,-0.00002028,0.00013118,0.00
 001906,0.00001211,0.00009947,-0.32283726,0.62234409,-0.05071447,-0.000
 02588,0.00001185,-0.00002942,0.00000969,0.00000037,0.00000649,0.000041
 54,-0.00001882,0.00000268,-0.00002762,-0.00000139,-0.00003022,0.002350
 74,-0.01896184,0.01369260,-0.01404404,0.02823604,0.00116977,0.33428514
 ,-0.63154545,0.03583442,0.00044768,0.00003073,0.00004652,-0.00004212,0
 .00000410,-0.00002235,-0.00025960,0.00000455,-0.00000013,0.00028382,0.
 00001561,-0.00005129,0.00001199,0.00000027,0.00008363,0.00022552,0.000
 02442,0.00004403,-0.00019657,-0.00000706,0.00014750,-0.00010893,0.0000
 2771,0.00011295,-0.00000257,0.00007477,-0.00012744,-0.00028929,-0.0001
 7727,0.00001076,-0.00023977,-0.00001327,-0.00004569,-0.00000240,0.0001
 8435,-0.00016717,0.00002399,0.00028915,0.00008158,-0.00001277,0.000006
 47,-0.00004261,-0.00008325,0.00004740,-0.00020769,-0.00013311,-0.00005
 880,0.00011412,0.00000539,-0.00009008,-0.00013885,0.00027776,0.0001015
 9,-0.00006810,-0.00045009,0.00012927,0.00006573,0.00021298,0.00001155,
 -0.00004187,-0.00000975,-0.00012950,-0.00013815,-0.00023254,-0.0001524
 9,-0.00038498,-0.00003244,-0.00026811,-0.00001337,0.00001615,-0.000002
 49,-0.00003223,-0.00005272,0.00023809,-0.00012218,-0.00005631,-0.00014
 406,-0.00022603,0.00025739,-0.00000407,-0.00010642,-0.00047639,0.00000
 543,-0.00003932,0.00007297,0.00000630,0.00011167,0.00006231,-0.0000149
 8,0.00011121,0.09136555,-0.00000028,0.00036657,0.00000070,-0.00000085,
 -0.00090649,0.00000002,-0.00038695,0.00008832,0.00002522,0.00038963,0.
 00008821,-0.00002654,0.00031325,2.77747633,-0.00005042,-0.00000129,0.0
 0052230,-0.00078864,-0.00000212,-0.00026654,0.00003941,0.00003588,-0.0
 0021963,0.00004343,-0.00003584,-0.00021830,1.19930633,-0.00149434,0.07
 550746,-0.00001004,0.00001367,-0.00006862,-0.00000220,0.00004450,0.000
 00211,0.00023491,-0.00013772,0.00012854,-0.00007033,0.00005287,-0.0000
 1690,-0.00003809,0.00001334,0.00005299,-0.00010529,0.00004615,0.000013
 72,0.00004257,0.00001922,-0.00003481,-0.00000347,-0.00008669,0.0002400
 9,-0.00003036,-0.00000478,0.00000926,-0.00003957,0.00001858,0.00004506
 ,-0.00001679,-0.00000019,-0.00017816,-0.00002062,-0.00002512,-0.000006
 13,0.00000669,0.00003931,0.00000120,0.00009083,-0.00002871,0.00014408,
 -0.00002867,0.00000051,0.00004939,-0.00004019,-0.00008854,0.00007584,-
 0.00005117,0.00000785,-0.00014460,0.00001886,-0.00001939,0.00003742,-0
 .00000903,-0.00001550,0.00000326,-0.00001725,0.00007572,-0.00001170,0.
 00000219,-0.00002261,0.00001639,-0.00001495,-0.00004759,-0.00005145,-0
 .00003415,-0.00001476,-0.00001078,0.00002519,0.00000111,-0.00006407,0.
 00002708,0.00000501,0.00002544,0.00000842,-0.00001377,0.00004714,-0.00
 006458,-0.00003983,0.00007745,0.00001787,0.00003152,0.00001046,-0.0000
 2116,0.00001543,-0.00003121,0.00002523,0.00001557,-0.00001732,-0.00000
 395,0.00009565,-0.00005122,0.00000133,-0.00005323,0.00001317,-0.000014
 24,-0.00005344,0.00021607,0.00006965,-0.00000251,-0.00009088,-0.000024
 60,-0.00010069,-0.00000261,0.00002624,0.00002001,-0.00005261,-0.000048
 53,-0.00002276,-0.00004960,0.00000872,-0.00001237,-0.00000019,-0.00000
 166,0.00002102,0.00000127,-0.00000198,0.00001852,0.00002589,0.00008543
 ,-0.00008185,-0.00003616,-0.00000744,0.00004460,-0.00005173,-0.0000052
 8,0.00001597,0.00002589,0.00001033,0.00000202,-0.00001103,-0.00008021,
 -0.00000777,-0.00005248,-0.00001398,-0.00001822,0.00002595,-0.00001059
 ,0.00004870,0.00000521,-0.00003842,0.00000720,0.00015435,0.00013375,-0
 .00002639,0.00001021,0.00002235,0.00001382,-0.00001154,-0.00000208,-0.
 00000816,-0.00002318,0.00001421,0.00001523,-0.00004691,-0.00003997,-0.
 00010874,-0.00008580,-0.00000607,0.00004853,0.00000852,0.00009637,0.00
 002998,-0.00010090,-0.00001444,0.00011299,0.00035117,-0.00001951,0.000
 10314,-0.00000137,-0.00000729,-0.00002058,0.00003102,-0.00001914,-0.00
 000187,-0.00000704,0.00003645,-0.00004884,-0.00015094,-0.00000355,0.00
 001431,-0.00005882,-0.00001281,-0.00005238,-0.00000483,-0.00014450,-0.
 00003527,-0.00002880,0.00024087,0.00018347,0.00014114,-0.00004766,-0.0
 0001316,0.00005053,0.00000432,0.00001526,-0.00000210,0.00003048,-0.000
 01089,0.00000039,0.00000406,-0.00002726,-0.00002707,-0.00010434,-0.000
 03710,-0.00000286,-0.00004503,-0.00000994,-0.00002470,0.00000099,-0.00
 001329,0.00001251,0.00001879,0.00014569,0.00022373,0.00006641,-0.00001
 656,0.00004537,0.00001815,-0.00000578,-0.00000352,-0.00000886,-0.00000
 936,-0.00000938,0.00000297,0.00002047,-0.00004659,-0.00001180,-0.00008
 475,-0.00014422,-0.00003313,-0.00000953,-0.00000197,0.00000264,-0.0000
 4334,-0.00000320,-0.00003798,0.00001788,0.00001679,0.00010511,0.000050
 55,0.00006486,-0.00004227,0.00008689,0.00007716,-0.00000375,0.00002213
 ,-0.00001982,0.00002945,-0.00000317,0.00002133,-0.00004364,-0.00002022
 ,-0.00004608,-0.00000857,-0.00002086,-0.00003059,-0.00021304,0.0000027
 0,0.00001371,0.00032517,0.00010136,0.00003825,0.00000269,-0.00001065,0
 .00000464,-0.00000788,0.00003167,-0.00001672,-0.03795085,-1.06954012,-
 0.59486110,-0.00000267,-0.00001808,0.00000936,-0.00000216,0.00000877,0
 .00003068,-0.00000458,-0.00000113,-0.00002334,0.00001177,-0.00001624,0
 .00000215,0.03291531,0.00004085,-0.00010929,-0.00018404,0.00020154,0.0
 0032620,0.00010480,0.00009456,-0.00001668,0.00009926,-0.00012083,0.000
 00167,0.00011391,-1.05577124,-1.38338073,-1.06172377,-0.00001016,-0.00
 001640,-0.00000844,0.00002649,0.00000052,0.00001865,-0.00000943,-0.000
 01924,-0.00006533,0.00000726,-0.00002989,-0.00006683,1.05886485,1.3667
 3334,0.00000592,-0.00012563,-0.00016652,0.00051193,0.00035232,-0.00001
 167,0.00009462,-0.00003961,0.00007313,-0.00010786,-0.00002195,0.000125
 82,-0.58336611,-1.05269869,-0.04491251,-0.00003069,-0.00002891,-0.0000
 0552,0.00005788,0.00001468,0.00005944,-0.00000355,0.00000515,-0.000051
 96,-0.00002955,-0.00003234,-0.00006153,0.58192774,1.05572544,0.0572010
 8,0.00020279,0.00000092,-0.00001523,-0.00017446,-0.00000146,0.00019617
 ,-0.00000824,0.00002052,-0.00007299,-0.00000836,-0.00001989,-0.0000763
 2,-0.01306002,-0.00001087,-0.00592048,0.00002116,-0.00000827,0.0000169
 7,-0.00001241,-0.00001485,-0.00000238,-0.00001038,0.00001507,-0.000004
 04,0.00002615,0.00000805,0.00001687,0.00672023,-0.00028156,-0.00027189
 ,-0.00043026,0.00000129,-0.00011473,-0.00000052,0.00000047,0.00032087,
 0.00000031,0.00007771,-0.00003768,-0.00000753,-0.00008411,-0.00003840,
 0.00000771,-0.00003313,-0.01751471,0.00004912,0.00000146,-0.00000369,0
 .00002267,0.00000977,0.00000295,0.00001833,-0.00000576,0.00000331,-0.0
 0001901,-0.00000111,-0.00000449,-0.00002174,0.00753025,0.01064079,-0.0
 0354503,0.00001298,-0.00387893,-0.00004033,-0.00000021,-0.00013177,-0.
 00004703,-0.00000069,0.00015018,-0.00000881,-0.00002894,0.00003662,-0.
 00000817,0.00002949,0.00003798,-0.02965712,0.00004347,0.01847522,-0.00
 000029,0.00001594,-0.00001246,-0.00000149,0.00002589,-0.00000428,-0.00
 000315,-0.00002604,-0.00000450,-0.00000309,-0.00001561,-0.00001166,0.0
 1166947,0.00639329,-0.00711522,0.00641125,-0.00002596,-0.00430870,-0.0
 0020709,-0.00000003,0.00001311,0.00032430,-0.00010345,0.00004052,-0.00
 001530,-0.00003281,-0.00001722,-0.00000427,0.00001186,0.00000258,-0.04
 016284,1.06923901,-0.59776885,0.00000817,0.00001779,0.00000398,0.00000
 238,-0.00000008,-0.00002360,0.00000319,-0.00001057,0.00002828,-0.00000
 521,0.00001870,0.00001307,-0.00179400,-0.00304236,0.00121153,0.0067338
 1,-0.00750982,0.01168876,0.03511687,-0.00004261,-0.00010851,0.00018392
 ,-0.00020033,0.00032278,-0.00010574,0.00012195,0.00000231,-0.00011276,
 -0.00009271,-0.00001753,-0.00009744,1.05549127,-1.37632861,1.06316980,
 -0.00000130,-0.00002927,0.00006633,0.00000982,-0.00001888,0.00006288,-
 0.00002876,0.00000117,-0.00001826,0.00000493,-0.00001618,0.00000818,0.
 00304665,0.00586971,0.00039460,0.00027938,0.01062470,-0.00641064,-1.05
 858827,1.35969834,0.00000747,0.00012528,-0.00016878,0.00051254,-0.0003
 4964,-0.00000834,-0.00010979,0.00002297,0.00012467,0.00008984,0.000040
 50,0.00007392,-0.58623365,1.05414934,-0.04903699,-0.00003144,0.0000311
 4,-0.00006035,-0.00000117,-0.00000525,-0.00005153,0.00005997,-0.000015
 35,0.00005767,-0.00002882,0.00002716,-0.00000545,0.00120516,-0.0004069
 5,-0.00513458,-0.00027794,0.00352163,-0.00711140,0.58480781,-1.0571408
 4,0.06132114,-0.00023878,0.00002882,0.00011216,0.00007119,0.00000732,0
 .00006291,0.00026008,0.00000198,-0.00012869,-0.00022583,0.00001465,-0.
 00006791,0.00001628,0.00000513,0.00004462,0.00026220,0.00001999,-0.000
 04453,-0.00000376,-0.00000948,-0.00016921,-0.00003512,-0.00000676,0.00
 000583,-0.00004906,-0.00000175,-0.00005687,0.00007916,-0.00010066,0.00
 001049,-0.00016495,-0.00000409,-0.00002398,0.00000016,0.00021566,-0.00
 006964,-0.00009455,0.00022688,0.00005010,0.00001850,-0.00000846,0.0000
 4284,0.00003833,0.00000054,0.00016204,-0.00005554,-0.00000308,0.000049
 86,-0.00003539,-0.00001882,-0.00007029,0.00000041,0.00001511,-0.000063
 67,-0.00016211,0.00006718,0.00001694,0.00014966,0.,-0.00001179,-0.0000
 0517,-0.00003025,0.00004527,-0.00012288,-0.00015661,-0.00022889,-0.000
 14818,-0.00021522,-0.00005896,0.00006702,0.00001464,0.00005905,-0.0000
 8086,0.00008410,-0.00020144,0.00006532,-0.00007561,0.00017189,0.000162
 47,-0.00000216,0.00000874,-0.00018696,0.00000435,-0.00028546,0.0001776
 3,-0.00002982,0.00012774,0.00016411,0.00002061,0.00012594,-0.32323332,
 -0.00000030,0.00005957,0.00000055,0.00000085,-0.00020039,-0.00000238,-
 0.00016181,0.00005350,-0.00001251,0.00016368,0.00005254,0.00001186,-0.
 00178882,0.26380820,-0.00005012,-0.00000153,0.00055346,0.00049962,-0.0
 0000205,-0.00146043,0.00012948,0.00006656,-0.00013267,0.00013222,-0.00
 006624,-0.00013101,-0.91390832,0.00167549,3.00341685,0.00001100,-0.000
 01310,-0.00003079,-0.00001789,0.00001693,-0.00000122,0.00008330,-0.000
 06030,0.00002506,-0.00004292,-0.00000254,0.00003501,-0.00002331,0.0000
 1904,-0.00004278,0.00002290,0.00004053,0.00000588,0.00002494,-0.000005
 57,-0.00001382,-0.00000120,-0.00013443,0.00008837,0.00001187,0.0000291
 5,0.00003259,-0.00001966,0.00001474,-0.00000471,-0.00003307,0.00002849
 ,-0.00011357,0.00002268,-0.00004375,-0.00000704,-0.00002338,0.00003059
 ,-0.00001227,0.00003903,0.00001168,0.00002269,-0.00001437,0.00001818,0
 .00000822,-0.00000177,-0.00003816,0.00008578,-0.00005472,-0.00001032,-
 0.00003401,-0.00000459,-0.00003314,0.00001136,-0.00001458,0.00000740,0
 .00003033,-0.00003961,-0.00009987,0.00005164,0.00002759,-0.00001132,0.
 00000989,0.00003139,-0.00001057,0.00006903,-0.00005221,0.00006042,0.00
 002402,0.00003216,-0.00001502,-0.00003808,0.00003293,0.00001045,-0.000
 00690,0.00001033,0.00000698,-0.00007489,-0.00007244,-0.00003848,0.0000
 6759,0.00006451,-0.00002877,0.00002515,-0.00015081,0.00000363,-0.00000
 023,0.00000979,0.00006601,0.00005283,0.00001956,0.00005655,-0.00002495
 ,-0.00000148,-0.00003445,0.00001359,0.00000587,0.00001638,0.00003516,0
 .00003314,-0.00000556,-0.00003375,-0.00003590,-0.00002421,0.00012006,0
 .00004460,-0.00001143,-0.00001733,-0.00010575,-0.00002820,0.00002534,-
 0.00002303,-0.00000759,-0.00002669,-0.00000189,-0.00000234,0.00002544,
 0.00000175,0.00004416,-0.00000292,0.00003264,0.00002690,0.00000396,0.0
 0004139,0.00001105,0.00007052,0.00000103,-0.00002839,0.00000120,0.0000
 0735,0.00000597,-0.00000433,-0.00004359,0.00001127,-0.00003123,-0.0000
 1813,-0.00003543,-0.00000515,-0.00001294,0.00002904,0.00000741,-0.0000
 6312,-0.00001893,-0.00003750,0.00013823,0.00003486,0.00002492,0.000152
 46,0.00000641,-0.00000481,0.00001164,-0.00001130,-0.00000304,0.0000025
 2,0.00000213,0.00008491,-0.00000725,-0.00005334,-0.00004751,-0.0000205
 3,0.00002609,0.00000915,0.00007294,0.00005334,-0.00004386,-0.00004257,
 0.00001804,0.00009605,-0.00002855,0.00002711,0.00011979,-0.00001607,-0
 .00002091,0.00002062,-0.00001515,0.00000702,-0.00000192,0.00002965,-0.
 00005792,-0.00000937,0.00001269,0.00003221,-0.00005793,-0.00002039,-0.
 00002258,-0.00000564,-0.00009925,-0.00003678,0.00002599,0.00018597,0.0
 0014136,0.00005197,-0.00003300,-0.00001938,-0.00004483,0.00000509,0.00
 001173,-0.00000470,0.00003133,-0.00001035,-0.00000083,0.00000311,-0.00
 001514,-0.00001279,-0.00010454,-0.00004580,0.00001751,-0.00004813,0.00
 002666,-0.00000668,-0.00000099,-0.00006331,0.00001514,0.00001651,0.000
 17657,0.00011443,0.00001806,-0.00001252,-0.00000436,0.00003428,0.00000
 735,0.00000413,-0.00001888,0.00002891,-0.00000941,0.00001197,-0.000048
 31,-0.00002219,0.00001985,-0.00008824,-0.00011382,-0.00000121,0.000003
 76,-0.00000166,-0.00002527,-0.00003508,-0.00001881,-0.00001723,-0.0000
 0712,0.00001189,0.00004729,0.00002583,0.00003506,-0.00000373,0.0000369
 4,0.00008768,-0.00000643,0.00002949,-0.00000369,0.00000546,-0.00001718
 ,0.00001290,-0.00001355,-0.00000755,-0.00001259,0.00000129,0.00000053,
 -0.00004697,0.00004497,0.00001280,-0.00002379,-0.00002195,0.00001574,0
 .00014497,-0.00001684,0.00000356,-0.00003744,-0.00003347,-0.00001278,-
 0.00005545,-0.01214123,-0.35690895,-0.16254908,0.00001455,0.00000025,0
 .00000651,-0.00001962,0.00002197,0.00000751,-0.00002319,-0.00001594,0.
 00001454,0.00001630,0.00000278,0.00000652,0.00520526,-0.00000352,-0.00
 007699,-0.00017623,0.00023213,0.00022308,0.00005060,0.00008036,-0.0000
 2187,0.00008350,-0.00009208,-0.00000724,0.00007188,-0.33590547,-0.4964
 1214,-0.30510994,-0.00001208,-0.00000591,-0.00001318,0.00002217,0.0000
 1216,0.00002503,-0.00001041,-0.00002581,-0.00003373,-0.00000290,-0.000
 01909,-0.00004629,0.34947642,0.50647870,0.00002492,0.00005542,-0.00006
 239,-0.00010818,-0.00012157,0.00022079,-0.00004023,0.00000334,0.000003
 40,0.00000174,0.00002696,0.00003205,-0.15350817,-0.31053500,0.02192957
 ,0.00000499,0.00000044,-0.00001939,-0.00000027,0.00002706,-0.00001605,
 -0.00000070,-0.00002310,-0.00002264,0.00001263,-0.00000790,-0.00001106
 ,0.16531241,0.30945224,-0.04134648,-0.00018308,0.00000036,0.00014446,0
 .00033585,-0.00000096,-0.00018594,-0.00006264,0.00004061,-0.00003265,-
 0.00006191,-0.00004087,-0.00003601,0.34791719,0.00101654,1.23954753,-0
 .00001428,-0.00001510,-0.00000168,0.00001820,-0.00003695,0.00002211,0.
 00002119,0.00003742,0.00002099,-0.00000990,0.00001582,-0.00000231,-0.0
 0072706,-0.00459602,-0.01069946,-0.34649864,0.00000085,0.00006848,-0.0
 0000089,0.00000092,-0.00015228,0.00000165,-0.00003035,-0.00002161,0.00
 001035,0.00002437,-0.00002176,-0.00001004,0.00099916,0.72786289,-0.003
 04156,-0.00000320,0.00003032,-0.00000333,-0.00002883,0.00000004,-0.000
 03979,0.00003167,0.00000007,0.00003888,0.00000350,0.00002956,0.0000040
 8,-0.00178461,-0.00754860,-0.00391702,-0.00099753,-0.71270984,-0.00012
 571,-0.00000025,-0.00035523,-0.00016567,-0.00000001,0.00113726,-0.0000
 9438,-0.00003830,0.00001914,-0.00009502,0.00003891,0.00001871,1.222290
 34,-0.00305532,-3.04533944,0.00003149,0.00002337,-0.00003440,-0.000082
 27,0.00009393,-0.00009050,-0.00008520,-0.00009464,-0.00009023,0.000028
 46,-0.00002295,-0.00003355,-0.00181227,0.00072207,0.01088676,-1.218073
 99,0.00302124,3.02300965,0.00004899,-0.00001043,-0.00002367,-0.0000219
 5,-0.00001772,0.00014625,-0.00003961,0.00001230,-0.00005609,-0.0000195
 1,-0.00000215,-0.00003863,-0.01287637,0.35767870,-0.16385324,0.0000127
 0,-0.00000185,0.00000734,-0.00001759,0.00001486,0.00001534,-0.00001674
 ,-0.00002430,0.00000491,0.00001273,0.00000034,0.00000925,0.00770227,-0
 .00918863,-0.00099972,-0.00073491,0.00178406,-0.00181578,0.00595000,0.
 00000199,-0.00007676,0.00017664,-0.00023302,0.00022119,-0.00005057,0.0
 0009597,-0.00000667,-0.00007036,-0.00008066,-0.00002302,-0.00008299,0.
 33669382,-0.49526514,0.30647642,0.00000963,-0.00001836,0.00004566,0.00
 001031,-0.00002571,0.00003135,-0.00002500,0.00001254,-0.00002436,0.000
 00667,-0.00000545,0.00001279,0.00918878,-0.00259629,0.00503913,0.00457
 669,-0.00753725,-0.00068805,-0.35024516,0.50532091,0.00002637,-0.00005
 579,-0.00006413,-0.00010815,0.00012352,0.00022260,-0.00000181,-0.00002
 610,0.00003054,-0.00004402,-0.00000236,0.00000451,-0.15478082,0.311915
 59,0.02075039,0.00001068,0.00000675,-0.00000938,0.00000191,0.00002318,
 -0.00002234,0.00000253,-0.00002748,-0.00001767,0.00000678,-0.00000214,
 -0.00001932,-0.00101445,-0.00502594,0.00840541,-0.01070305,0.00393642,
 0.01087185,0.16660402,-0.31086565,-0.04015247\\@


 NOTHING RESEMBLES A NEW PHENOMENON AS MUCH AS A MISTAKE.

                               -- ENRICO FERMI (?)
 Job cpu time:      57 days 13 hours 54 minutes 52.4 seconds.
 Elapsed time:       2 days  2 hours  6 minutes 43.6 seconds.
 File lengths (MBytes):  RWF=  37008 Int=      0 D2E=      0 Chk=     68 Scr=      8
 Normal termination of Gaussian 16 at Wed Dec 22 17:01:52 2021.
