 Entering Gaussian System, Link 0=g16
 Input=meoh_nh3_mp2_avtz_opt_anharm.gjf
 Output=meoh_nh3_mp2_avtz_opt_anharm.log
 Initial command:
 /sw/contrib/gaussian/g16/A03/g16/l1.exe "/tmp/Gau-26177.inp" -scrdir="/tmp/"
 Entering Link 1 = /sw/contrib/gaussian/g16/A03/g16/l1.exe PID=     26178.
  
 Copyright (c) 1988,1990,1992,1993,1995,1998,2003,2009,2016,
            Gaussian, Inc.  All Rights Reserved.
  
 This is part of the Gaussian(R) 16 program.  It is based on
 the Gaussian(R) 09 system (copyright 2009, Gaussian, Inc.),
 the Gaussian(R) 03 system (copyright 2003, Gaussian, Inc.),
 the Gaussian(R) 98 system (copyright 1998, Gaussian, Inc.),
 the Gaussian(R) 94 system (copyright 1995, Gaussian, Inc.),
 the Gaussian 92(TM) system (copyright 1992, Gaussian, Inc.),
 the Gaussian 90(TM) system (copyright 1990, Gaussian, Inc.),
 the Gaussian 88(TM) system (copyright 1988, Gaussian, Inc.),
 the Gaussian 86(TM) system (copyright 1986, Carnegie Mellon
 University), and the Gaussian 82(TM) system (copyright 1983,
 Carnegie Mellon University). Gaussian is a federally registered
 trademark of Gaussian, Inc.
  
 This software contains proprietary and confidential information,
 including trade secrets, belonging to Gaussian, Inc.
  
 This software is provided under written license and may be
 used, copied, transmitted, or stored only in accord with that
 written license.
  
 The following legend is applicable only to US Government
 contracts under FAR:
  
                    RESTRICTED RIGHTS LEGEND
  
 Use, reproduction and disclosure by the US Government is
 subject to restrictions as set forth in subparagraphs (a)
 and (c) of the Commercial Computer Software - Restricted
 Rights clause in FAR 52.227-19.
  
 Gaussian, Inc.
 340 Quinnipiac St., Bldg. 40, Wallingford CT 06492
  
  
 ---------------------------------------------------------------
 Warning -- This program may not be used in any manner that
 competes with the business of Gaussian, Inc. or will provide
 assistance to any competitor of Gaussian, Inc.  The licensee
 of this program is prohibited from giving any competitor of
 Gaussian, Inc. access to this program.  By using this program,
 the user acknowledges that Gaussian, Inc. is engaged in the
 business of creating and licensing software in the field of
 computational chemistry and represents and warrants to the
 licensee that it is not a competitor of Gaussian, Inc. and that
 it will not use this program in any manner prohibited above.
 ---------------------------------------------------------------
  

 Cite this work as:
 Gaussian 16, Revision A.03,
 M. J. Frisch, G. W. Trucks, H. B. Schlegel, G. E. Scuseria, 
 M. A. Robb, J. R. Cheeseman, G. Scalmani, V. Barone, 
 G. A. Petersson, H. Nakatsuji, X. Li, M. Caricato, A. V. Marenich, 
 J. Bloino, B. G. Janesko, R. Gomperts, B. Mennucci, H. P. Hratchian, 
 J. V. Ortiz, A. F. Izmaylov, J. L. Sonnenberg, D. Williams-Young, 
 F. Ding, F. Lipparini, F. Egidi, J. Goings, B. Peng, A. Petrone, 
 T. Henderson, D. Ranasinghe, V. G. Zakrzewski, J. Gao, N. Rega, 
 G. Zheng, W. Liang, M. Hada, M. Ehara, K. Toyota, R. Fukuda, 
 J. Hasegawa, M. Ishida, T. Nakajima, Y. Honda, O. Kitao, H. Nakai, 
 T. Vreven, K. Throssell, J. A. Montgomery, Jr., J. E. Peralta, 
 F. Ogliaro, M. J. Bearpark, J. J. Heyd, E. N. Brothers, K. N. Kudin, 
 V. N. Staroverov, T. A. Keith, R. Kobayashi, J. Normand, 
 K. Raghavachari, A. P. Rendell, J. C. Burant, S. S. Iyengar, 
 J. Tomasi, M. Cossi, J. M. Millam, M. Klene, C. Adamo, R. Cammi, 
 J. W. Ochterski, R. L. Martin, K. Morokuma, O. Farkas, 
 J. B. Foresman, and D. J. Fox, Gaussian, Inc., Wallingford CT, 2016.
 
 ******************************************
 Gaussian 16:  ES64L-G16RevA.03 25-Dec-2016
                 6-Jun-2022 
 ******************************************
 %nprocshared=28
 Will use up to   28 processors via shared memory.
 %mem=41GB
 ----------------------------------------------
 # MP2/aug-cc-pVTZ opt freq=(vibrot,anharmonic)
 ----------------------------------------------
 1/18=20,19=15,38=1,80=1/1,3;
 2/9=110,12=2,17=6,18=5,40=1/2;
 3/5=16,6=1,7=10,11=9,25=1,30=1,71=1/1,2,3;
 4//1;
 5/5=2,38=5/2;
 8/6=4,10=1/1;
 9/15=2,16=-3/6;
 10/5=1/2;
 6/7=2,8=2,9=2,10=2/1;
 7/12=2/1,2,3,16;
 1/18=20,19=15,80=1/3(2);
 2/9=110/2;
 99//99;
 2/9=110/2;
 3/5=16,6=1,7=10,11=9,25=1,30=1,71=1/1,2,3;
 4/5=5,16=3,69=1/1;
 5/5=2,38=5/2;
 8/6=4,10=1/1;
 9/15=2,16=-3/6;
 10/5=1/2;
 7/12=2/1,2,3,16;
 1/18=20,19=15,80=1/3(-8);
 2/9=110/2;
 6/7=2,8=2,9=2,10=2/1;
 99//99;
 ----
 bleh
 ----
 Symbolic Z-matrix:
 Charge =  0 Multiplicity = 1
 O1                   -1.16606   2.3623    0.22535 
 H2                   -0.22325   2.16275   0.01629 
 C3                   -1.80238   2.60671  -1.01464 
 H4                   -2.85574   2.83413  -0.83484 
 H5                   -1.7269    1.71795  -1.64599 
 H6                   -1.32755   3.45844  -1.50789 
 N7                    1.52408   1.78585  -0.28899 
 H8                    2.04533   2.43889   0.30196 
 H9                    1.68631   0.86759   0.13266 
 H10                   2.03855   1.76354  -1.17199 
 
 Add virtual bond connecting atoms N7         and H2         Dist= 3.43D+00.

 GradGradGradGradGradGradGradGradGradGradGradGradGradGradGradGradGradGrad
 Berny optimization.
 Initialization pass.
                           ----------------------------
                           !    Initial Parameters    !
                           ! (Angstroms and Degrees)  !
 --------------------------                            --------------------------
 ! Name  Definition              Value          Derivative Info.                !
 --------------------------------------------------------------------------------
 ! R1    R(1,2)                  0.9861         estimate D2E/DX2                !
 ! R2    R(1,3)                  1.415          estimate D2E/DX2                !
 ! R3    R(2,7)                  1.8134         estimate D2E/DX2                !
 ! R4    R(3,4)                  1.0925         estimate D2E/DX2                !
 ! R5    R(3,5)                  1.0928         estimate D2E/DX2                !
 ! R6    R(3,6)                  1.0928         estimate D2E/DX2                !
 ! R7    R(7,8)                  1.0234         estimate D2E/DX2                !
 ! R8    R(7,9)                  1.0234         estimate D2E/DX2                !
 ! R9    R(7,10)                 1.0222         estimate D2E/DX2                !
 ! A1    A(2,1,3)              106.2077         estimate D2E/DX2                !
 ! A2    A(1,3,4)              108.9843         estimate D2E/DX2                !
 ! A3    A(1,3,5)              109.5572         estimate D2E/DX2                !
 ! A4    A(1,3,6)              109.558          estimate D2E/DX2                !
 ! A5    A(4,3,5)              109.3278         estimate D2E/DX2                !
 ! A6    A(4,3,6)              109.3279         estimate D2E/DX2                !
 ! A7    A(5,3,6)              110.0662         estimate D2E/DX2                !
 ! A8    A(2,7,8)              105.1256         estimate D2E/DX2                !
 ! A9    A(2,7,9)              105.6568         estimate D2E/DX2                !
 ! A10   A(2,7,10)             129.4141         estimate D2E/DX2                !
 ! A11   A(8,7,9)              104.7088         estimate D2E/DX2                !
 ! A12   A(8,7,10)             104.8555         estimate D2E/DX2                !
 ! A13   A(9,7,10)             104.8659         estimate D2E/DX2                !
 ! A14   L(1,2,7,5,-1)         182.2896         estimate D2E/DX2                !
 ! A15   L(1,2,7,5,-2)         181.2788         estimate D2E/DX2                !
 ! D1    D(3,1,7,8)            126.4736         estimate D2E/DX2                !
 ! D2    D(3,1,7,9)           -123.5053         estimate D2E/DX2                !
 ! D3    D(3,1,7,10)             1.8346         estimate D2E/DX2                !
 ! D4    D(2,1,3,4)           -179.9896         estimate D2E/DX2                !
 ! D5    D(2,1,3,5)             60.4296         estimate D2E/DX2                !
 ! D6    D(2,1,3,6)            -60.4082         estimate D2E/DX2                !
 --------------------------------------------------------------------------------
 Trust Radius=3.00D-01 FncErr=1.00D-07 GrdErr=1.00D-07 EigMax=2.50D+02 EigMin=1.00D-04
 Number of steps in this run=     40 maximum allowed number of steps=    100.
 GradGradGradGradGradGradGradGradGradGradGradGradGradGradGradGradGradGrad

                          Input orientation:                          
 ---------------------------------------------------------------------
 Center     Atomic      Atomic             Coordinates (Angstroms)
 Number     Number       Type             X           Y           Z
 ---------------------------------------------------------------------
      1          8           0       -1.166057    2.362302    0.225352
      2          1           0       -0.223248    2.162747    0.016290
      3          6           0       -1.802383    2.606707   -1.014641
      4          1           0       -2.855742    2.834126   -0.834835
      5          1           0       -1.726902    1.717945   -1.645992
      6          1           0       -1.327555    3.458440   -1.507886
      7          7           0        1.524083    1.785845   -0.288987
      8          1           0        2.045334    2.438887    0.301962
      9          1           0        1.686307    0.867592    0.132662
     10          1           0        2.038550    1.763543   -1.171990
 ---------------------------------------------------------------------
                    Distance matrix (angstroms):
                    1          2          3          4          5
     1  O    0.000000
     2  H    0.986112   0.000000
     3  C    1.415000   1.937417   0.000000
     4  H    2.049793   2.846961   1.092527   0.000000
     5  H    2.057103   2.285171   1.092794   1.782727   0.000000
     6  H    2.057112   2.285043   1.092795   1.782728   1.791053
     7  N    2.798875   1.813399   3.502251   4.536487   3.523490
     8  H    3.213217   2.303112   4.070200   5.046689   4.306280
     9  H    3.221603   2.310275   4.063469   5.043165   3.941663
    10  H    3.546911   2.585944   3.935537   5.021346   3.795443
                    6          7          8          9         10
     6  H    0.000000
     7  N    3.523511   0.000000
     8  H    3.961239   1.023419   0.000000
     9  H    4.299680   1.023374   1.620658   0.000000
    10  H    3.783670   1.022187   1.621317   1.621394   0.000000
 Stoichiometry    CH7NO
 Framework group  C1[X(CH7NO)]
 Deg. of freedom    24
 Full point group                 C1      NOp   1
 Largest Abelian subgroup         C1      NOp   1
 Largest concise Abelian subgroup C1      NOp   1
                         Standard orientation:                         
 ---------------------------------------------------------------------
 Center     Atomic      Atomic             Coordinates (Angstroms)
 Number     Number       Type             X           Y           Z
 ---------------------------------------------------------------------
      1          8           0        0.739335   -0.720513   -0.000018
      2          1           0       -0.189749   -0.390028   -0.000252
      3          6           0        1.566825    0.427304   -0.000028
      4          1           0        2.612698    0.111448    0.000039
      5          1           0        1.368355    1.021358    0.895466
      6          1           0        1.368448    1.021291   -0.895588
      7          7           0       -1.923693    0.140872   -0.000159
      8          1           0       -2.350238   -0.339951   -0.796560
      9          1           0       -2.346112   -0.295554    0.823484
     10          1           0       -2.313180    1.085616   -0.025164
 ---------------------------------------------------------------------
 Rotational constants (GHZ):          29.3233462           4.2068728           3.8435842
 Standard basis: Aug-CC-pVTZ (5D, 7F)
 There are   340 symmetry adapted cartesian basis functions of A   symmetry.
 There are   299 symmetry adapted basis functions of A   symmetry.
   299 basis functions,   405 primitive gaussians,   340 cartesian basis functions
    14 alpha electrons       14 beta electrons
       nuclear repulsion energy        82.0221017385 Hartrees.
 NAtoms=   10 NActive=   10 NUniq=   10 SFac= 1.00D+00 NAtFMM=   60 NAOKFM=F Big=F
 Integral buffers will be    131072 words long.
 Raffenetti 1 integral format.
 Two-electron integral symmetry is turned on.
 One-electron integrals computed using PRISM.
 NBasis=   299 RedAO= T EigKep=  4.77D-05  NBF=   299
 NBsUse=   299 1.00D-06 EigRej= -1.00D+00 NBFU=   299
 ExpMin= 2.53D-02 ExpMax= 1.53D+04 ExpMxC= 5.22D+02 IAcc=3 IRadAn=         5 AccDes= 0.00D+00
 Harris functional with IExCor=  205 and IRadAn=       5 diagonalized for initial guess.
 HarFok:  IExCor=  205 AccDes= 0.00D+00 IRadAn=         5 IDoV= 1 UseB2=F ITyADJ=14
 ICtDFT=  3500011 ScaDFX=  1.000000  1.000000  1.000000  1.000000
 FoFCou: FMM=F IPFlag=           0 FMFlag=      100000 FMFlg1=           0
         NFxFlg=           0 DoJE=T BraDBF=F KetDBF=T FulRan=T
         wScrn=  0.000000 ICntrl=       500 IOpCl=  0 I1Cent=   200000004 NGrid=           0
         NMat0=    1 NMatS0=      1 NMatT0=    0 NMatD0=    1 NMtDS0=    0 NMtDT0=    0
 Petite list used in FoFCou.
 Keep R1 ints in memory in canonical form, NReq=1025610888.
 Requested convergence on RMS density matrix=1.00D-08 within 128 cycles.
 Requested convergence on MAX density matrix=1.00D-06.
 Requested convergence on             energy=1.00D-06.
 No special actions if energy rises.
 SCF Done:  E(RHF) =  -171.314629902     A.U. after   11 cycles
            NFock= 11  Conv=0.35D-08     -V/T= 2.0017
 ExpMin= 2.53D-02 ExpMax= 1.53D+04 ExpMxC= 5.22D+02 IAcc=3 IRadAn=         5 AccDes= 0.00D+00
 HarFok:  IExCor=  205 AccDes= 0.00D+00 IRadAn=         5 IDoV=-2 UseB2=F ITyADJ=14
 ICtDFT= 12500011 ScaDFX=  1.000000  1.000000  1.000000  1.000000
 Range of M.O.s used for correlation:     4   299
 NBasis=   299 NAE=    14 NBE=    14 NFC=     3 NFV=     0
 NROrb=    296 NOA=    11 NOB=    11 NVA=   285 NVB=   285

 **** Warning!!: The largest alpha MO coefficient is  0.35193084D+02

 Disk-based method using ON**2 memory for 11 occupieds at a time.
 Estimated scratch disk usage=   810281966 words.
 Actual    scratch disk usage=   741796846 words.
 JobTyp=1 Pass  1:  I=   4 to  14 NPSUse= 28 ParTrn=T ParDer=T DoDerP=T.
 (rs|ai) integrals will be sorted in core.
 Spin components of T(2) and E(2):
     alpha-alpha T2 =       0.2220122451D-01 E2=     -0.7824206346D-01
     alpha-beta  T2 =       0.1393440142D+00 E2=     -0.5279062567D+00
     beta-beta   T2 =       0.2220122451D-01 E2=     -0.7824206346D-01
 ANorm=    0.1088001132D+01
 E2 =    -0.6843903837D+00 EUMP2 =    -0.17199902028566D+03
          IDoAtm=1111111111
          Differentiating once with respect to electric field.
                with respect to dipole field.
          Differentiating once with respect to nuclear coordinates.
 Keep R1 ints in memory in canonical form, NReq=1025612746.
          There are     1 degrees of freedom in the 1st order CPHF.  IDoFFX=0 NUNeed=     1.
 LinEq1:  Iter=  0 NonCon=     1 RMS=2.47D-03 Max=3.53D-02 NDo=     1
 AX will form     1 AO Fock derivatives at one time.
 LinEq1:  Iter=  1 NonCon=     1 RMS=6.23D-04 Max=6.89D-03 NDo=     1
 LinEq1:  Iter=  2 NonCon=     1 RMS=2.14D-04 Max=3.78D-03 NDo=     1
 LinEq1:  Iter=  3 NonCon=     1 RMS=5.77D-05 Max=6.71D-04 NDo=     1
 LinEq1:  Iter=  4 NonCon=     1 RMS=2.13D-05 Max=3.08D-04 NDo=     1
 LinEq1:  Iter=  5 NonCon=     1 RMS=4.57D-06 Max=6.67D-05 NDo=     1
 LinEq1:  Iter=  6 NonCon=     1 RMS=1.54D-06 Max=1.50D-05 NDo=     1
 LinEq1:  Iter=  7 NonCon=     1 RMS=4.33D-07 Max=5.05D-06 NDo=     1
 LinEq1:  Iter=  8 NonCon=     1 RMS=7.91D-08 Max=1.00D-06 NDo=     1
 LinEq1:  Iter=  9 NonCon=     1 RMS=1.15D-08 Max=1.16D-07 NDo=     1
 LinEq1:  Iter= 10 NonCon=     1 RMS=1.88D-09 Max=1.84D-08 NDo=     1
 LinEq1:  Iter= 11 NonCon=     1 RMS=3.37D-10 Max=3.46D-09 NDo=     1
 LinEq1:  Iter= 12 NonCon=     0 RMS=6.53D-11 Max=6.07D-10 NDo=     1
 Linear equations converged to 1.000D-10 1.000D-09 after    12 iterations.
 End of Minotr F.D. properties file   721 does not exist.
 End of Minotr F.D. properties file   722 does not exist.
 End of Minotr F.D. properties file   788 does not exist.

 **********************************************************************

            Population analysis using the SCF density.

 **********************************************************************

 Orbital symmetries:
       Occupied  (A) (A) (A) (A) (A) (A) (A) (A) (A) (A) (A) (A)
                 (A) (A)
       Virtual   (A) (A) (A) (A) (A) (A) (A) (A) (A) (A) (A) (A)
                 (A) (A) (A) (A) (A) (A) (A) (A) (A) (A) (A) (A)
                 (A) (A) (A) (A) (A) (A) (A) (A) (A) (A) (A) (A)
                 (A) (A) (A) (A) (A) (A) (A) (A) (A) (A) (A) (A)
                 (A) (A) (A) (A) (A) (A) (A) (A) (A) (A) (A) (A)
                 (A) (A) (A) (A) (A) (A) (A) (A) (A) (A) (A) (A)
                 (A) (A) (A) (A) (A) (A) (A) (A) (A) (A) (A) (A)
                 (A) (A) (A) (A) (A) (A) (A) (A) (A) (A) (A) (A)
                 (A) (A) (A) (A) (A) (A) (A) (A) (A) (A) (A) (A)
                 (A) (A) (A) (A) (A) (A) (A) (A) (A) (A) (A) (A)
                 (A) (A) (A) (A) (A) (A) (A) (A) (A) (A) (A) (A)
                 (A) (A) (A) (A) (A) (A) (A) (A) (A) (A) (A) (A)
                 (A) (A) (A) (A) (A) (A) (A) (A) (A) (A) (A) (A)
                 (A) (A) (A) (A) (A) (A) (A) (A) (A) (A) (A) (A)
                 (A) (A) (A) (A) (A) (A) (A) (A) (A) (A) (A) (A)
                 (A) (A) (A) (A) (A) (A) (A) (A) (A) (A) (A) (A)
                 (A) (A) (A) (A) (A) (A) (A) (A) (A) (A) (A) (A)
                 (A) (A) (A) (A) (A) (A) (A) (A) (A) (A) (A) (A)
                 (A) (A) (A) (A) (A) (A) (A) (A) (A) (A) (A) (A)
                 (A) (A) (A) (A) (A) (A) (A) (A) (A) (A) (A) (A)
                 (A) (A) (A) (A) (A) (A) (A) (A) (A) (A) (A) (A)
                 (A) (A) (A) (A) (A) (A) (A) (A) (A) (A) (A) (A)
                 (A) (A) (A) (A) (A) (A) (A) (A) (A) (A) (A) (A)
                 (A) (A) (A) (A) (A) (A) (A) (A) (A)
 The electronic state is 1-A.
 Alpha  occ. eigenvalues --  -20.51148 -15.57469 -11.24557  -1.31505  -1.17223
 Alpha  occ. eigenvalues --   -0.89309  -0.66354  -0.65093  -0.64858  -0.59363
 Alpha  occ. eigenvalues --   -0.56224  -0.49331  -0.44498  -0.41258
 Alpha virt. eigenvalues --    0.02183   0.04122   0.04264   0.04559   0.06177
 Alpha virt. eigenvalues --    0.06279   0.07336   0.11580   0.12932   0.13441
 Alpha virt. eigenvalues --    0.14374   0.15218   0.15258   0.16305   0.16510
 Alpha virt. eigenvalues --    0.20054   0.20095   0.20880   0.21506   0.22969
 Alpha virt. eigenvalues --    0.23830   0.26906   0.28289   0.28937   0.29346
 Alpha virt. eigenvalues --    0.31878   0.32309   0.33686   0.34451   0.35681
 Alpha virt. eigenvalues --    0.35896   0.36237   0.37933   0.38017   0.39127
 Alpha virt. eigenvalues --    0.39551   0.40022   0.41043   0.41652   0.42109
 Alpha virt. eigenvalues --    0.43956   0.44691   0.45103   0.47086   0.47512
 Alpha virt. eigenvalues --    0.48197   0.49277   0.50061   0.51480   0.53022
 Alpha virt. eigenvalues --    0.53392   0.54928   0.57585   0.58222   0.62312
 Alpha virt. eigenvalues --    0.63794   0.65353   0.68687   0.69326   0.72667
 Alpha virt. eigenvalues --    0.75933   0.78817   0.79581   0.80834   0.81144
 Alpha virt. eigenvalues --    0.82158   0.84361   0.86311   0.87024   0.88401
 Alpha virt. eigenvalues --    0.90870   0.91126   0.91935   0.92224   0.92773
 Alpha virt. eigenvalues --    0.94556   0.95541   0.96184   0.97818   0.98454
 Alpha virt. eigenvalues --    0.99860   1.00485   1.00887   1.02128   1.03140
 Alpha virt. eigenvalues --    1.04177   1.06157   1.07181   1.07786   1.09387
 Alpha virt. eigenvalues --    1.10261   1.11370   1.12554   1.15495   1.15671
 Alpha virt. eigenvalues --    1.16778   1.18019   1.20833   1.21196   1.22257
 Alpha virt. eigenvalues --    1.22940   1.25441   1.27553   1.28494   1.29953
 Alpha virt. eigenvalues --    1.31659   1.32096   1.36475   1.38008   1.39706
 Alpha virt. eigenvalues --    1.39971   1.41162   1.41741   1.43144   1.44401
 Alpha virt. eigenvalues --    1.50184   1.54358   1.57464   1.59715   1.62608
 Alpha virt. eigenvalues --    1.63290   1.65955   1.67794   1.68190   1.69117
 Alpha virt. eigenvalues --    1.72272   1.72380   1.74271   1.75159   1.78328
 Alpha virt. eigenvalues --    1.79055   1.79556   1.82753   1.86779   1.88282
 Alpha virt. eigenvalues --    1.92315   1.93579   1.96308   1.99513   1.99604
 Alpha virt. eigenvalues --    2.01111   2.02487   2.07073   2.08099   2.08305
 Alpha virt. eigenvalues --    2.11347   2.14233   2.19828   2.20355   2.21570
 Alpha virt. eigenvalues --    2.23755   2.33584   2.35168   2.36574   2.43961
 Alpha virt. eigenvalues --    2.44422   2.46700   2.48022   2.51334   2.53482
 Alpha virt. eigenvalues --    2.58198   2.62016   2.67392   2.72076   2.74079
 Alpha virt. eigenvalues --    2.83839   2.85767   2.88973   2.94805   2.95066
 Alpha virt. eigenvalues --    3.08662   3.12091   3.17174   3.22512   3.33379
 Alpha virt. eigenvalues --    3.38845   3.38982   3.43984   3.58995   3.59473
 Alpha virt. eigenvalues --    3.61972   3.67881   3.67974   3.74357   3.78077
 Alpha virt. eigenvalues --    3.84089   3.88788   3.92763   3.95326   3.97827
 Alpha virt. eigenvalues --    3.98251   3.98587   4.07799   4.08260   4.11496
 Alpha virt. eigenvalues --    4.12011   4.17483   4.19150   4.20996   4.21718
 Alpha virt. eigenvalues --    4.22023   4.25403   4.28035   4.28788   4.31274
 Alpha virt. eigenvalues --    4.32501   4.33949   4.34764   4.37092   4.49970
 Alpha virt. eigenvalues --    4.52324   4.53550   4.53790   4.55031   4.55567
 Alpha virt. eigenvalues --    4.57228   4.61719   4.61890   4.66879   4.71393
 Alpha virt. eigenvalues --    4.73147   4.73801   4.77248   4.80159   4.81347
 Alpha virt. eigenvalues --    4.82734   4.88870   4.94676   4.95948   4.99200
 Alpha virt. eigenvalues --    5.00212   5.03026   5.03730   5.05230   5.07732
 Alpha virt. eigenvalues --    5.10033   5.13779   5.20673   5.27533   5.29018
 Alpha virt. eigenvalues --    5.29383   5.38888   5.50057   5.52509   5.58043
 Alpha virt. eigenvalues --    5.60786   5.61942   5.67931   5.72188   5.74452
 Alpha virt. eigenvalues --    5.77432   5.84131   5.88474   5.91545   6.10581
 Alpha virt. eigenvalues --    6.11886   6.20766   6.23454   6.29691   6.33839
 Alpha virt. eigenvalues --    6.34509   6.40186   6.61522   6.65447   6.67567
 Alpha virt. eigenvalues --    6.69083   6.88704   6.96330   6.98864   7.00594
 Alpha virt. eigenvalues --    7.10713   7.40461   7.40862   7.53689   7.56833
 Alpha virt. eigenvalues --    7.61849   7.74121   7.79495   7.88698   8.03082
 Alpha virt. eigenvalues --    8.23603   8.64223  16.05482  17.54210  17.86233
          Condensed to atoms (all electrons):
               1          2          3          4          5          6
     1  O    8.381294   0.173086   0.099052   0.011838  -0.002313  -0.002212
     2  H    0.173086   0.509882   0.014647  -0.009569   0.002079   0.002235
     3  C    0.099052   0.014647   5.422164   0.390408   0.385327   0.385204
     4  H    0.011838  -0.009569   0.390408   0.264900   0.009571   0.009515
     5  H   -0.002313   0.002079   0.385327   0.009571   0.291093   0.006632
     6  H   -0.002212   0.002235   0.385204   0.009515   0.006632   0.291205
     7  N   -0.044611  -0.010193  -0.000560   0.000592   0.004689   0.004791
     8  H   -0.003356   0.006045  -0.000443  -0.000087   0.000331  -0.000168
     9  H   -0.003312   0.005786  -0.000453  -0.000083  -0.000173   0.000346
    10  H   -0.000917  -0.003684   0.000820   0.000040   0.000272   0.000257
               7          8          9         10
     1  O   -0.044611  -0.003356  -0.003312  -0.000917
     2  H   -0.010193   0.006045   0.005786  -0.003684
     3  C   -0.000560  -0.000443  -0.000453   0.000820
     4  H    0.000592  -0.000087  -0.000083   0.000040
     5  H    0.004689   0.000331  -0.000173   0.000272
     6  H    0.004791  -0.000168   0.000346   0.000257
     7  N    6.218195   0.396313   0.396106   0.385948
     8  H    0.396313   0.475881   0.000267  -0.008762
     9  H    0.396106   0.000267   0.475472  -0.008501
    10  H    0.385948  -0.008762  -0.008501   0.484308
 Mulliken charges:
               1
     1  O   -0.608549
     2  H    0.309685
     3  C   -0.696167
     4  H    0.322875
     5  H    0.302492
     6  H    0.302195
     7  N   -0.351269
     8  H    0.133978
     9  H    0.134544
    10  H    0.150217
 Sum of Mulliken charges =  -0.00000
 Mulliken charges with hydrogens summed into heavy atoms:
               1
     1  O   -0.298864
     3  C    0.231395
     7  N    0.067469
 Electronic spatial extent (au):  <R**2>=            340.6648
 Charge=             -0.0000 electrons
 Dipole moment (field-independent basis, Debye):
    X=             -3.3062    Y=              1.8617    Z=              0.0023  Tot=              3.7943
 Quadrupole moment (field-independent basis, Debye-Ang):
   XX=            -13.1749   YY=            -21.9037   ZZ=            -19.9960
   XY=              1.4396   XZ=             -0.0010   YZ=              0.0005
 Traceless Quadrupole moment (field-independent basis, Debye-Ang):
   XX=              5.1833   YY=             -3.5455   ZZ=             -1.6378
   XY=              1.4396   XZ=             -0.0010   YZ=              0.0005
 Octapole moment (field-independent basis, Debye-Ang**2):
  XXX=            -16.6989  YYY=              1.2837  ZZZ=              0.0869  XYY=             -7.2239
  XXY=              0.3595  XXZ=             -0.0100  XZZ=             -5.3848  YZZ=             -0.5682
  YYZ=             -0.0806  XYZ=             -0.0039
 Hexadecapole moment (field-independent basis, Debye-Ang**3):
 XXXX=           -302.2053 YYYY=            -60.8385 ZZZZ=            -30.0065 XXXY=             -6.1227
 XXXZ=              0.0529 YYYX=             -5.0389 YYYZ=             -0.0357 ZZZX=             -0.2077
 ZZZY=              0.0107 XXYY=            -61.0584 XXZZ=            -55.3298 YYZZ=            -15.2236
 XXYZ=              0.0162 YYXZ=              0.1992 ZZXY=              1.6171
 N-N= 8.202210173849D+01 E-N=-5.673405771200D+02  KE= 1.710308891374D+02
 Calling FoFJK, ICntrl=  10002127 FMM=F ISym2X=0 I1Cent= 0 IOpClX= 0 NMat=1 NMatS=1 NMatT=0.
 ***** Axes restored to original set *****
 -------------------------------------------------------------------
 Center     Atomic                   Forces (Hartrees/Bohr)
 Number     Number              X              Y              Z
 -------------------------------------------------------------------
      1        8           0.004023068   -0.001258063    0.004176772
      2        1          -0.009515033    0.002094275    0.001352368
      3        6           0.004447844   -0.001246106    0.002831547
      4        1           0.003849011   -0.000896439    0.000160143
      5        1          -0.002964936    0.002480953   -0.004363418
      6        1          -0.003594865   -0.000267211   -0.004577762
      7        7           0.016631234   -0.004079170    0.002712402
      8        1          -0.004655095   -0.003177993   -0.003547206
      9        1          -0.002694272    0.005502768   -0.002605589
     10        1          -0.005526957    0.000846984    0.003860743
 -------------------------------------------------------------------
 Cartesian Forces:  Max     0.016631234 RMS     0.004762153

 GradGradGradGradGradGradGradGradGradGradGradGradGradGradGradGradGradGrad
 Berny optimization.
 FormGI is forming the generalized inverse of G from B-inverse, IUseBI=4.
 Internal  Forces:  Max     0.007927468 RMS     0.003814611
 Search for a local minimum.
 Step number   1 out of a maximum of   40
 All quantities printed in internal units (Hartrees-Bohrs-Radians)
 Mixed Optimization -- RFO/linear search
 Second derivative matrix not updated -- first step.
 ITU=  0
     Eigenvalues ---    0.00230   0.00230   0.00230   0.01493   0.05965
     Eigenvalues ---    0.07236   0.10391   0.10418   0.10486   0.16000
     Eigenvalues ---    0.16000   0.16000   0.16000   0.16000   0.16000
     Eigenvalues ---    0.16000   0.34492   0.34492   0.34522   0.43222
     Eigenvalues ---    0.43797   0.43804   0.43991   0.50216
 RFO step:  Lambda=-2.40555718D-03 EMin= 2.30000000D-03
 Linear search not attempted -- first point.
 Iteration  1 RMS(Cart)=  0.15305784 RMS(Int)=  0.01018712
 Iteration  2 RMS(Cart)=  0.02008490 RMS(Int)=  0.00084685
 Iteration  3 RMS(Cart)=  0.00041993 RMS(Int)=  0.00082406
 Iteration  4 RMS(Cart)=  0.00000021 RMS(Int)=  0.00082406
 Variable       Old X    -DE/DX   Delta X   Delta X   Delta X     New X
                                 (Linear)    (Quad)   (Total)
    R1        1.86348  -0.00612   0.00000  -0.01214  -0.01213   1.85135
    R2        2.67396   0.00444   0.00000   0.01023   0.01024   2.68421
    R3        3.42683   0.00374   0.00000   0.06021   0.06020   3.48703
    R4        2.06458  -0.00387   0.00000  -0.01114  -0.01114   2.05344
    R5        2.06508   0.00030   0.00000   0.00086   0.00085   2.06593
    R6        2.06508   0.00030   0.00000   0.00085   0.00085   2.06593
    R7        1.93398  -0.00645   0.00000  -0.01464  -0.01464   1.91934
    R8        1.93390  -0.00644   0.00000  -0.01462  -0.01462   1.91928
    R9        1.93165  -0.00614   0.00000  -0.01387  -0.01387   1.91778
    A1        1.85367   0.00208   0.00000   0.01278   0.01274   1.86642
    A2        1.90214  -0.00469   0.00000  -0.03272  -0.03252   1.86961
    A3        1.91213   0.00793   0.00000   0.05075   0.05002   1.96215
    A4        1.91215   0.00792   0.00000   0.05072   0.04993   1.96208
    A5        1.90813  -0.00304   0.00000  -0.02260  -0.02241   1.88572
    A6        1.90813  -0.00304   0.00000  -0.02260  -0.02241   1.88572
    A7        1.92102  -0.00512   0.00000  -0.02399  -0.02551   1.89551
    A8        1.83479  -0.00086   0.00000  -0.00463  -0.00403   1.83075
    A9        1.84406  -0.00090   0.00000  -0.00527  -0.00620   1.83786
   A10        2.25870  -0.00323   0.00000  -0.02112  -0.02078   2.23792
   A11        1.82751   0.00182   0.00000   0.01487   0.01333   1.84084
   A12        1.83007   0.00209   0.00000   0.01208   0.01340   1.84347
   A13        1.83025   0.00210   0.00000   0.01166   0.01101   1.84126
   A14        3.18155   0.00113   0.00000   0.21926   0.21918   3.40073
   A15        3.16391   0.00050   0.00000   0.10100   0.10138   3.26529
    D1        2.20738  -0.00058   0.00000   0.00895   0.00666   2.21404
    D2       -2.15557   0.00060   0.00000  -0.01439  -0.01341  -2.16898
    D3        0.03202  -0.00003   0.00000   0.00530   0.00648   0.03850
    D4       -3.14141  -0.00000   0.00000  -0.00008  -0.00008  -3.14149
    D5        1.05470   0.00180   0.00000   0.01688   0.01813   1.07283
    D6       -1.05432  -0.00181   0.00000  -0.01706  -0.01835  -1.07267
         Item               Value     Threshold  Converged?
 Maximum Force            0.007927     0.000450     NO 
 RMS     Force            0.003815     0.000300     NO 
 Maximum Displacement     0.364301     0.001800     NO 
 RMS     Displacement     0.164518     0.001200     NO 
 Predicted change in Energy=-1.298945D-03
 GradGradGradGradGradGradGradGradGradGradGradGradGradGradGradGradGradGrad

                          Input orientation:                          
 ---------------------------------------------------------------------
 Center     Atomic      Atomic             Coordinates (Angstroms)
 Number     Number       Type             X           Y           Z
 ---------------------------------------------------------------------
      1          8           0       -1.089041    2.347956    0.132265
      2          1           0       -0.180904    2.148344   -0.176339
      3          6           0       -1.867759    2.622883   -1.023419
      4          1           0       -2.876008    2.844872   -0.684410
      5          1           0       -1.919682    1.768979   -1.704105
      6          1           0       -1.498641    3.489420   -1.578443
      7          7           0        1.621885    1.762490   -0.254051
      8          1           0        2.059117    2.430354    0.373942
      9          1           0        1.722353    0.858926    0.198719
     10          1           0        2.221067    1.723911   -1.072224
 ---------------------------------------------------------------------
                    Distance matrix (angstroms):
                    1          2          3          4          5
     1  O    0.000000
     2  H    0.979691   0.000000
     3  C    1.420420   1.946333   0.000000
     4  H    2.026607   2.829643   1.086634   0.000000
     5  H    2.097006   2.345493   1.093244   1.764054   0.000000
     6  H    2.096959   2.345381   1.093245   1.764052   1.775664
     7  N    2.800202   1.845256   3.675571   4.646268   3.826931
     8  H    3.158495   2.323797   4.172534   5.064326   4.537239
     9  H    3.182068   2.329303   4.182591   5.086140   4.208723
    10  H    3.577295   2.598503   4.186768   5.233272   4.188926
                    6          7          8          9         10
     6  H    0.000000
     7  N    3.804469   0.000000
     8  H    4.194171   1.015672   0.000000
     9  H    4.522455   1.015638   1.616632   0.000000
    10  H    4.148434   1.014847   1.617618   1.616234   0.000000
 Stoichiometry    CH7NO
 Framework group  C1[X(CH7NO)]
 Deg. of freedom    24
 Full point group                 C1      NOp   1
 Largest Abelian subgroup         C1      NOp   1
 Largest concise Abelian subgroup C1      NOp   1
                         Standard orientation:                         
 ---------------------------------------------------------------------
 Center     Atomic      Atomic             Coordinates (Angstroms)
 Number     Number       Type             X           Y           Z
 ---------------------------------------------------------------------
      1          8           0        0.684228   -0.656228   -0.000897
      2          1           0       -0.188093   -0.210683    0.017553
      3          6           0        1.670891    0.365579   -0.000124
      4          1           0        2.640009   -0.125504   -0.020670
      5          1           0        1.625729    0.988198    0.897366
      6          1           0        1.600883    1.013433   -0.877945
      7          7           0       -1.998195    0.147348   -0.000154
      8          1           0       -2.358457   -0.367969   -0.797806
      9          1           0       -2.372573   -0.323540    0.818154
     10          1           0       -2.459303    1.050973   -0.027661
 ---------------------------------------------------------------------
 Rotational constants (GHZ):          33.6405355           3.9032760           3.6440383
 Standard basis: Aug-CC-pVTZ (5D, 7F)
 There are   340 symmetry adapted cartesian basis functions of A   symmetry.
 There are   299 symmetry adapted basis functions of A   symmetry.
   299 basis functions,   405 primitive gaussians,   340 cartesian basis functions
    14 alpha electrons       14 beta electrons
       nuclear repulsion energy        81.3703486357 Hartrees.
 NAtoms=   10 NActive=   10 NUniq=   10 SFac= 1.00D+00 NAtFMM=   60 NAOKFM=F Big=F
 Integral buffers will be    131072 words long.
 Raffenetti 1 integral format.
 Two-electron integral symmetry is turned on.
 One-electron integrals computed using PRISM.
 NBasis=   299 RedAO= T EigKep=  4.84D-05  NBF=   299
 NBsUse=   299 1.00D-06 EigRej= -1.00D+00 NBFU=   299
 Initial guess from the checkpoint file:  "/tmp/Gau-26178.chk"
 B after Tr=     0.000000   -0.000000    0.000000
         Rot=    0.999949   -0.001665   -0.000172    0.009923 Ang=  -1.15 deg.
 ExpMin= 2.53D-02 ExpMax= 1.53D+04 ExpMxC= 5.22D+02 IAcc=3 IRadAn=         5 AccDes= 0.00D+00
 Harris functional with IExCor=  205 and IRadAn=       5 diagonalized for initial guess.
 HarFok:  IExCor=  205 AccDes= 0.00D+00 IRadAn=         5 IDoV= 1 UseB2=F ITyADJ=14
 ICtDFT=  3500011 ScaDFX=  1.000000  1.000000  1.000000  1.000000
 FoFCou: FMM=F IPFlag=           0 FMFlag=      100000 FMFlg1=           0
         NFxFlg=           0 DoJE=T BraDBF=F KetDBF=T FulRan=T
         wScrn=  0.000000 ICntrl=       500 IOpCl=  0 I1Cent=   200000004 NGrid=           0
         NMat0=    1 NMatS0=      1 NMatT0=    0 NMatD0=    1 NMtDS0=    0 NMtDT0=    0
 Petite list used in FoFCou.
 Keep R1 ints in memory in canonical form, NReq=1025610888.
 Requested convergence on RMS density matrix=1.00D-08 within 128 cycles.
 Requested convergence on MAX density matrix=1.00D-06.
 Requested convergence on             energy=1.00D-06.
 No special actions if energy rises.
 SCF Done:  E(RHF) =  -171.316415597     A.U. after   10 cycles
            NFock= 10  Conv=0.58D-08     -V/T= 2.0015
 ExpMin= 2.53D-02 ExpMax= 1.53D+04 ExpMxC= 5.22D+02 IAcc=3 IRadAn=         5 AccDes= 0.00D+00
 HarFok:  IExCor=  205 AccDes= 0.00D+00 IRadAn=         5 IDoV=-2 UseB2=F ITyADJ=14
 ICtDFT= 12500011 ScaDFX=  1.000000  1.000000  1.000000  1.000000
 Range of M.O.s used for correlation:     4   299
 NBasis=   299 NAE=    14 NBE=    14 NFC=     3 NFV=     0
 NROrb=    296 NOA=    11 NOB=    11 NVA=   285 NVB=   285

 **** Warning!!: The largest alpha MO coefficient is  0.35581922D+02

 Disk-based method using ON**2 memory for 11 occupieds at a time.
 Estimated scratch disk usage=   804721405 words.
 Actual    scratch disk usage=   737017085 words.
 JobTyp=1 Pass  1:  I=   4 to  14 NPSUse= 28 ParTrn=T ParDer=T DoDerP=T.
 (rs|ai) integrals will be sorted in core.
 Spin components of T(2) and E(2):
     alpha-alpha T2 =       0.2212635173D-01 E2=     -0.7810573143D-01
     alpha-beta  T2 =       0.1388997182D+00 E2=     -0.5273352232D+00
     beta-beta   T2 =       0.2212635173D-01 E2=     -0.7810573143D-01
 ANorm=    0.1087728101D+01
 E2 =    -0.6835466861D+00 EUMP2 =    -0.17199996228282D+03
          IDoAtm=1111111111
          Differentiating once with respect to electric field.
                with respect to dipole field.
          Differentiating once with respect to nuclear coordinates.
 Keep R1 ints in memory in canonical form, NReq=1025612746.
          There are     1 degrees of freedom in the 1st order CPHF.  IDoFFX=0 NUNeed=     1.
 LinEq1:  Iter=  0 NonCon=     1 RMS=2.46D-03 Max=3.36D-02 NDo=     1
 AX will form     1 AO Fock derivatives at one time.
 LinEq1:  Iter=  1 NonCon=     1 RMS=6.21D-04 Max=6.44D-03 NDo=     1
 LinEq1:  Iter=  2 NonCon=     1 RMS=2.10D-04 Max=3.71D-03 NDo=     1
 LinEq1:  Iter=  3 NonCon=     1 RMS=5.71D-05 Max=6.48D-04 NDo=     1
 LinEq1:  Iter=  4 NonCon=     1 RMS=2.13D-05 Max=2.82D-04 NDo=     1
 LinEq1:  Iter=  5 NonCon=     1 RMS=4.52D-06 Max=6.44D-05 NDo=     1
 LinEq1:  Iter=  6 NonCon=     1 RMS=1.53D-06 Max=1.43D-05 NDo=     1
 LinEq1:  Iter=  7 NonCon=     1 RMS=4.28D-07 Max=4.87D-06 NDo=     1
 LinEq1:  Iter=  8 NonCon=     1 RMS=7.88D-08 Max=1.05D-06 NDo=     1
 LinEq1:  Iter=  9 NonCon=     1 RMS=1.19D-08 Max=1.31D-07 NDo=     1
 LinEq1:  Iter= 10 NonCon=     1 RMS=2.14D-09 Max=2.00D-08 NDo=     1
 LinEq1:  Iter= 11 NonCon=     1 RMS=4.10D-10 Max=3.70D-09 NDo=     1
 LinEq1:  Iter= 12 NonCon=     0 RMS=7.50D-11 Max=6.94D-10 NDo=     1
 Linear equations converged to 1.000D-10 1.000D-09 after    12 iterations.
 End of Minotr F.D. properties file   721 does not exist.
 End of Minotr F.D. properties file   722 does not exist.
 End of Minotr F.D. properties file   788 does not exist.
 Calling FoFJK, ICntrl=  10002127 FMM=F ISym2X=0 I1Cent= 0 IOpClX= 0 NMat=1 NMatS=1 NMatT=0.
 ***** Axes restored to original set *****
 -------------------------------------------------------------------
 Center     Atomic                   Forces (Hartrees/Bohr)
 Number     Number              X              Y              Z
 -------------------------------------------------------------------
      1        8           0.000548602    0.000032109   -0.006945101
      2        1          -0.002750917    0.000920407    0.004155987
      3        6          -0.001177954    0.000005627    0.003360449
      4        1          -0.000979133    0.000267616   -0.000345222
      5        1           0.000703388   -0.000343533    0.000251208
      6        1           0.000811402   -0.000047642    0.000269573
      7        7           0.008102582   -0.002264594    0.000673898
      8        1          -0.001835787    0.000206233   -0.000532244
      9        1          -0.001620401    0.000640117   -0.000307934
     10        1          -0.001801781    0.000583661   -0.000580614
 -------------------------------------------------------------------
 Cartesian Forces:  Max     0.008102582 RMS     0.002390586

 GradGradGradGradGradGradGradGradGradGradGradGradGradGradGradGradGradGrad
 Berny optimization.
 Using GEDIIS/GDIIS optimizer.
 FormGI is forming the generalized inverse of G from B-inverse, IUseBI=4.
 Internal  Forces:  Max     0.003523014 RMS     0.001398274
 Search for a local minimum.
 Step number   2 out of a maximum of   40
 All quantities printed in internal units (Hartrees-Bohrs-Radians)
 Mixed Optimization -- RFO/linear search
 Update second derivatives using D2CorX and points    1    2
 DE= -9.42D-04 DEPred=-1.30D-03 R= 7.25D-01
 TightC=F SS=  1.41D+00  RLast= 2.70D-01 DXNew= 5.0454D-01 8.0891D-01
 Trust test= 7.25D-01 RLast= 2.70D-01 DXMaxT set to 5.05D-01
 ITU=  1  0
 Use linear search instead of GDIIS.
     Eigenvalues ---    0.00229   0.00230   0.00396   0.01493   0.04782
     Eigenvalues ---    0.07017   0.10222   0.10502   0.10521   0.12948
     Eigenvalues ---    0.16000   0.16000   0.16000   0.16000   0.16000
     Eigenvalues ---    0.18972   0.34484   0.34491   0.34669   0.41800
     Eigenvalues ---    0.43800   0.43925   0.44221   0.49712
 RFO step:  Lambda=-1.57678758D-03 EMin= 2.28835805D-03
 Quartic linear search produced a step of -0.17114.
 Iteration  1 RMS(Cart)=  0.09740132 RMS(Int)=  0.04742415
 Iteration  2 RMS(Cart)=  0.12353975 RMS(Int)=  0.01184786
 Iteration  3 RMS(Cart)=  0.04159633 RMS(Int)=  0.00305996
 Iteration  4 RMS(Cart)=  0.00070176 RMS(Int)=  0.00303132
 Iteration  5 RMS(Cart)=  0.00000112 RMS(Int)=  0.00303132
 Iteration  6 RMS(Cart)=  0.00000001 RMS(Int)=  0.00303132
 Variable       Old X    -DE/DX   Delta X   Delta X   Delta X     New X
                                 (Linear)    (Quad)   (Total)
    R1        1.85135  -0.00099   0.00208  -0.01339  -0.01124   1.84011
    R2        2.68421  -0.00254  -0.00175   0.00471   0.00291   2.68712
    R3        3.48703   0.00298  -0.01030   0.09924   0.08889   3.57592
    R4        2.05344   0.00086   0.00191  -0.00853  -0.00662   2.04682
    R5        2.06593   0.00006  -0.00015   0.00097   0.00089   2.06682
    R6        2.06593   0.00010  -0.00015   0.00107   0.00092   2.06686
    R7        1.91934  -0.00098   0.00251  -0.01603  -0.01352   1.90582
    R8        1.91928  -0.00087   0.00250  -0.01577  -0.01327   1.90601
    R9        1.91778  -0.00062   0.00237  -0.01455  -0.01218   1.90561
    A1        1.86642   0.00352  -0.00218   0.03130   0.02907   1.89549
    A2        1.86961   0.00163   0.00557  -0.02106  -0.01547   1.85415
    A3        1.96215  -0.00117  -0.00856   0.04020   0.03135   1.99350
    A4        1.96208  -0.00126  -0.00855   0.03968   0.03101   1.99309
    A5        1.88572   0.00028   0.00383  -0.01870  -0.01484   1.87088
    A6        1.88572   0.00030   0.00384  -0.01866  -0.01480   1.87092
    A7        1.89551   0.00033   0.00437  -0.02567  -0.02152   1.87399
    A8        1.83075  -0.00143   0.00069  -0.01259  -0.00780   1.82296
    A9        1.83786  -0.00108   0.00106  -0.01068  -0.01473   1.82313
   A10        2.23792  -0.00166   0.00356  -0.02937  -0.02475   2.21317
   A11        1.84084   0.00128  -0.00228   0.02130   0.01668   1.85752
   A12        1.84347   0.00160  -0.00229   0.01959   0.02429   1.86776
   A13        1.84126   0.00185  -0.00188   0.02136   0.01329   1.85456
   A14        3.40073  -0.00245  -0.03751  -0.41953  -0.45766   2.94307
   A15        3.26529  -0.00047  -0.01735  -0.06571  -0.08068   3.18461
    D1        2.21404  -0.00053  -0.00114  -0.01288  -0.02068   2.19336
    D2       -2.16898   0.00041   0.00229   0.05065   0.05091  -2.11808
    D3        0.03850   0.00002  -0.00111  -0.05248  -0.04441  -0.00591
    D4       -3.14149   0.00002   0.00001   0.00059   0.00060  -3.14089
    D5        1.07283  -0.00070  -0.00310   0.01381   0.01100   1.08382
    D6       -1.07267   0.00070   0.00314  -0.01288  -0.00992  -1.08260
         Item               Value     Threshold  Converged?
 Maximum Force            0.003523     0.000450     NO 
 RMS     Force            0.001398     0.000300     NO 
 Maximum Displacement     0.706899     0.001800     NO 
 RMS     Displacement     0.250382     0.001200     NO 
 Predicted change in Energy=-9.633755D-04
 GradGradGradGradGradGradGradGradGradGradGradGradGradGradGradGradGradGrad

                          Input orientation:                          
 ---------------------------------------------------------------------
 Center     Atomic      Atomic             Coordinates (Angstroms)
 Number     Number       Type             X           Y           Z
 ---------------------------------------------------------------------
      1          8           0       -1.208384    2.381419    0.279733
      2          1           0       -0.248381    2.240529    0.197736
      3          6           0       -1.748326    2.593187   -1.018571
      4          1           0       -2.812065    2.745635   -0.882972
      5          1           0       -1.627347    1.745176   -1.698612
      6          1           0       -1.357113    3.478549   -1.527825
      7          7           0        1.523553    1.783136   -0.283749
      8          1           0        2.100478    2.414336    0.250901
      9          1           0        1.662908    0.865542    0.111104
     10          1           0        1.907063    1.750627   -1.215811
 ---------------------------------------------------------------------
                    Distance matrix (angstroms):
                    1          2          3          4          5
     1  O    0.000000
     2  H    0.973745   0.000000
     3  C    1.421962   1.963059   0.000000
     4  H    2.014033   2.827638   1.083129   0.000000
     5  H    2.119949   2.396467   1.093715   1.752068   0.000000
     6  H    2.119689   2.395733   1.093734   1.752108   1.762605
     7  N    2.852881   1.892296   3.449831   4.481412   3.454193
     8  H    3.309152   2.355881   4.056703   5.052574   4.259702
     9  H    3.251252   2.356082   3.987159   4.954626   3.856761
    10  H    3.512913   2.623748   3.756417   4.834355   3.567237
                    6          7          8          9         10
     6  H    0.000000
     7  N    3.566565   0.000000
     8  H    4.031297   1.008517   0.000000
     9  H    4.316760   1.008617   1.615479   0.000000
    10  H    3.706468   1.008403   1.621470   1.613595   0.000000
 Stoichiometry    CH7NO
 Framework group  C1[X(CH7NO)]
 Deg. of freedom    24
 Full point group                 C1      NOp   1
 Largest Abelian subgroup         C1      NOp   1
 Largest concise Abelian subgroup C1      NOp   1
                         Standard orientation:                         
 ---------------------------------------------------------------------
 Center     Atomic      Atomic             Coordinates (Angstroms)
 Number     Number       Type             X           Y           Z
 ---------------------------------------------------------------------
      1          8           0        0.783543   -0.759883    0.006227
      2          1           0       -0.165962   -0.558227   -0.070940
      3          6           0        1.509117    0.463005   -0.001670
      4          1           0        2.555023    0.195110    0.084819
      5          1           0        1.275677    1.128624    0.834195
      6          1           0        1.399077    1.043597   -0.922027
      7          7           0       -1.925142    0.135595   -0.002526
      8          1           0       -2.398425   -0.301650   -0.778365
      9          1           0       -2.320964   -0.263777    0.834812
     10          1           0       -2.191478    1.108188   -0.004613
 ---------------------------------------------------------------------
 Rotational constants (GHZ):          26.7117444           4.2755349           3.8474497
 Standard basis: Aug-CC-pVTZ (5D, 7F)
 There are   340 symmetry adapted cartesian basis functions of A   symmetry.
 There are   299 symmetry adapted basis functions of A   symmetry.
   299 basis functions,   405 primitive gaussians,   340 cartesian basis functions
    14 alpha electrons       14 beta electrons
       nuclear repulsion energy        81.9093123748 Hartrees.
 NAtoms=   10 NActive=   10 NUniq=   10 SFac= 1.00D+00 NAtFMM=   60 NAOKFM=F Big=F
 Integral buffers will be    131072 words long.
 Raffenetti 1 integral format.
 Two-electron integral symmetry is turned on.
 One-electron integrals computed using PRISM.
 NBasis=   299 RedAO= T EigKep=  4.51D-05  NBF=   299
 NBsUse=   299 1.00D-06 EigRej= -1.00D+00 NBFU=   299
 Initial guess from the checkpoint file:  "/tmp/Gau-26178.chk"
 B after Tr=    -0.000000    0.000000   -0.000000
         Rot=    0.999853    0.009261    0.000705   -0.014430 Ang=   1.97 deg.
 ExpMin= 2.53D-02 ExpMax= 1.53D+04 ExpMxC= 5.22D+02 IAcc=3 IRadAn=         5 AccDes= 0.00D+00
 Harris functional with IExCor=  205 and IRadAn=       5 diagonalized for initial guess.
 HarFok:  IExCor=  205 AccDes= 0.00D+00 IRadAn=         5 IDoV= 1 UseB2=F ITyADJ=14
 ICtDFT=  3500011 ScaDFX=  1.000000  1.000000  1.000000  1.000000
 FoFCou: FMM=F IPFlag=           0 FMFlag=      100000 FMFlg1=           0
         NFxFlg=           0 DoJE=T BraDBF=F KetDBF=T FulRan=T
         wScrn=  0.000000 ICntrl=       500 IOpCl=  0 I1Cent=   200000004 NGrid=           0
         NMat0=    1 NMatS0=      1 NMatT0=    0 NMatD0=    1 NMtDS0=    0 NMtDT0=    0
 Petite list used in FoFCou.
 Keep R1 ints in memory in canonical form, NReq=1025610888.
 Requested convergence on RMS density matrix=1.00D-08 within 128 cycles.
 Requested convergence on MAX density matrix=1.00D-06.
 Requested convergence on             energy=1.00D-06.
 No special actions if energy rises.
 SCF Done:  E(RHF) =  -171.316615810     A.U. after   11 cycles
            NFock= 11  Conv=0.19D-08     -V/T= 2.0014
 ExpMin= 2.53D-02 ExpMax= 1.53D+04 ExpMxC= 5.22D+02 IAcc=3 IRadAn=         5 AccDes= 0.00D+00
 HarFok:  IExCor=  205 AccDes= 0.00D+00 IRadAn=         5 IDoV=-2 UseB2=F ITyADJ=14
 ICtDFT= 12500011 ScaDFX=  1.000000  1.000000  1.000000  1.000000
 Range of M.O.s used for correlation:     4   299
 NBasis=   299 NAE=    14 NBE=    14 NFC=     3 NFV=     0
 NROrb=    296 NOA=    11 NOB=    11 NVA=   285 NVB=   285

 **** Warning!!: The largest alpha MO coefficient is  0.41663798D+02

 Disk-based method using ON**2 memory for 11 occupieds at a time.
 Estimated scratch disk usage=   810747751 words.
 Actual    scratch disk usage=   742167911 words.
 JobTyp=1 Pass  1:  I=   4 to  14 NPSUse= 28 ParTrn=T ParDer=T DoDerP=T.
 (rs|ai) integrals will be sorted in core.
 Spin components of T(2) and E(2):
     alpha-alpha T2 =       0.2204864631D-01 E2=     -0.7798558640D-01
     alpha-beta  T2 =       0.1383318282D+00 E2=     -0.5266045022D+00
     beta-beta   T2 =       0.2204864631D-01 E2=     -0.7798558640D-01
 ANorm=    0.1087395568D+01
 E2 =    -0.6825756750D+00 EUMP2 =    -0.17199919148505D+03
          IDoAtm=1111111111
          Differentiating once with respect to electric field.
                with respect to dipole field.
          Differentiating once with respect to nuclear coordinates.
 Keep R1 ints in memory in canonical form, NReq=1025612746.
          There are     1 degrees of freedom in the 1st order CPHF.  IDoFFX=0 NUNeed=     1.
 LinEq1:  Iter=  0 NonCon=     1 RMS=2.45D-03 Max=3.39D-02 NDo=     1
 AX will form     1 AO Fock derivatives at one time.
 LinEq1:  Iter=  1 NonCon=     1 RMS=6.14D-04 Max=6.02D-03 NDo=     1
 LinEq1:  Iter=  2 NonCon=     1 RMS=2.08D-04 Max=3.15D-03 NDo=     1
 LinEq1:  Iter=  3 NonCon=     1 RMS=5.47D-05 Max=5.51D-04 NDo=     1
 LinEq1:  Iter=  4 NonCon=     1 RMS=2.07D-05 Max=3.24D-04 NDo=     1
 LinEq1:  Iter=  5 NonCon=     1 RMS=4.41D-06 Max=6.95D-05 NDo=     1
 LinEq1:  Iter=  6 NonCon=     1 RMS=1.46D-06 Max=1.52D-05 NDo=     1
 LinEq1:  Iter=  7 NonCon=     1 RMS=4.19D-07 Max=4.74D-06 NDo=     1
 LinEq1:  Iter=  8 NonCon=     1 RMS=7.79D-08 Max=9.97D-07 NDo=     1
 LinEq1:  Iter=  9 NonCon=     1 RMS=1.14D-08 Max=1.34D-07 NDo=     1
 LinEq1:  Iter= 10 NonCon=     1 RMS=1.87D-09 Max=1.82D-08 NDo=     1
 LinEq1:  Iter= 11 NonCon=     1 RMS=3.37D-10 Max=3.38D-09 NDo=     1
 LinEq1:  Iter= 12 NonCon=     0 RMS=6.61D-11 Max=7.03D-10 NDo=     1
 Linear equations converged to 1.000D-10 1.000D-09 after    12 iterations.
 End of Minotr F.D. properties file   721 does not exist.
 End of Minotr F.D. properties file   722 does not exist.
 End of Minotr F.D. properties file   788 does not exist.
 Calling FoFJK, ICntrl=  10002127 FMM=F ISym2X=0 I1Cent= 0 IOpClX= 0 NMat=1 NMatS=1 NMatT=0.
 ***** Axes restored to original set *****
 -------------------------------------------------------------------
 Center     Atomic                   Forces (Hartrees/Bohr)
 Number     Number              X              Y              Z
 -------------------------------------------------------------------
      1        8          -0.002816568    0.002134958   -0.003557151
      2        1          -0.001868029   -0.001001041   -0.007137888
      3        6          -0.001205961    0.000158325    0.002207428
      4        1          -0.003500309    0.000502284    0.000131885
      5        1           0.002972943   -0.002413958    0.003259802
      6        1           0.003266127    0.000643738    0.003527309
      7        7          -0.000242125   -0.000092022    0.002035469
      8        1           0.003169359    0.002696046    0.001464745
      9        1           0.000039226   -0.003903088    0.001960817
     10        1           0.000185338    0.001274757   -0.003892415
 -------------------------------------------------------------------
 Cartesian Forces:  Max     0.007137888 RMS     0.002632079

 GradGradGradGradGradGradGradGradGradGradGradGradGradGradGradGradGradGrad
 Berny optimization.
 Using GEDIIS/GDIIS optimizer.
 FormGI is forming the generalized inverse of G from B-inverse, IUseBI=4.
 Internal  Forces:  Max     0.009097069 RMS     0.003440024
 Search for a local minimum.
 Step number   3 out of a maximum of   40
 All quantities printed in internal units (Hartrees-Bohrs-Radians)
 Mixed Optimization -- RFO/linear search
 Update second derivatives using D2CorX and points    1    3    2
 DE=  7.71D-04 DEPred=-9.63D-04 R=-8.00D-01
 Trust test=-8.00D-01 RLast= 4.85D-01 DXMaxT set to 2.52D-01
 ITU= -1  1  0
 Use linear search instead of GDIIS.
     Eigenvalues ---    0.00230   0.00230   0.01401   0.01495   0.04156
     Eigenvalues ---    0.08041   0.09889   0.10346   0.10473   0.13839
     Eigenvalues ---    0.15999   0.16000   0.16000   0.16000   0.16990
     Eigenvalues ---    0.18547   0.34485   0.34492   0.34717   0.42078
     Eigenvalues ---    0.43801   0.43943   0.45848   0.49756
 RFO step:  Lambda=-5.21710344D-04 EMin= 2.29566042D-03
 Quartic linear search produced a step of -0.67414.
 Iteration  1 RMS(Cart)=  0.11619659 RMS(Int)=  0.02084142
 Iteration  2 RMS(Cart)=  0.06197947 RMS(Int)=  0.00185990
 Iteration  3 RMS(Cart)=  0.00313302 RMS(Int)=  0.00093913
 Iteration  4 RMS(Cart)=  0.00000104 RMS(Int)=  0.00093913
 Iteration  5 RMS(Cart)=  0.00000000 RMS(Int)=  0.00093913
 Variable       Old X    -DE/DX   Delta X   Delta X   Delta X     New X
                                 (Linear)    (Quad)   (Total)
    R1        1.84011   0.00189   0.00758  -0.00298   0.00461   1.84472
    R2        2.68712  -0.00910  -0.00196  -0.01003  -0.01200   2.67512
    R3        3.57592   0.00256  -0.05993   0.06909   0.00916   3.58508
    R4        2.04682   0.00352   0.00447   0.00328   0.00774   2.05456
    R5        2.06682   0.00019  -0.00060   0.00053  -0.00006   2.06677
    R6        2.06686   0.00005  -0.00062   0.00047  -0.00015   2.06671
    R7        1.90582   0.00428   0.00911  -0.00181   0.00730   1.91312
    R8        1.90601   0.00432   0.00895  -0.00153   0.00741   1.91342
    R9        1.90561   0.00363   0.00821  -0.00139   0.00682   1.91242
    A1        1.89549  -0.00550  -0.01960   0.01103  -0.00857   1.88692
    A2        1.85415   0.00357   0.01043   0.01324   0.02373   1.87788
    A3        1.99350  -0.00639  -0.02113  -0.01144  -0.03277   1.96073
    A4        1.99309  -0.00601  -0.02090  -0.01109  -0.03217   1.96092
    A5        1.87088   0.00276   0.01001   0.00592   0.01599   1.88687
    A6        1.87092   0.00270   0.00997   0.00594   0.01598   1.88690
    A7        1.87399   0.00438   0.01451  -0.00023   0.01392   1.88791
    A8        1.82296   0.00172   0.00526  -0.00429  -0.00021   1.82275
    A9        1.82313  -0.00015   0.00993  -0.00837   0.00314   1.82627
   A10        2.21317  -0.00262   0.01669  -0.01934  -0.00286   2.21031
   A11        1.85752   0.00058  -0.01124   0.01267   0.00263   1.86016
   A12        1.86776  -0.00027  -0.01637   0.01166  -0.00688   1.86088
   A13        1.85456   0.00117  -0.00896   0.01259   0.00524   1.85980
   A14        2.94307   0.00485   0.30852  -0.00279   0.30596   3.24903
   A15        3.18461  -0.00007   0.05439  -0.12867  -0.07492   3.10968
    D1        2.19336  -0.00037   0.01394  -0.01554   0.00098   2.19434
    D2       -2.11808   0.00016  -0.03432   0.00318  -0.03115  -2.14923
    D3       -0.00591   0.00054   0.02994   0.02524   0.05269   0.04678
    D4       -3.14089  -0.00010  -0.00041  -0.00076  -0.00117   3.14113
    D5        1.08382  -0.00225  -0.00741  -0.01036  -0.01744   1.06639
    D6       -1.08260   0.00219   0.00669   0.00906   0.01544  -1.06716
         Item               Value     Threshold  Converged?
 Maximum Force            0.009097     0.000450     NO 
 RMS     Force            0.003440     0.000300     NO 
 Maximum Displacement     0.443032     0.001800     NO 
 RMS     Displacement     0.172322     0.001200     NO 
 Predicted change in Energy=-4.660456D-04
 GradGradGradGradGradGradGradGradGradGradGradGradGradGradGradGradGradGrad

                          Input orientation:                          
 ---------------------------------------------------------------------
 Center     Atomic      Atomic             Coordinates (Angstroms)
 Number     Number       Type             X           Y           Z
 ---------------------------------------------------------------------
      1          8           0       -1.160430    2.360345    0.193275
      2          1           0       -0.237956    2.121500   -0.018691
      3          6           0       -1.839521    2.615109   -1.022408
      4          1           0       -2.865089    2.879578   -0.776789
      5          1           0       -1.861790    1.739643   -1.677551
      6          1           0       -1.398030    3.446519   -1.579117
      7          7           0        1.610353    1.769588   -0.261723
      8          1           0        2.075826    2.440346    0.336889
      9          1           0        1.754775    0.859254    0.157407
     10          1           0        2.114250    1.766254   -1.139356
 ---------------------------------------------------------------------
                    Distance matrix (angstroms):
                    1          2          3          4          5
     1  O    0.000000
     2  H    0.976184   0.000000
     3  C    1.415611   1.953486   0.000000
     4  H    2.028913   2.837468   1.087226   0.000000
     5  H    2.092168   2.352545   1.093685   1.765625   0.000000
     6  H    2.092272   2.352951   1.093656   1.765620   1.771493
     7  N    2.869365   1.897143   3.632517   4.639714   3.749832
     8  H    3.240428   2.362559   4.148273   5.083880   4.478143
     9  H    3.279173   2.365428   4.170605   5.128115   4.149903
    10  H    3.585021   2.629631   4.045558   5.115150   4.012387
                    6          7          8          9         10
     6  H    0.000000
     7  N    3.687546   0.000000
     8  H    4.092815   1.012382   0.000000
     9  H    4.432791   1.012539   1.623311   0.000000
    10  H    3.918264   1.012009   1.623322   1.622795   0.000000
 Stoichiometry    CH7NO
 Framework group  C1[X(CH7NO)]
 Deg. of freedom    24
 Full point group                 C1      NOp   1
 Largest Abelian subgroup         C1      NOp   1
 Largest concise Abelian subgroup C1      NOp   1
                         Standard orientation:                         
 ---------------------------------------------------------------------
 Center     Atomic      Atomic             Coordinates (Angstroms)
 Number     Number       Type             X           Y           Z
 ---------------------------------------------------------------------
      1          8           0        0.742872   -0.701463   -0.003105
      2          1           0       -0.171605   -0.363158    0.043978
      3          6           0        1.623000    0.407283    0.000123
      4          1           0        2.638059    0.021281   -0.052016
      5          1           0        1.533504    1.006483    0.910671
      6          1           0        1.465253    1.066037   -0.858504
      7          7           0       -1.999799    0.141748    0.000041
      8          1           0       -2.376565   -0.344149   -0.804240
      9          1           0       -2.405759   -0.295564    0.818081
     10          1           0       -2.365267    1.084842   -0.034154
 ---------------------------------------------------------------------
 Rotational constants (GHZ):          30.4220544           3.9460391           3.6394106
 Standard basis: Aug-CC-pVTZ (5D, 7F)
 There are   340 symmetry adapted cartesian basis functions of A   symmetry.
 There are   299 symmetry adapted basis functions of A   symmetry.
   299 basis functions,   405 primitive gaussians,   340 cartesian basis functions
    14 alpha electrons       14 beta electrons
       nuclear repulsion energy        81.2554733875 Hartrees.
 NAtoms=   10 NActive=   10 NUniq=   10 SFac= 1.00D+00 NAtFMM=   60 NAOKFM=F Big=F
 Integral buffers will be    131072 words long.
 Raffenetti 1 integral format.
 Two-electron integral symmetry is turned on.
 One-electron integrals computed using PRISM.
 NBasis=   299 RedAO= T EigKep=  4.91D-05  NBF=   299
 NBsUse=   299 1.00D-06 EigRej= -1.00D+00 NBFU=   299
 Lowest energy guess from the checkpoint file:  "/tmp/Gau-26178.chk"
 B after Tr=    -0.000000    0.000000   -0.000000
         Rot=    0.999974   -0.003210   -0.000232   -0.006451 Ang=  -0.83 deg.
 B after Tr=    -0.000000   -0.000000   -0.000000
         Rot=    0.999918   -0.010091   -0.001096    0.007783 Ang=  -1.47 deg.
 Keep R1 ints in memory in canonical form, NReq=1025610888.
 Requested convergence on RMS density matrix=1.00D-08 within 128 cycles.
 Requested convergence on MAX density matrix=1.00D-06.
 Requested convergence on             energy=1.00D-06.
 No special actions if energy rises.
 SCF Done:  E(RHF) =  -171.318079236     A.U. after   10 cycles
            NFock= 10  Conv=0.25D-08     -V/T= 2.0014
 ExpMin= 2.53D-02 ExpMax= 1.53D+04 ExpMxC= 5.22D+02 IAcc=3 IRadAn=         5 AccDes= 0.00D+00
 HarFok:  IExCor=  205 AccDes= 0.00D+00 IRadAn=         5 IDoV=-2 UseB2=F ITyADJ=14
 ICtDFT= 12500011 ScaDFX=  1.000000  1.000000  1.000000  1.000000
 Range of M.O.s used for correlation:     4   299
 NBasis=   299 NAE=    14 NBE=    14 NFC=     3 NFV=     0
 NROrb=    296 NOA=    11 NOB=    11 NVA=   285 NVB=   285

 **** Warning!!: The largest alpha MO coefficient is  0.36794030D+02

 Disk-based method using ON**2 memory for 11 occupieds at a time.
 Estimated scratch disk usage=   808376860 words.
 Actual    scratch disk usage=   739823644 words.
 JobTyp=1 Pass  1:  I=   4 to  14 NPSUse= 28 ParTrn=T ParDer=T DoDerP=T.
 (rs|ai) integrals will be sorted in core.
 Spin components of T(2) and E(2):
     alpha-alpha T2 =       0.2202024167D-01 E2=     -0.7791118004D-01
     alpha-beta  T2 =       0.1383894948D+00 E2=     -0.5265440741D+00
     beta-beta   T2 =       0.2202024167D-01 E2=     -0.7791118004D-01
 ANorm=    0.1087395962D+01
 E2 =    -0.6823664342D+00 EUMP2 =    -0.17200044566972D+03
          IDoAtm=1111111111
          Differentiating once with respect to electric field.
                with respect to dipole field.
          Differentiating once with respect to nuclear coordinates.
 Keep R1 ints in memory in canonical form, NReq=1025612746.
          There are     1 degrees of freedom in the 1st order CPHF.  IDoFFX=0 NUNeed=     1.
 LinEq1:  Iter=  0 NonCon=     1 RMS=2.44D-03 Max=2.98D-02 NDo=     1
 AX will form     1 AO Fock derivatives at one time.
 LinEq1:  Iter=  1 NonCon=     1 RMS=6.15D-04 Max=5.89D-03 NDo=     1
 LinEq1:  Iter=  2 NonCon=     1 RMS=2.08D-04 Max=3.63D-03 NDo=     1
 LinEq1:  Iter=  3 NonCon=     1 RMS=5.49D-05 Max=5.05D-04 NDo=     1
 LinEq1:  Iter=  4 NonCon=     1 RMS=2.05D-05 Max=2.78D-04 NDo=     1
 LinEq1:  Iter=  5 NonCon=     1 RMS=4.35D-06 Max=6.45D-05 NDo=     1
 LinEq1:  Iter=  6 NonCon=     1 RMS=1.46D-06 Max=1.38D-05 NDo=     1
 LinEq1:  Iter=  7 NonCon=     1 RMS=4.14D-07 Max=4.81D-06 NDo=     1
 LinEq1:  Iter=  8 NonCon=     1 RMS=7.74D-08 Max=1.05D-06 NDo=     1
 LinEq1:  Iter=  9 NonCon=     1 RMS=1.16D-08 Max=1.34D-07 NDo=     1
 LinEq1:  Iter= 10 NonCon=     1 RMS=2.03D-09 Max=1.84D-08 NDo=     1
 LinEq1:  Iter= 11 NonCon=     1 RMS=3.83D-10 Max=3.13D-09 NDo=     1
 LinEq1:  Iter= 12 NonCon=     0 RMS=7.15D-11 Max=6.85D-10 NDo=     1
 Linear equations converged to 1.000D-10 1.000D-09 after    12 iterations.
 End of Minotr F.D. properties file   721 does not exist.
 End of Minotr F.D. properties file   722 does not exist.
 End of Minotr F.D. properties file   788 does not exist.
 Calling FoFJK, ICntrl=  10002127 FMM=F ISym2X=0 I1Cent= 0 IOpClX= 0 NMat=1 NMatS=1 NMatT=0.
 ***** Axes restored to original set *****
 -------------------------------------------------------------------
 Center     Atomic                   Forces (Hartrees/Bohr)
 Number     Number              X              Y              Z
 -------------------------------------------------------------------
      1        8          -0.000411071   -0.000704845    0.000162567
      2        1          -0.001760599    0.001953061   -0.001487182
      3        6           0.000672319   -0.000284547   -0.000465920
      4        1          -0.000136471    0.000029616    0.000356094
      5        1           0.000111234   -0.000359328    0.000455534
      6        1           0.000394226    0.000242732    0.000500129
      7        7           0.001383353   -0.001149984    0.000638687
      8        1           0.000107624    0.000621935    0.000531347
      9        1           0.000262288   -0.000624165    0.000380111
     10        1          -0.000622903    0.000275524   -0.001071366
 -------------------------------------------------------------------
 Cartesian Forces:  Max     0.001953061 RMS     0.000776043

 GradGradGradGradGradGradGradGradGradGradGradGradGradGradGradGradGradGrad
 Berny optimization.
 Using GEDIIS/GDIIS optimizer.
 FormGI is forming the generalized inverse of G from B-inverse, IUseBI=4.
 Internal  Forces:  Max     0.001692777 RMS     0.000703419
 Search for a local minimum.
 Step number   4 out of a maximum of   40
 All quantities printed in internal units (Hartrees-Bohrs-Radians)
 Mixed Optimization -- En-DIIS/RFO-DIIS
 Update second derivatives using D2CorX and points    1    3    2    4
 DE= -4.83D-04 DEPred=-4.66D-04 R= 1.04D+00
 TightC=F SS=  1.41D+00  RLast= 2.46D-01 DXNew= 4.2426D-01 7.3803D-01
 Trust test= 1.04D+00 RLast= 2.46D-01 DXMaxT set to 4.24D-01
 ITU=  1 -1  1  0
 Use linear search instead of GDIIS.
     Eigenvalues ---    0.00230   0.00404   0.01438   0.01496   0.02479
     Eigenvalues ---    0.07593   0.10181   0.10388   0.10447   0.13448
     Eigenvalues ---    0.15999   0.16000   0.16000   0.16172   0.17498
     Eigenvalues ---    0.18466   0.34482   0.34493   0.34691   0.42009
     Eigenvalues ---    0.43801   0.43943   0.45285   0.49735
 RFO step:  Lambda=-6.21989019D-04 EMin= 2.29931539D-03
 Quartic linear search produced a step of -0.04724.
 Iteration  1 RMS(Cart)=  0.09364921 RMS(Int)=  0.02032078
 Iteration  2 RMS(Cart)=  0.04689787 RMS(Int)=  0.00130909
 Iteration  3 RMS(Cart)=  0.00182359 RMS(Int)=  0.00047653
 Iteration  4 RMS(Cart)=  0.00000111 RMS(Int)=  0.00047653
 Iteration  5 RMS(Cart)=  0.00000000 RMS(Int)=  0.00047653
 Variable       Old X    -DE/DX   Delta X   Delta X   Delta X     New X
                                 (Linear)    (Quad)   (Total)
    R1        1.84472  -0.00063   0.00031  -0.00808  -0.00776   1.83696
    R2        2.67512  -0.00128   0.00043  -0.01322  -0.01278   2.66233
    R3        3.58508   0.00120  -0.00463   0.12281   0.11817   3.70325
    R4        2.05456   0.00022  -0.00005   0.00209   0.00204   2.05660
    R5        2.06677  -0.00001  -0.00004   0.00086   0.00082   2.06759
    R6        2.06671   0.00009  -0.00004   0.00107   0.00104   2.06775
    R7        1.91312   0.00078   0.00029  -0.00432  -0.00403   1.90909
    R8        1.91342   0.00076   0.00028  -0.00400  -0.00372   1.90970
    R9        1.91242   0.00062   0.00025  -0.00391  -0.00365   1.90877
    A1        1.88692  -0.00169  -0.00097   0.00825   0.00726   1.89417
    A2        1.87788  -0.00025  -0.00039   0.00754   0.00715   1.88503
    A3        1.96073  -0.00048   0.00007  -0.00570  -0.00564   1.95509
    A4        1.96092  -0.00073   0.00005  -0.00693  -0.00690   1.95402
    A5        1.88687   0.00036  -0.00005   0.00417   0.00412   1.89099
    A6        1.88690   0.00040  -0.00006   0.00425   0.00420   1.89110
    A7        1.88791   0.00076   0.00036  -0.00247  -0.00216   1.88574
    A8        1.82275  -0.00013   0.00038  -0.01015  -0.00937   1.81338
    A9        1.82627   0.00070   0.00055  -0.00551  -0.00564   1.82063
   A10        2.21031  -0.00155   0.00130  -0.03997  -0.03910   2.17121
   A11        1.86016   0.00013  -0.00091   0.02254   0.02233   1.88248
   A12        1.86088   0.00050  -0.00082   0.01741   0.01688   1.87776
   A13        1.85980   0.00054  -0.00088   0.02503   0.02288   1.88268
   A14        3.24903  -0.00006   0.00717  -0.03822  -0.03130   3.21773
   A15        3.10968   0.00128   0.00735   0.29490   0.30244   3.41213
    D1        2.19434  -0.00024   0.00093   0.00016   0.00152   2.19586
    D2       -2.14923   0.00004  -0.00093   0.01089   0.00841  -2.14082
    D3        0.04678   0.00001  -0.00039  -0.06375  -0.06308  -0.01630
    D4        3.14113   0.00006   0.00003   0.00120   0.00122  -3.14083
    D5        1.06639   0.00006   0.00030  -0.00544  -0.00512   1.06127
    D6       -1.06716  -0.00004  -0.00026   0.00721   0.00691  -1.06026
         Item               Value     Threshold  Converged?
 Maximum Force            0.001693     0.000450     NO 
 RMS     Force            0.000703     0.000300     NO 
 Maximum Displacement     0.323095     0.001800     NO 
 RMS     Displacement     0.135721     0.001200     NO 
 Predicted change in Energy=-3.446599D-04
 GradGradGradGradGradGradGradGradGradGradGradGradGradGradGradGradGradGrad

                          Input orientation:                          
 ---------------------------------------------------------------------
 Center     Atomic      Atomic             Coordinates (Angstroms)
 Number     Number       Type             X           Y           Z
 ---------------------------------------------------------------------
      1          8           0       -1.143929    2.384911    0.153366
      2          1           0       -0.205383    2.292475   -0.082254
      3          6           0       -1.880055    2.620953   -1.024450
      4          1           0       -2.928417    2.723772   -0.750997
      5          1           0       -1.789388    1.795758   -1.737144
      6          1           0       -1.563537    3.539646   -1.527545
      7          7           0        1.667405    1.738808   -0.244897
      8          1           0        2.168002    2.405554    0.325589
      9          1           0        1.704426    0.842807    0.221003
     10          1           0        2.163264    1.653451   -1.120736
 ---------------------------------------------------------------------
                    Distance matrix (angstroms):
                    1          2          3          4          5
     1  O    0.000000
     2  H    0.972075   0.000000
     3  C    1.408846   1.949399   0.000000
     4  H    2.029062   2.836926   1.088307   0.000000
     5  H    2.082726   2.344027   1.094120   1.769486   0.000000
     6  H    2.082053   2.342837   1.094205   1.769625   1.770899
     7  N    2.911986   1.959677   3.737693   4.727353   3.765563
     8  H    3.316470   2.410825   4.272676   5.218599   4.504182
     9  H    3.239721   2.416790   4.190640   5.093726   4.116940
    10  H    3.618825   2.664072   4.158576   5.216081   4.002957
                    6          7          8          9         10
     6  H    0.000000
     7  N    3.914995   0.000000
     8  H    4.317945   1.010249   0.000000
     9  H    4.583660   1.010569   1.633407   0.000000
    10  H    4.196697   1.010076   1.630195   1.633382   0.000000
 Stoichiometry    CH7NO
 Framework group  C1[X(CH7NO)]
 Deg. of freedom    24
 Full point group                 C1      NOp   1
 Largest Abelian subgroup         C1      NOp   1
 Largest concise Abelian subgroup C1      NOp   1
                         Standard orientation:                         
 ---------------------------------------------------------------------
 Center     Atomic      Atomic             Coordinates (Angstroms)
 Number     Number       Type             X           Y           Z
 ---------------------------------------------------------------------
      1          8           0        0.741330   -0.671827    0.006991
      2          1           0       -0.148527   -0.298706   -0.110764
      3          6           0        1.674028    0.384050    0.000125
      4          1           0        2.666424   -0.042881    0.131630
      5          1           0        1.494661    1.095090    0.812127
      6          1           0        1.659177    0.936932   -0.944006
      7          7           0       -2.055597    0.138608   -0.000440
      8          1           0       -2.461378   -0.344401   -0.789520
      9          1           0       -2.369788   -0.324199    0.841191
     10          1           0       -2.426197    1.078221    0.005743
 ---------------------------------------------------------------------
 Rotational constants (GHZ):          32.2881772           3.7597012           3.5046396
 Standard basis: Aug-CC-pVTZ (5D, 7F)
 There are   340 symmetry adapted cartesian basis functions of A   symmetry.
 There are   299 symmetry adapted basis functions of A   symmetry.
   299 basis functions,   405 primitive gaussians,   340 cartesian basis functions
    14 alpha electrons       14 beta electrons
       nuclear repulsion energy        80.8234998688 Hartrees.
 NAtoms=   10 NActive=   10 NUniq=   10 SFac= 1.00D+00 NAtFMM=   60 NAOKFM=F Big=F
 Integral buffers will be    131072 words long.
 Raffenetti 1 integral format.
 Two-electron integral symmetry is turned on.
 One-electron integrals computed using PRISM.
 NBasis=   299 RedAO= T EigKep=  4.99D-05  NBF=   299
 NBsUse=   299 1.00D-06 EigRej= -1.00D+00 NBFU=   299
 Initial guess from the checkpoint file:  "/tmp/Gau-26178.chk"
 B after Tr=     0.000000    0.000000   -0.000000
         Rot=    0.999891    0.014597    0.001348    0.001984 Ang=   1.70 deg.
 ExpMin= 2.53D-02 ExpMax= 1.53D+04 ExpMxC= 5.22D+02 IAcc=3 IRadAn=         5 AccDes= 0.00D+00
 Harris functional with IExCor=  205 and IRadAn=       5 diagonalized for initial guess.
 HarFok:  IExCor=  205 AccDes= 0.00D+00 IRadAn=         5 IDoV= 1 UseB2=F ITyADJ=14
 ICtDFT=  3500011 ScaDFX=  1.000000  1.000000  1.000000  1.000000
 FoFCou: FMM=F IPFlag=           0 FMFlag=      100000 FMFlg1=           0
         NFxFlg=           0 DoJE=T BraDBF=F KetDBF=T FulRan=T
         wScrn=  0.000000 ICntrl=       500 IOpCl=  0 I1Cent=   200000004 NGrid=           0
         NMat0=    1 NMatS0=      1 NMatT0=    0 NMatD0=    1 NMtDS0=    0 NMtDT0=    0
 Petite list used in FoFCou.
 Keep R1 ints in memory in canonical form, NReq=1025610888.
 Requested convergence on RMS density matrix=1.00D-08 within 128 cycles.
 Requested convergence on MAX density matrix=1.00D-06.
 Requested convergence on             energy=1.00D-06.
 No special actions if energy rises.
 SCF Done:  E(RHF) =  -171.318908158     A.U. after   10 cycles
            NFock= 10  Conv=0.40D-08     -V/T= 2.0014
 ExpMin= 2.53D-02 ExpMax= 1.53D+04 ExpMxC= 5.22D+02 IAcc=3 IRadAn=         5 AccDes= 0.00D+00
 HarFok:  IExCor=  205 AccDes= 0.00D+00 IRadAn=         5 IDoV=-2 UseB2=F ITyADJ=14
 ICtDFT= 12500011 ScaDFX=  1.000000  1.000000  1.000000  1.000000
 Range of M.O.s used for correlation:     4   299
 NBasis=   299 NAE=    14 NBE=    14 NFC=     3 NFV=     0
 NROrb=    296 NOA=    11 NOB=    11 NVA=   285 NVB=   285

 **** Warning!!: The largest alpha MO coefficient is  0.36911798D+02

 Disk-based method using ON**2 memory for 11 occupieds at a time.
 Estimated scratch disk usage=   805206685 words.
 Actual    scratch disk usage=   737427101 words.
 JobTyp=1 Pass  1:  I=   4 to  14 NPSUse= 28 ParTrn=T ParDer=T DoDerP=T.
 (rs|ai) integrals will be sorted in core.
 Spin components of T(2) and E(2):
     alpha-alpha T2 =       0.2191560631D-01 E2=     -0.7772377285D-01
     alpha-beta  T2 =       0.1379581395D+00 E2=     -0.5258584002D+00
     beta-beta   T2 =       0.2191560631D-01 E2=     -0.7772377285D-01
 ANorm=    0.1087101353D+01
 E2 =    -0.6813059459D+00 EUMP2 =    -0.17200021410362D+03
          IDoAtm=1111111111
          Differentiating once with respect to electric field.
                with respect to dipole field.
          Differentiating once with respect to nuclear coordinates.
 Keep R1 ints in memory in canonical form, NReq=1025612746.
          There are     1 degrees of freedom in the 1st order CPHF.  IDoFFX=0 NUNeed=     1.
 LinEq1:  Iter=  0 NonCon=     1 RMS=2.42D-03 Max=2.68D-02 NDo=     1
 AX will form     1 AO Fock derivatives at one time.
 LinEq1:  Iter=  1 NonCon=     1 RMS=6.11D-04 Max=5.72D-03 NDo=     1
 LinEq1:  Iter=  2 NonCon=     1 RMS=2.06D-04 Max=3.46D-03 NDo=     1
 LinEq1:  Iter=  3 NonCon=     1 RMS=5.34D-05 Max=4.70D-04 NDo=     1
 LinEq1:  Iter=  4 NonCon=     1 RMS=1.99D-05 Max=2.30D-04 NDo=     1
 LinEq1:  Iter=  5 NonCon=     1 RMS=4.20D-06 Max=6.06D-05 NDo=     1
 LinEq1:  Iter=  6 NonCon=     1 RMS=1.40D-06 Max=1.31D-05 NDo=     1
 LinEq1:  Iter=  7 NonCon=     1 RMS=4.03D-07 Max=4.81D-06 NDo=     1
 LinEq1:  Iter=  8 NonCon=     1 RMS=7.71D-08 Max=1.13D-06 NDo=     1
 LinEq1:  Iter=  9 NonCon=     1 RMS=1.18D-08 Max=1.35D-07 NDo=     1
 LinEq1:  Iter= 10 NonCon=     1 RMS=2.17D-09 Max=2.22D-08 NDo=     1
 LinEq1:  Iter= 11 NonCon=     1 RMS=3.99D-10 Max=3.67D-09 NDo=     1
 LinEq1:  Iter= 12 NonCon=     0 RMS=7.24D-11 Max=5.78D-10 NDo=     1
 Linear equations converged to 1.000D-10 1.000D-09 after    12 iterations.
[...]
 47,-0.00004030,-0.00000907,-0.00002393,-0.00000537,0.00000516,0.000027
 12,0.00000065,0.06611947,-0.01015792,1.49678517,-0.00038993,0.00021317
 ,-0.00001772,0.00085884,-0.00022014,-0.00016679,0.00006589,-0.00003790
 ,0.00031019,-0.00003867,0.00001809,-0.00006429,0.00000343,-0.00002842,
 -0.00004516,0.00000779,0.00002795,-0.00003971,-0.25700798,-0.69109425,
 -0.55275678,0.22838198,-0.00061831,0.00011980,-0.00010127,0.00090110,-
 0.00008943,-0.00016497,0.00014696,-0.00003975,0.00038190,-0.00004881,0
 .00000950,-0.00004967,0.00000229,-0.00002114,-0.00005599,0.00002490,0.
 00000665,-0.00004006,-0.65379082,-0.49467054,-0.62902148,0.67509749,0.
 48701456,-0.00049777,0.00014086,-0.00014483,0.00079398,-0.00018780,-0.
 00006391,0.00011536,-0.00004221,0.00038784,-0.00003982,0.00001064,-0.0
 0005621,-0.00002219,-0.00003052,-0.00005197,0.00002176,0.00002936,-0.0
 0003629,-0.52707860,-0.63418629,-0.22591777,0.54051588,0.64008881,0.21
 247037,-0.00011617,-0.00009638,0.00001031,0.00038724,-0.00000654,-0.00
 006529,-0.00000752,0.00000299,0.00009897,-0.00001492,0.00000007,-0.000
 03585,-0.00001060,-0.00001431,-0.00001888,0.00000878,0.00001507,-0.000
 01030,0.23959702,0.34545558,-0.14586804,0.01335076,-0.01809977,0.00528
 934,-0.26607973,0.00081147,-0.00016692,0.00012994,-0.00126651,0.000343
 82,0.00024397,-0.00017055,0.00010165,-0.00053830,0.00006622,-0.0000240
 0,0.00008163,-0.00001819,0.00002512,0.00006323,-0.00001869,-0.00004259
 ,0.00007158,0.30390855,-1.24220025,0.63102173,0.00984375,-0.00262316,0
 .01776590,-0.31729791,1.23532757,-0.00036435,0.00007930,-0.00012571,0.
 00058630,-0.00010969,-0.00002091,0.00007867,-0.00005109,0.00029759,-0.
 00002772,0.00001198,-0.00004323,0.00000622,-0.00002620,-0.00003121,-0.
 00000819,0.00003728,-0.00003518,-0.12779623,0.62618899,0.02627825,-0.0
 0115046,-0.02215252,0.01394716,0.13448061,-0.63496480,-0.04263814,-0.0
 0017983,0.00003859,-0.00016365,0.00060651,-0.00010700,0.00000360,-0.00
 004569,-0.00000321,0.00019629,-0.00002935,0.00001176,-0.00006841,0.000
 00129,-0.00002075,-0.00002866,0.00000996,0.00002393,-0.00002746,0.0657
 0090,-0.01302723,0.63257534,0.01476789,-0.00361502,-0.01909795,0.01288
 513,0.00414185,-0.00580484,-0.09371681,-0.00005296,-0.00005663,0.00000
 837,0.00001219,0.00013663,-0.00001765,0.00002822,-0.00000131,0.0000172
 3,-0.00000087,-0.00000010,0.00000601,0.00000675,-0.00000060,0.00000427
 ,-0.00000291,0.00000339,-0.00000134,-0.00876891,0.27848493,0.00814181,
 0.00618022,0.01029349,-0.02358876,-0.00995880,0.00925875,0.03098675,0.
 01255708,-0.29811856,0.00081417,-0.00021209,0.00023867,-0.00123044,0.0
 0026955,0.00030624,-0.00017659,0.00009214,-0.00063126,0.00008002,-0.00
 002655,0.00009446,-0.00001532,0.00006038,0.00005789,-0.00004233,-0.000
 05582,0.00004867,0.58862076,0.01818870,-1.29716561,0.01341484,0.011115
 23,-0.00053440,0.00611912,-0.01387486,0.00237138,-0.60758425,-0.015556
 69,1.29521395,5.68477415,-1.49794461,-0.97289850,-1.35403943,0.2903726
 6,-1.02864194,-5.66312411,1.49859526,1.31662649,5.59459239,1.49644857,
 0.98412589,-0.27795603,-1.48149585,-0.97484287,1.34449032,-0.28437653,
 0.99106637,-1.29807991,0.27221120,-0.95940231,-0.00946929,-0.00502730,
 0.04214848,0.01818533,0.00116459,-0.03781225,-0.01198730,-0.00272953,-
 0.01538742,-0.01407631,-0.00019219,0.00969003,0.01064008,0.00311279,-0
 .00128488,0.01229549,-0.00719731,0.03957804,-0.02014617,0.00656663,-0.
 01465463,-0.00513634,0.00400150,-0.03660179,-0.00094533,0.00065914,-0.
 00301062,0.00364794,-0.00084436,-0.00081453,0.00096678,0.00004860,0.00
 343152,-0.00039737,0.00068143,0.00072532,0.00060777,-0.00170118,0.0000
 3270,0.00046799,0.00049710,0.00232001,-0.00103834,-0.00022888,-0.00152
 596,-0.00323052,0.00065742,0.00199959,0.01016525,-0.00205562,-0.003921
 30,-0.00238390,0.00030263,0.00553012,-0.00041481,0.00029112,-0.0040394
 7,0.00042942,-0.00115087,-0.00030790,0.00028129,0.00176509,0.00185385,
 0.00214204,-0.00121527,-0.00048960,-0.00038954,0.00023931,-0.00004213,
 -0.00240526,-0.00086000,0.00190597,-0.00077788,0.00110145,-0.00162160,
 -0.00152526,0.00064441,0.00184094,0.00297464,0.00012503,-0.00063274,-0
 .00047829,0.00044343,-0.00109533,-0.00055366,-0.00088696,-0.00279167,0
 .00292730,0.00136147,0.00252956,0.00085640,-0.00014731,0.00385213,0.00
 013331,0.00001395,-0.00014329,-0.00106386,-0.00031016,-0.00304726,0.00
 150258,0.00127082,0.00040869,-0.00133999,-0.00218663,0.00190243,0.0023
 4683,0.00123276,-0.00162769,-0.00058732,-0.00028197,0.00010991,0.00008
 990,-0.00014221,0.00000434,-0.00246472,0.00102368,0.00047863,0.0013569
 2,-0.00159801,0.00021436,0.00016552,-0.00090989,0.00209760,-0.00276639
 ,-0.00017931,-0.00049277,0.00039131,-0.00016020,-0.00050017,-0.0002589
 3,0.00034475,-0.00124299,0.00019137,0.00156996,-0.00243184,0.00169055,
 -0.00292095,0.00231305,0.00065236,-0.00047351,0.00342047,0.00007437,-0
 .00013182,-0.00009098,0.00011812,0.00022682,-0.00047280,-0.00076141,0.
 00102672,-0.00286780,-0.00929928,0.00285396,-0.00178310,0.03530330,-0.
 01259435,-0.00808353,-0.00212087,-0.00011273,0.00949032,-0.00190693,0.
 00064338,-0.00351250,-0.00009862,-0.00107358,-0.00183241,0.00039023,0.
 00119533,-0.00155037,0.01229408,0.00265193,0.00188587,0.00048046,-0.01
 217474,-0.01964349,0.00173403,0.00048494,0.00062747,-0.00204076,0.0003
 2101,-0.00042097,0.00072563,0.00006056,0.00009453,0.00015672,-0.000201
 05,-0.00043393,0.00057665,0.00386963,0.03064795,0.00087137,-0.00013272
 ,0.00167659,-0.01352979,0.00298357,-0.02034359,0.00170457,-0.00025227,
 -0.00119486,0.00063222,-0.00022399,0.00070967,-0.00002208,-0.00005139,
 0.00010099,-0.00001622,0.00001667,0.00014468,0.00646685,-0.00211211,0.
 03628896,-0.00085405,0.00071186,0.00009705,0.00037198,-0.00577581,-0.0
 0429512,0.00019535,0.00003218,0.00058876,-0.00005789,-0.00003441,-0.00
 015169,-0.00001656,-0.00013163,-0.00018965,-0.00001472,0.00006611,-0.0
 0006665,-0.01039032,0.00621054,0.00314832,0.00786682,0.00146304,-0.000
 78790,-0.00002775,-0.00277144,0.00308829,0.00297133,-0.00016160,0.0000
 5989,-0.00061261,0.00010505,0.00000022,0.00008756,0.00001780,0.0000555
 1,0.00010831,-0.00001110,-0.00008056,0.00009965,-0.00092298,-0.0073507
 1,-0.00764466,0.00059731,0.00370525,0.00102971,-0.00050542,-0.00013322
 ,-0.00235917,0.00243375,0.00088740,-0.00008159,0.00003151,-0.00030687,
 0.00007516,-0.00000671,0.00004658,0.00000786,0.00002459,0.00006208,-0.
 00001961,-0.00000441,0.00004809,-0.00191141,-0.00639883,-0.00286816,0.
 00167306,0.00477305,0.00113140,-0.00173924,-0.00028417,-0.00000293,0.0
 0467275,0.00602512,-0.00397154,0.00018224,-0.00023017,0.00079248,-0.00
 007583,0.00010013,-0.00017140,-0.00004202,-0.00006367,-0.00011663,0.00
 004928,0.00016971,-0.00019667,-0.01218479,-0.00523373,0.00487146,0.001
 53415,0.00065488,0.00077625,0.00658191,-0.00121606,0.00005366,-0.00003
 516,0.00277504,-0.00041369,-0.00091836,0.00008857,-0.00001786,0.000347
 41,-0.00007958,0.00002467,-0.00001796,0.00000075,-0.00003896,-0.000075
 18,-0.00000840,0.00000534,-0.00002544,0.00268653,-0.00799309,0.0047525
 1,-0.00121994,0.00069582,-0.00010483,-0.00166983,0.00673093,0.00087749
 ,0.00002770,-0.00009338,-0.00259288,-0.00112471,0.00019820,-0.00005053
 ,0.00003904,-0.00021063,0.00005280,-0.00002551,0.00003430,-0.00001999,
 -0.00000402,0.00003142,-0.00000533,-0.00002736,0.00004409,0.00120419,0
 .00549543,-0.00053375,0.00055786,-0.00018488,0.00053737,-0.00065158,-0
 .00414908,-0.00060718,-0.00127484,0.00031590,-0.00013670,0.00740910,-0
 .00250635,0.00481026,-0.00044112,0.00005357,0.00080135,-0.00025449,0.0
 0008509,-0.00036828,0.00000934,-0.00004324,-0.00016516,0.00002792,0.00
 004782,-0.00015172,-0.01198679,0.00401091,-0.00412669,0.00136523,0.001
 02905,0.00080975,0.00102155,-0.00135710,0.00062797,0.00412410,0.000481
 55,-0.00010155,0.00005530,-0.00253835,-0.00062961,-0.00136999,0.000106
 38,0.00005435,-0.00023477,0.00007334,-0.00003044,0.00009621,-0.0000006
 0,-0.00000822,0.00003811,-0.00001701,-0.00004556,0.00005189,0.00345482
 ,0.00258637,0.00266438,-0.00045623,0.00061418,-0.00024270,0.00053173,0
 .00095319,-0.00004661,-0.00163565,-0.00339271,-0.00193217,0.00047118,-
 0.00022857,0.00529834,-0.00149930,0.00132727,0.00010284,-0.00006533,0.
 00058796,-0.00015944,0.00004556,-0.00012513,-0.00003429,-0.00007911,-0
 .00012117,0.00000490,0.00009995,-0.00010695,0.00151197,0.00138279,-0.0
 1398053,-0.00136194,0.00042998,0.00059531,-0.00132945,0.00022610,0.000
 59956,-0.00210076,-0.00101182,0.01145226,0.00074629,-0.00009999,0.0000
 9958,-0.00011952,0.00002507,-0.00016783,-0.00063911,0.00007767,0.00014
 717,0.00083540,0.00008207,-0.00018017,-0.00003756,-0.00012229,0.000230
 46,0.00016241,-0.00006074,-0.00002345,-0.00038459,0.00009403,0.0001638
 9,-0.00020861,0.00001927,0.00016830,0.00006024,-0.00002578,-0.00008934
 ,-0.00021981,-0.00000159,-0.00003709,-0.00005792,-0.00001048,-0.000088
 13,0.00002561,0.00003647,-0.00018278,0.00025990,-0.00006034,0.00025167
 ,-0.00012574,0.00001741,-0.00008339,-0.00010575,0.00004993,-0.00056571
 ,-0.00008489,0.00002177,-0.00005135,0.00001383,0.00000538,-0.00000172,
 0.00023170,-0.00005527,-0.00005061,-0.00009702,0.00003046,0.00000875,0
 .00001180,-0.00000234,0.00002294,0.00000298,-0.00006010,0.00000272,0.0
 0000453,0.00002187,0.00000323,-0.00009148,0.00001978,0.00000447,0.0000
 4841,-0.00001039,0.00000040,-0.00003682,0.00000606,0.00006286,0.000105
 52,-0.00002006,-0.00001857,0.00004126,0.00000203,-0.00000062,-0.000009
 00,-0.00001194,0.00001914,0.00001585,-0.00001780,0.00000737,-0.0000134
 4,0.00000499,-0.00000589,-0.00000215,-0.00003421,0.00001029,-0.0000570
 9,-0.00000984,0.00000887,-0.00000505,0.00000983,0.00015282,0.00012450,
 0.00002189,-0.00001785,-0.00001533,0.00002412,-0.00011454,-0.00004071,
 0.00000086,-0.00006107,0.00002874,-0.00000540,-0.00000441,0.00003583,0
 .00005891,0.00013718,0.00000451,-0.00001072,-0.00001856,0.00000378,-0.
 00004677,-0.00004429,0.00006195,-0.00002555,0.00003483,-0.00000061,0.0
 0001296,0.00002306,0.00005902,0.00006023,-0.00004331,-0.00002647,0.000
 00016,-0.00000338,-0.00001028,-0.00001369,-0.00001308,-0.00006352,0.00
 002143,-0.00000846,0.00006507,0.00000524,-0.00000431,0.00000021,0.0000
 3071,0.00013921,-0.00012446,-0.00001995,-0.00001205,0.00001669,-0.0000
 0326,-0.00004279,0.00000164,-0.00004441,-0.00007094,-0.00002037,0.0000
 2926,-0.00005423,0.00002540,-0.00000258,-0.00000954,0.00000105,-0.0000
 7572,0.00014723,0.00000535,0.00000899,-0.00001804,-0.00000818,0.000003
 89,-0.00000588,0.00001413,0.00003148,-0.00005992,0.00029768,0.00020132
 ,-0.00047045,-0.00002979,-0.00049802,0.00027457,0.00003917,-0.00005081
 ,0.00027490,-0.00005797,0.00002784,-0.00006913,-0.00000839,-0.00000281
 ,-0.00002208,-0.00003474,0.00004147,-0.00005113,0.05781719,0.00018875,
 0.00106090,0.00019984,-0.00046207,-0.00208867,-0.00024519,-0.00003450,
 -0.00008290,-0.00006959,0.00002073,0.00003194,0.00002070,0.00009604,0.
 00002907,0.00007816,-0.00005864,0.00006345,-0.00005373,0.59517529,2.62
 239776,0.00009578,0.00004818,0.00079401,-0.00156310,0.00017106,-0.0007
 4616,-0.00003346,0.00004430,-0.00061726,0.00007523,-0.00002180,0.00010
 867,-0.00000038,0.00004488,0.00008974,-0.00003788,-0.00003812,0.000067
 73,1.22634674,0.05523673,0.26884484,-0.00034803,-0.00002484,0.00006381
 ,0.00020182,0.00010659,-0.00000902,0.00004623,0.00004282,0.00005463,-0
 .00000141,-0.00001181,-0.00000515,-0.00002186,-0.00002021,-0.00004315,
 0.00001178,-0.00001175,0.00001675,-0.44231392,-1.15530029,-0.97314355,
 0.43689857,0.00003086,-0.00032266,-0.00033986,0.00027002,0.00069955,0.
 00039380,0.00005530,0.00001236,0.00024223,-0.00000863,-0.00000967,-0.0
 0004827,-0.00004498,-0.00003652,-0.00006078,0.00002941,0.00000812,-0.0
 0001542,-1.14294102,-0.73209363,-1.08888375,1.14296282,0.71838154,-0.0
 0018011,-0.00040963,-0.00033594,0.00105138,0.00058256,0.00036055,0.000
 01783,0.00003131,0.00029352,-0.00004306,-0.00000538,-0.00004859,-0.000
 03978,-0.00002552,-0.00007384,0.00005555,-0.00001751,0.00000611,-0.959
 69400,-1.08396578,-0.35389432,0.95673017,1.08290393,0.36435492,-0.0002
 8180,-0.00001895,0.00018749,0.00008351,0.00021311,-0.00012582,-0.00001
 382,-0.00001688,-0.00008720,0.00000617,0.00000036,0.00001874,0.0000043
 9,0.00001102,0.00002553,0.00000041,-0.00000119,-0.00000392,0.39488002,
 0.56307161,-0.24651855,-0.00155161,-0.00067787,0.00148573,-0.39782085,
 -0.00006126,-0.00042339,0.00020216,-0.00003800,0.00090014,-0.00019047,
 -0.00002951,0.00009423,-0.00022155,0.00000204,-0.00002426,0.00003715,-
 0.00004088,0.00001025,-0.00000194,0.00002714,-0.00006656,0.00006642,0.
 54830118,-1.87281284,1.03142559,0.00502715,0.00499220,0.00196312,-0.55
 537420,1.85535928,-0.00002379,0.00041409,-0.00020728,0.00071098,-0.000
 84531,0.00016006,-0.00000668,-0.00005991,0.00024204,-0.00003421,0.0000
 2484,-0.00003598,0.00005075,-0.00000944,0.00000644,-0.00001705,0.00003
 844,-0.00005468,-0.23873523,1.02093007,0.07274127,0.00186407,0.0006591
 5,-0.00475018,0.23492993,-1.02630388,-0.06200495,0.00041527,-0.0001527
 4,0.00004036,-0.00051631,0.00023793,0.00013127,-0.00000991,0.00001326,
 -0.00018408,0.00002953,-0.00001143,0.00003914,0.00000361,0.00001392,0.
 00002062,0.00000242,-0.00001826,0.00002087,-0.01058924,-0.00269693,-0.
 00522083,0.00707845,0.00032409,0.00061629,0.00469358,0.00218632,0.0012
 6123,-0.00110736,-0.00015651,-0.00020775,-0.00001152,0.00029210,0.0004
 9933,-0.00001517,-0.00000170,-0.00001046,0.00003729,-0.00000983,-0.000
 00570,-0.00000630,-0.00000832,0.00000041,-0.00001391,0.00001237,-0.000
 00571,0.00000737,-0.00025440,-0.01650506,0.00197293,0.00722948,0.00836
 870,-0.00105709,-0.00720700,0.01197096,0.00515195,0.00010383,-0.004104
 73,-0.00004213,-0.00000655,-0.00020037,0.00006136,0.00003620,0.0001820
 6,0.00004907,-0.00002255,0.00013183,-0.00000964,0.00000485,-0.00003661
 ,-0.00002624,-0.00001411,-0.00002535,-0.00001287,0.00002655,-0.0000187
 5,-0.02785420,0.00786879,0.01261152,0.01447144,0.00514895,-0.00591226,
 0.01008807,-0.00697659,-0.00609675,0.00327512,-0.00606555,-0.00063532,
 0.00108584,-0.00010734,0.00046380,-0.00024452,0.00007727,0.00005239,-0
 .00108595,0.00014524,0.00020401,0.00129177,0.00015259,-0.00031000,-0.0
 0004924,-0.00021068,0.00025210,0.00017980,-0.00006540,-0.00017020,-0.0
 0012476,0.00003128,0.00018558,-0.00013952,-0.00000421,0.00002349,-0.00
 005372,0.00001815,-0.00001141,-0.00018243,-0.00002264,-0.00014173,-0.0
 0001717,0.00003636,0.00000687,0.00001126,0.00004378,-0.00003557,-0.000
 02124,0.00001972,-0.00001616,-0.00009578,0.00001911,0.00002017,0.00019
 780,-0.00006178,0.00020393,-0.00002466,-0.00000403,0.00000891,-0.00002
 162,0.00001162,-0.00000751,0.00026069,-0.00006495,-0.00013356,-0.00013
 035,0.00000393,-0.00001428,-0.00000304,0.00001002,0.00001264,0.0000053
 6,-0.00007345,-0.00003238,0.00002263,0.00004011,0.00003379,-0.00001775
 ,0.00000286,-0.00003143,-0.00000627,0.00000113,-0.00001778,-0.00007213
 ,0.00001485,0.00003529,0.00007222,-0.00001091,-0.00000769,0.00000356,0
 .00000750,-0.00001220,0.00000419,-0.00001007,0.00001269,-0.00000140,0.
 00000837,0.00002961,-0.00003046,0.00000708,-0.00000439,0.00000618,0.00
 002304,-0.00002576,0.00001488,0.00000683,-0.00000503,-0.00000948,-0.00
 006543,0.00015040,0.00003027,0.00002471,-0.00000665,-0.00001157,0.0000
 0532,-0.00008069,0.00002538,-0.00001888,0.00003306,-0.00000176,-0.0000
 2765,-0.00001864,-0.00004572,0.00009224,-0.00005723,0.00002856,-0.0000
 1017,-0.00000655,-0.00001057,-0.00004683,0.00003486,0.00000288,-0.0000
 1197,-0.00000803,0.00000004,0.00000253,0.00002004,0.00006220,0.0000288
 3,0.00001239,-0.00003985,0.00000882,-0.00000302,0.00001092,-0.00001196
 ,-0.00000469,-0.00003301,-0.00002612,-0.00000790,-0.00000974,-0.000014
 02,-0.00000916,0.00000641,0.00010815,0.00010605,-0.00003204,-0.0000136
 9,-0.00000368,0.00001298,-0.00001800,-0.00003933,0.00000718,-0.0000243
 0,-0.00006342,0.00003635,-0.00000031,0.00002875,0.00000055,0.00002905,
 -0.00001548,-0.00007237,-0.00005079,-0.00002866,0.00002765,-0.00000113
 ,-0.00000796,-0.00000219,-0.00000327,0.00000322,0.00000688,0.00003187,
 0.00001283,0.00038677,0.00001179,0.00001389,-0.00035702,-0.00009710,-0
 .00044220,0.00028898,-0.00009882,0.00030862,-0.00003398,0.00000780,0.0
 0001893,0.00000334,-0.00001242,-0.00003584,0.00000029,0.00001842,-0.00
 003911,-0.18332615,-0.00002129,0.00038721,-0.00009413,-0.00010135,-0.0
 0081026,0.00027338,-0.00009180,-0.00001714,-0.00002251,0.00001045,0.00
 000705,-0.00002269,0.00000083,-0.00000609,0.00000431,-0.00001638,0.000
 02309,-0.00001486,0.12915259,0.28562321,0.00007782,-0.00008614,0.00076
 640,0.00090204,-0.00002726,-0.00218695,0.00030429,-0.00006698,-0.00004
 853,-0.00006048,0.00000530,0.00011543,0.00011022,0.00006830,0.00009256
 ,0.00006914,-0.00012499,0.00008309,-1.14355928,-0.08015768,2.84853175,
 0.00014549,-0.00007456,-0.00010841,-0.00013245,0.00010757,0.00019477,-
 0.00003371,-0.00001231,-0.00005511,0.00001369,0.00000315,0.00000105,-0
 .00002689,0.00000145,-0.00000482,-0.00000549,0.00001530,0.00000357,-0.
 12938040,-0.33657590,-0.23459225,0.12361189,-0.00019424,-0.00017396,-0
 .00025626,0.00058603,0.00033724,0.00015041,0.00006671,-0.00000925,0.00
 021355,-0.00002186,-0.00000042,-0.00003466,-0.00002537,-0.00002284,-0.
 00005517,0.00001348,0.00001414,-0.00001508,-0.31735878,-0.24494778,-0.
 27319707,0.33331654,0.25138722,0.00006369,0.00005806,-0.00011588,-0.00
 029290,-0.00013807,0.00037318,-0.00003398,0.00004810,0.00000055,0.0000
 1159,-0.00000544,-0.00001614,-0.00002204,-0.00002278,-0.00001434,-0.00
 000979,0.00001400,-0.00000519,-0.22560444,-0.28205893,-0.05433837,0.23
 944469,0.28107836,0.03649573,0.00011445,-0.00009210,0.00002298,-0.0002
 4727,0.00019249,0.00008822,-0.00003601,0.00004658,-0.00012761,0.000016
 69,-0.00001345,0.00001451,-0.00001166,-0.00000340,0.00000895,-0.000016
 22,-0.00000509,0.00001744,0.14819867,0.21825243,-0.07648790,0.00705396
 ,-0.01134708,-0.00080512,-0.15583444,0.00001927,-0.00027575,0.00030490
 ,-0.00027652,0.00057961,-0.00025429,-0.00004053,0.00004659,-0.00020688
 ,0.00001272,-0.00001242,0.00004118,0.00000104,0.00002495,0.00001998,0.
 00002323,-0.00005391,0.00005515,0.19773306,-0.76763994,0.34149731,0.00
 602859,-0.00127224,0.00428470,-0.20683550,0.77713632,0.00008010,-0.000
 10282,-0.00007346,-0.00031557,0.00026641,0.00037499,-0.00007169,-0.000
 01967,-0.00005459,0.00001689,0.00000045,-0.00000738,-0.00001005,0.0000
 0078,0.00000047,-0.00000593,0.00002043,-0.00000079,-0.06850859,0.34717
 598,0.06625939,-0.00184125,-0.00702750,0.00795885,0.08006109,-0.344009
 38,-0.08431719,-0.00048887,0.00012968,0.00009992,0.00060202,-0.0001670
 8,0.00009033,-0.00016501,0.00003479,-0.00011502,-0.00001018,0.00000600
 ,-0.00000320,0.00004223,0.00003183,0.00004050,0.00001820,-0.00004063,0
 .00002119,0.16421949,-0.01060958,1.45323641,-0.00124609,-0.00503543,-0
 .01275169,0.00076184,0.00333465,-0.00940500,-0.16373362,0.00017280,0.0
 0009837,0.00003253,-0.00018191,-0.00005401,-0.00014893,0.00003861,-0.0
 0007379,0.00001791,0.00000493,0.00001637,0.00000683,0.00002331,0.00001
 098,0.00003501,-0.00001228,0.00003413,-0.00003063,-0.00935652,0.727380
 65,0.01208919,-0.00280983,-0.00531210,-0.00325799,-0.00019488,-0.00853
 320,0.00369534,0.01231577,-0.71356738,-0.00017964,0.00011562,-0.000473
 48,-0.00026955,-0.00010474,0.00145514,-0.00021822,0.00004996,-0.000054
 86,0.00003570,-0.00000303,-0.00005569,-0.00009109,-0.00002031,-0.00006
 741,-0.00007701,0.00007387,-0.00006979,1.43784803,0.01491712,-2.859274
 78,-0.00304225,-0.00085658,0.00966160,-0.00279255,-0.00173265,0.009859
 72,-1.43121343,-0.01243926,2.83901957\\@


 Some scientists claim that hydrogen, because it is so
 plentiful, is the basic building block of the universe. 
 I dispute that. I say that stupidity is far more
 abundant than hydrogen, and THAT is the basic building 
 block of the universe.
                   --Frank Zappa
 Job cpu time:      18 days  9 hours 52 minutes 53.9 seconds.
 Elapsed time:       0 days 15 hours 58 minutes 53.1 seconds.
 File lengths (MBytes):  RWF=  17119 Int=      0 D2E=      0 Chk=     54 Scr=      1
 Normal termination of Gaussian 16 at Tue Jun  7 07:51:27 2022.
