 Entering Gaussian System, Link 0=g16
 Input=meoh_h2o_mp2_opt_anharm.gjf
 Output=meoh_h2o_mp2_opt_anharm.log
 Initial command:
 /sw/contrib/gaussian/g16/A03/g16/l1.exe "/gscratch/scrubbed/gds001/Gau-20766.inp" -scrdir="/gscratch/scrubbed/gds001/"
 Entering Link 1 = /sw/contrib/gaussian/g16/A03/g16/l1.exe PID=     20767.
  
 Copyright (c) 1988,1990,1992,1993,1995,1998,2003,2009,2016,
            Gaussian, Inc.  All Rights Reserved.
  
 This is part of the Gaussian(R) 16 program.  It is based on
 the Gaussian(R) 09 system (copyright 2009, Gaussian, Inc.),
 the Gaussian(R) 03 system (copyright 2003, Gaussian, Inc.),
 the Gaussian(R) 98 system (copyright 1998, Gaussian, Inc.),
 the Gaussian(R) 94 system (copyright 1995, Gaussian, Inc.),
 the Gaussian 92(TM) system (copyright 1992, Gaussian, Inc.),
 the Gaussian 90(TM) system (copyright 1990, Gaussian, Inc.),
 the Gaussian 88(TM) system (copyright 1988, Gaussian, Inc.),
 the Gaussian 86(TM) system (copyright 1986, Carnegie Mellon
 University), and the Gaussian 82(TM) system (copyright 1983,
 Carnegie Mellon University). Gaussian is a federally registered
 trademark of Gaussian, Inc.
  
 This software contains proprietary and confidential information,
 including trade secrets, belonging to Gaussian, Inc.
  
 This software is provided under written license and may be
 used, copied, transmitted, or stored only in accord with that
 written license.
  
 The following legend is applicable only to US Government
 contracts under FAR:
  
                    RESTRICTED RIGHTS LEGEND
  
 Use, reproduction and disclosure by the US Government is
 subject to restrictions as set forth in subparagraphs (a)
 and (c) of the Commercial Computer Software - Restricted
 Rights clause in FAR 52.227-19.
  
 Gaussian, Inc.
 340 Quinnipiac St., Bldg. 40, Wallingford CT 06492
  
  
 ---------------------------------------------------------------
 Warning -- This program may not be used in any manner that
 competes with the business of Gaussian, Inc. or will provide
 assistance to any competitor of Gaussian, Inc.  The licensee
 of this program is prohibited from giving any competitor of
 Gaussian, Inc. access to this program.  By using this program,
 the user acknowledges that Gaussian, Inc. is engaged in the
 business of creating and licensing software in the field of
 computational chemistry and represents and warrants to the
 licensee that it is not a competitor of Gaussian, Inc. and that
 it will not use this program in any manner prohibited above.
 ---------------------------------------------------------------
  

 Cite this work as:
 Gaussian 16, Revision A.03,
 M. J. Frisch, G. W. Trucks, H. B. Schlegel, G. E. Scuseria, 
 M. A. Robb, J. R. Cheeseman, G. Scalmani, V. Barone, 
 G. A. Petersson, H. Nakatsuji, X. Li, M. Caricato, A. V. Marenich, 
 J. Bloino, B. G. Janesko, R. Gomperts, B. Mennucci, H. P. Hratchian, 
 J. V. Ortiz, A. F. Izmaylov, J. L. Sonnenberg, D. Williams-Young, 
 F. Ding, F. Lipparini, F. Egidi, J. Goings, B. Peng, A. Petrone, 
 T. Henderson, D. Ranasinghe, V. G. Zakrzewski, J. Gao, N. Rega, 
 G. Zheng, W. Liang, M. Hada, M. Ehara, K. Toyota, R. Fukuda, 
 J. Hasegawa, M. Ishida, T. Nakajima, Y. Honda, O. Kitao, H. Nakai, 
 T. Vreven, K. Throssell, J. A. Montgomery, Jr., J. E. Peralta, 
 F. Ogliaro, M. J. Bearpark, J. J. Heyd, E. N. Brothers, K. N. Kudin, 
 V. N. Staroverov, T. A. Keith, R. Kobayashi, J. Normand, 
 K. Raghavachari, A. P. Rendell, J. C. Burant, S. S. Iyengar, 
 J. Tomasi, M. Cossi, J. M. Millam, M. Klene, C. Adamo, R. Cammi, 
 J. W. Ochterski, R. L. Martin, K. Morokuma, O. Farkas, 
 J. B. Foresman, and D. J. Fox, Gaussian, Inc., Wallingford CT, 2016.
 
 ******************************************
 Gaussian 16:  ES64L-G16RevA.03 25-Dec-2016
                 6-Aug-2020 
 ******************************************
 %nprocshared=28
 Will use up to   28 processors via shared memory.
 %mem=41GB
 %chk=meoh_h2o
 ---------------------------------------------
 # MP2/aug-cc-pVDZ Opt Freq(vibrot,anharmonic)
 ---------------------------------------------
 1/18=20,19=15,38=1,80=1/1,3;
 2/9=110,12=2,17=6,18=5,40=1/2;
 3/5=16,7=10,11=9,25=1,30=1,71=1/1,2,3;
 4//1;
 5/5=2,38=5/2;
 8/6=4,10=1/1;
 9/15=2,16=-3/6;
 10/5=1/2;
 6/7=2,8=2,9=2,10=2/1;
 7/12=2/1,2,3,16;
 1/18=20,19=15,80=1/3(2);
 2/9=110/2;
 99//99;
 2/9=110/2;
 3/5=16,7=10,11=9,25=1,30=1,71=1/1,2,3;
 4/5=5,16=3,69=1/1;
 5/5=2,38=5/2;
 8/6=4,10=1/1;
 9/15=2,16=-3/6;
 10/5=1/2;
 7/12=2/1,2,3,16;
 1/18=20,19=15,80=1/3(-8);
 2/9=110/2;
 6/7=2,8=2,9=2,10=2/1;
 99//99;
 --------
 meoh_h2o
 --------
 Symbolic Z-matrix:
 Charge =  0 Multiplicity = 1
 O                    -1.9512    0.50005   2.48966 
 H                    -1.70479  -0.34953   2.8929 
 H                    -2.89206   0.37689   2.27819 
 O                    -0.76899   2.91365   3.06793 
 C                     0.01442   3.24603   1.9372 
 H                    -1.19321   2.0492    2.86188 
 H                     0.50929   4.20337   2.11665 
 H                    -0.62948   3.33069   1.05832 
 H                     0.7697    2.47297   1.77557 
 
 Add virtual bond connecting atoms H6         and O1         Dist= 3.33D+00.

 GradGradGradGradGradGradGradGradGradGradGradGradGradGradGradGradGradGrad
 Berny optimization.
 Initialization pass.
                           ----------------------------
                           !    Initial Parameters    !
                           ! (Angstroms and Degrees)  !
 --------------------------                            --------------------------
 ! Name  Definition              Value          Derivative Info.                !
 --------------------------------------------------------------------------------
 ! R1    R(1,2)                  0.9722         estimate D2E/DX2                !
 ! R2    R(1,3)                  0.9722         estimate D2E/DX2                !
 ! R3    R(1,6)                  1.7644         estimate D2E/DX2                !
 ! R4    R(4,5)                  1.4152         estimate D2E/DX2                !
 ! R5    R(4,6)                  0.9847         estimate D2E/DX2                !
 ! R6    R(5,7)                  1.0925         estimate D2E/DX2                !
 ! R7    R(5,8)                  1.0928         estimate D2E/DX2                !
 ! R8    R(5,9)                  1.0928         estimate D2E/DX2                !
 ! A1    A(2,1,3)              102.9921         estimate D2E/DX2                !
 ! A2    A(2,1,6)              124.8142         estimate D2E/DX2                !
 ! A3    A(3,1,6)              124.9526         estimate D2E/DX2                !
 ! A4    A(5,4,6)              106.1094         estimate D2E/DX2                !
 ! A5    A(4,5,7)              108.9843         estimate D2E/DX2                !
 ! A6    A(4,5,8)              109.5489         estimate D2E/DX2                !
 ! A7    A(4,5,9)              109.5492         estimate D2E/DX2                !
 ! A8    A(7,5,8)              109.3366         estimate D2E/DX2                !
 ! A9    A(7,5,9)              109.3366         estimate D2E/DX2                !
 ! A10   A(8,5,9)              110.0658         estimate D2E/DX2                !
 ! A11   L(1,6,4,9,-1)         179.8846         estimate D2E/DX2                !
 ! A12   L(1,6,4,9,-2)         179.9613         estimate D2E/DX2                !
 ! D1    D(2,1,3,6)            151.1786         estimate D2E/DX2                !
 ! D2    D(2,1,4,5)            107.6054         estimate D2E/DX2                !
 ! D3    D(3,1,4,5)           -107.2381         estimate D2E/DX2                !
 ! D4    D(6,4,5,7)           -179.9967         estimate D2E/DX2                !
 ! D5    D(6,4,5,8)             60.4167         estimate D2E/DX2                !
 ! D6    D(6,4,5,9)            -60.4099         estimate D2E/DX2                !
 --------------------------------------------------------------------------------
 Trust Radius=3.00D-01 FncErr=1.00D-07 GrdErr=1.00D-07 EigMax=2.50D+02 EigMin=1.00D-04
 Number of steps in this run=     36 maximum allowed number of steps=    100.
 GradGradGradGradGradGradGradGradGradGradGradGradGradGradGradGradGradGrad

                          Input orientation:                          
 ---------------------------------------------------------------------
 Center     Atomic      Atomic             Coordinates (Angstroms)
 Number     Number       Type             X           Y           Z
 ---------------------------------------------------------------------
      1          8           0       -1.951196    0.500053    2.489659
      2          1           0       -1.704786   -0.349533    2.892895
      3          1           0       -2.892056    0.376894    2.278188
      4          8           0       -0.768986    2.913648    3.067931
      5          6           0        0.014418    3.246031    1.937196
      6          1           0       -1.193213    2.049201    2.861881
      7          1           0        0.509292    4.203371    2.116655
      8          1           0       -0.629482    3.330692    1.058322
      9          1           0        0.769696    2.472967    1.775575
 ---------------------------------------------------------------------
                    Distance matrix (angstroms):
                    1          2          3          4          5
     1  O    0.000000
     2  H    0.972170   0.000000
     3  H    0.972165   1.521568   0.000000
     4  O    2.749084   3.399223   3.400918   0.000000
     5  C    3.421878   4.098427   4.098269   1.415189   0.000000
     6  H    1.764354   2.452875   2.454256   0.984731   1.935412
     7  H    4.461804   5.121877   5.122224   2.049952   1.092522
     8  H    3.436302   4.250411   3.915640   2.057162   1.092792
     9  H    3.435922   3.916373   4.249067   2.057165   1.092792
                    6          7          8          9
     6  H    0.000000
     7  H    2.845054   0.000000
     8  H    2.283164   1.782818   0.000000
     9  H    2.283124   1.782819   1.791045   0.000000
 Stoichiometry    CH6O2
 Framework group  C1[X(CH6O2)]
 Deg. of freedom    21
 Full point group                 C1      NOp   1
 Largest Abelian subgroup         C1      NOp   1
 Largest concise Abelian subgroup C1      NOp   1
                         Standard orientation:                         
 ---------------------------------------------------------------------
 Center     Atomic      Atomic             Coordinates (Angstroms)
 Number     Number       Type             X           Y           Z
 ---------------------------------------------------------------------
      1          8           0       -1.879060   -0.156430    0.000158
      2          1           0       -2.482342   -0.106098    0.760837
      3          1           0       -2.482629   -0.113076   -0.760716
      4          8           0        0.723475    0.729163   -0.000602
      5          6           0        1.531659   -0.432559    0.000359
      6          1           0       -0.209184    0.413185   -0.000538
      7          1           0        2.582690   -0.134333    0.000388
      8          1           0        1.323290   -1.023700   -0.894811
      9          1           0        1.322900   -1.022493    0.896234
 ---------------------------------------------------------------------
 Rotational constants (GHZ):          31.3780193           4.2624835           3.9144987
 Standard basis: Aug-CC-pVDZ (5D, 7F)
 There are   129 symmetry adapted cartesian basis functions of A   symmetry.
 There are   123 symmetry adapted basis functions of A   symmetry.
   123 basis functions,   195 primitive gaussians,   129 cartesian basis functions
    14 alpha electrons       14 beta electrons
       nuclear repulsion energy        80.1334221225 Hartrees.
 NAtoms=    9 NActive=    9 NUniq=    9 SFac= 1.00D+00 NAtFMM=   60 NAOKFM=F Big=F
 Integral buffers will be    131072 words long.
 Raffenetti 1 integral format.
 Two-electron integral symmetry is turned on.
 One-electron integrals computed using PRISM.
 NBasis=   123 RedAO= T EigKep=  5.08D-04  NBF=   123
 NBsUse=   123 1.00D-06 EigRej= -1.00D+00 NBFU=   123
 ExpMin= 2.97D-02 ExpMax= 1.17D+04 ExpMxC= 4.01D+02 IAcc=3 IRadAn=         5 AccDes= 0.00D+00
 Harris functional with IExCor=  205 and IRadAn=       5 diagonalized for initial guess.
 HarFok:  IExCor=  205 AccDes= 0.00D+00 IRadAn=         5 IDoV= 1 UseB2=F ITyADJ=14
 ICtDFT=  3500011 ScaDFX=  1.000000  1.000000  1.000000  1.000000
 FoFCou: FMM=F IPFlag=           0 FMFlag=      100000 FMFlg1=           0
         NFxFlg=           0 DoJE=T BraDBF=F KetDBF=T FulRan=T
         wScrn=  0.000000 ICntrl=       500 IOpCl=  0 I1Cent=   200000004 NGrid=           0
         NMat0=    1 NMatS0=      1 NMatT0=    0 NMatD0=    1 NMtDS0=    0 NMtDT0=    0
 Petite list used in FoFCou.
 Keep R1 ints in memory in canonical form, NReq=35082170.
 Requested convergence on RMS density matrix=1.00D-08 within 128 cycles.
 Requested convergence on MAX density matrix=1.00D-06.
 Requested convergence on             energy=1.00D-06.
 No special actions if energy rises.
 SCF Done:  E(RHF) =  -191.103771828     A.U. after   11 cycles
            NFock= 11  Conv=0.55D-08     -V/T= 2.0017
 ExpMin= 2.97D-02 ExpMax= 1.17D+04 ExpMxC= 4.01D+02 IAcc=3 IRadAn=         5 AccDes= 0.00D+00
 HarFok:  IExCor=  205 AccDes= 0.00D+00 IRadAn=         5 IDoV=-2 UseB2=F ITyADJ=14
 ICtDFT= 12500011 ScaDFX=  1.000000  1.000000  1.000000  1.000000
 Range of M.O.s used for correlation:     4   123
 NBasis=   123 NAE=    14 NBE=    14 NFC=     3 NFV=     0
 NROrb=    120 NOA=    11 NOB=    11 NVA=   109 NVB=   109

 **** Warning!!: The largest alpha MO coefficient is  0.16475509D+02

 Fully direct method using O(ONN) memory.
 JobTyp=1 Pass  1:  I=   4 to  14 NPSUse= 28 ParTrn=T ParDer=T DoDerP=T.
 Spin components of T(2) and E(2):
     alpha-alpha T2 =       0.2106238685D-01 E2=     -0.7218024536D-01
     alpha-beta  T2 =       0.1249600009D+00 E2=     -0.4409422998D+00
     beta-beta   T2 =       0.2106238685D-01 E2=     -0.7218024536D-01
 ANorm=    0.1080316979D+01
 E2 =    -0.5853027905D+00 EUMP2 =    -0.19168907461805D+03
          IDoAtm=111111111
          Differentiating once with respect to electric field.
                with respect to dipole field.
          Differentiating once with respect to nuclear coordinates.
 Keep R1 ints in memory in canonical form, NReq=35086460.
          There are     1 degrees of freedom in the 1st order CPHF.  IDoFFX=0 NUNeed=     1.
 LinEq1:  Iter=  0 NonCon=     1 RMS=4.54D-03 Max=5.19D-02 NDo=     1
 AX will form     1 AO Fock derivatives at one time.
 LinEq1:  Iter=  1 NonCon=     1 RMS=1.03D-03 Max=7.79D-03 NDo=     1
 LinEq1:  Iter=  2 NonCon=     1 RMS=3.49D-04 Max=3.43D-03 NDo=     1
 LinEq1:  Iter=  3 NonCon=     1 RMS=6.20D-05 Max=4.53D-04 NDo=     1
 LinEq1:  Iter=  4 NonCon=     1 RMS=2.27D-05 Max=1.66D-04 NDo=     1
 LinEq1:  Iter=  5 NonCon=     1 RMS=5.19D-06 Max=4.39D-05 NDo=     1
 LinEq1:  Iter=  6 NonCon=     1 RMS=1.92D-06 Max=1.43D-05 NDo=     1
 LinEq1:  Iter=  7 NonCon=     1 RMS=4.49D-07 Max=3.88D-06 NDo=     1
 LinEq1:  Iter=  8 NonCon=     1 RMS=7.88D-08 Max=5.39D-07 NDo=     1
 LinEq1:  Iter=  9 NonCon=     1 RMS=1.18D-08 Max=1.05D-07 NDo=     1
 LinEq1:  Iter= 10 NonCon=     1 RMS=1.74D-09 Max=1.06D-08 NDo=     1
 LinEq1:  Iter= 11 NonCon=     1 RMS=2.86D-10 Max=2.18D-09 NDo=     1
 LinEq1:  Iter= 12 NonCon=     0 RMS=5.77D-11 Max=4.81D-10 NDo=     1
 Linear equations converged to 1.000D-10 1.000D-09 after    12 iterations.
 End of Minotr F.D. properties file   721 does not exist.
 End of Minotr F.D. properties file   722 does not exist.
 End of Minotr F.D. properties file   788 does not exist.

 **********************************************************************

            Population analysis using the SCF density.

 **********************************************************************

 Orbital symmetries:
       Occupied  (A) (A) (A) (A) (A) (A) (A) (A) (A) (A) (A) (A)
                 (A) (A)
       Virtual   (A) (A) (A) (A) (A) (A) (A) (A) (A) (A) (A) (A)
                 (A) (A) (A) (A) (A) (A) (A) (A) (A) (A) (A) (A)
                 (A) (A) (A) (A) (A) (A) (A) (A) (A) (A) (A) (A)
                 (A) (A) (A) (A) (A) (A) (A) (A) (A) (A) (A) (A)
                 (A) (A) (A) (A) (A) (A) (A) (A) (A) (A) (A) (A)
                 (A) (A) (A) (A) (A) (A) (A) (A) (A) (A) (A) (A)
                 (A) (A) (A) (A) (A) (A) (A) (A) (A) (A) (A) (A)
                 (A) (A) (A) (A) (A) (A) (A) (A) (A) (A) (A) (A)
                 (A) (A) (A) (A) (A) (A) (A) (A) (A) (A) (A) (A)
                 (A)
 The electronic state is 1-A.
 Alpha  occ. eigenvalues --  -20.61109 -20.52875 -11.25595  -1.38571  -1.32357
 Alpha  occ. eigenvalues --   -0.89786  -0.74060  -0.68270  -0.60773  -0.59689
 Alpha  occ. eigenvalues --   -0.56749  -0.54114  -0.46968  -0.41658
 Alpha virt. eigenvalues --    0.02473   0.04991   0.05030   0.06973   0.07447
 Alpha virt. eigenvalues --    0.08323   0.12908   0.16184   0.16282   0.18045
 Alpha virt. eigenvalues --    0.19198   0.21225   0.21684   0.23132   0.25204
 Alpha virt. eigenvalues --    0.26096   0.28230   0.28865   0.31563   0.34301
 Alpha virt. eigenvalues --    0.34550   0.36550   0.37296   0.40564   0.42340
 Alpha virt. eigenvalues --    0.42470   0.43142   0.48235   0.48311   0.50790
 Alpha virt. eigenvalues --    0.51715   0.52693   0.54828   0.55351   0.57144
 Alpha virt. eigenvalues --    0.58834   0.61173   0.63916   0.64040   0.64329
 Alpha virt. eigenvalues --    0.66386   0.68927   0.69782   0.71187   0.74869
 Alpha virt. eigenvalues --    0.78250   0.79256   0.83320   0.91007   0.94430
 Alpha virt. eigenvalues --    0.99563   1.00487   1.02472   1.09885   1.13397
 Alpha virt. eigenvalues --    1.13596   1.18805   1.22612   1.26107   1.27524
 Alpha virt. eigenvalues --    1.33572   1.41127   1.43596   1.45084   1.54513
 Alpha virt. eigenvalues --    1.57914   1.61470   1.66387   1.75076   1.79257
 Alpha virt. eigenvalues --    1.82447   1.84897   1.90220   1.93906   1.97675
 Alpha virt. eigenvalues --    2.02644   2.05948   2.11076   2.14767   2.18055
 Alpha virt. eigenvalues --    2.18357   2.21582   2.26278   2.32491   2.34665
 Alpha virt. eigenvalues --    2.44559   2.44916   2.47554   2.58963   2.65256
 Alpha virt. eigenvalues --    2.72321   2.79838   2.81484   2.88920   2.95028
 Alpha virt. eigenvalues --    2.99274   3.07625   3.13441   3.23350   3.67991
 Alpha virt. eigenvalues --    3.73264   3.79142   3.79588   3.82759   3.86709
 Alpha virt. eigenvalues --    3.95371   4.05781   4.29750   4.46096
          Condensed to atoms (all electrons):
               1          2          3          4          5          6
     1  O    7.846460   0.356140   0.356064  -0.051124  -0.000543  -0.060397
     2  H    0.356140   0.487219  -0.038441  -0.000210   0.001009  -0.001967
     3  H    0.356064  -0.038441   0.487166  -0.000190   0.000995  -0.001940
     4  O   -0.051124  -0.000210  -0.000190   8.445845   0.076615   0.296627
     5  C   -0.000543   0.001009   0.000995   0.076615   3.878583  -0.021087
     6  H   -0.060397  -0.001967  -0.001940   0.296627  -0.021087   0.530823
     7  H   -0.002929   0.000152   0.000145  -0.104385   0.429397   0.020178
     8  H    0.004733  -0.000260   0.000408  -0.011006   0.368143  -0.013530
     9  H    0.004739   0.000406  -0.000251  -0.011027   0.368148  -0.013583
               7          8          9
     1  O   -0.002929   0.004733   0.004739
     2  H    0.000152  -0.000260   0.000406
     3  H    0.000145   0.000408  -0.000251
     4  O   -0.104385  -0.011006  -0.011027
     5  C    0.429397   0.368143   0.368148
     6  H    0.020178  -0.013530  -0.013583
     7  H    1.177504  -0.159441  -0.159509
     8  H   -0.159441   1.021717  -0.080652
     9  H   -0.159509  -0.080652   1.021832
 Mulliken charges:
               1
     1  O   -0.453143
     2  H    0.195952
     3  H    0.196044
     4  O   -0.641145
     5  C    0.898740
     6  H    0.264875
     7  H   -0.201111
     8  H   -0.130110
     9  H   -0.130102
 Sum of Mulliken charges =  -0.00000
 Mulliken charges with hydrogens summed into heavy atoms:
               1
     1  O   -0.061147
     4  O   -0.376270
     5  C    0.437417
 Electronic spatial extent (au):  <R**2>=            322.2213
 Charge=             -0.0000 electrons
 Dipole moment (field-independent basis, Debye):
    X=             -3.4861    Y=             -1.6419    Z=              0.0008  Tot=              3.8534
 Quadrupole moment (field-independent basis, Debye-Ang):
   XX=             -9.2204   YY=            -23.3039   ZZ=            -18.1052
   XY=             -1.8507   XZ=              0.0030   YZ=              0.0166
 Traceless Quadrupole moment (field-independent basis, Debye-Ang):
   XX=              7.6561   YY=             -6.4274   ZZ=             -1.2287
   XY=             -1.8507   XZ=              0.0030   YZ=              0.0166
 Octapole moment (field-independent basis, Debye-Ang**2):
  XXX=            -36.0130  YYY=              0.4411  ZZZ=              0.0007  XYY=             -3.4319
  XXY=             -0.0624  XXZ=             -0.0033  XZZ=             -9.6096  YZZ=             -0.6523
  YYZ=             -0.0044  XYZ=             -0.0348
 Hexadecapole moment (field-independent basis, Debye-Ang**3):
 XXXX=           -209.4219 YYYY=            -59.2476 ZZZZ=            -26.3346 XXXY=              6.5991
 XXXZ=              0.0107 YYYX=              0.7069 YYYZ=              0.0115 ZZZX=             -0.0017
 ZZZY=              0.0187 XXYY=            -66.2748 XXZZ=            -41.8280 YYZZ=            -14.2114
 XXYZ=              0.0918 YYXZ=              0.0086 ZZXY=              1.0900
 N-N= 8.013342212252D+01 E-N=-6.119994401825D+02  KE= 1.907765358980D+02
 Calling FoFJK, ICntrl=  10002127 FMM=F ISym2X=0 I1Cent= 0 IOpClX= 0 NMat=1 NMatS=1 NMatT=0.
 ***** Axes restored to original set *****
 -------------------------------------------------------------------
 Center     Atomic                   Forces (Hartrees/Bohr)
 Number     Number              X              Y              Z
 -------------------------------------------------------------------
      1        8          -0.007788928   -0.013367311   -0.000749539
      2        1           0.001060813    0.005650806   -0.001359477
      3        1           0.004834379    0.003345402    0.000598385
      4        8          -0.009466281   -0.008139924    0.008742878
      5        6          -0.002269519   -0.002899506    0.000969021
      6        1           0.004597556    0.012434310    0.005864937
      7        1           0.001263913    0.003463784    0.001674519
      8        1           0.000024185    0.002123004   -0.009849448
      9        1           0.007743881   -0.002610566   -0.005891275
 -------------------------------------------------------------------
 Cartesian Forces:  Max     0.013367311 RMS     0.006043360

 GradGradGradGradGradGradGradGradGradGradGradGradGradGradGradGradGradGrad
 Berny optimization.
 FormGI is forming the generalized inverse of G from B-inverse, IUseBI=4.
 Internal  Forces:  Max     0.014226150 RMS     0.005444311
 Search for a local minimum.
 Step number   1 out of a maximum of   36
 All quantities printed in internal units (Hartrees-Bohrs-Radians)
 Mixed Optimization -- RFO/linear search
 Second derivative matrix not updated -- first step.
 ITU=  0
     Eigenvalues ---    0.00230   0.01081   0.01230   0.01491   0.01798
     Eigenvalues ---    0.06538   0.10392   0.10485   0.15168   0.16000
     Eigenvalues ---    0.16000   0.16000   0.16000   0.16000   0.34492
     Eigenvalues ---    0.34492   0.34523   0.43193   0.50477   0.52936
     Eigenvalues ---    0.52937
 RFO step:  Lambda=-3.18913018D-03 EMin= 2.30000000D-03
 Linear search not attempted -- first point.
 Iteration  1 RMS(Cart)=  0.04673934 RMS(Int)=  0.00128577
 Iteration  2 RMS(Cart)=  0.00102426 RMS(Int)=  0.00057767
 Iteration  3 RMS(Cart)=  0.00000187 RMS(Int)=  0.00057767
 Iteration  4 RMS(Cart)=  0.00000000 RMS(Int)=  0.00057767
 Variable       Old X    -DE/DX   Delta X   Delta X   Delta X     New X
                                 (Linear)    (Quad)   (Total)
    R1        1.83713  -0.00523   0.00000  -0.00983  -0.00983   1.82731
    R2        1.83713  -0.00523   0.00000  -0.00983  -0.00983   1.82730
    R3        3.33415   0.00497   0.00000   0.07248   0.07248   3.40663
    R4        2.67432   0.01423   0.00000   0.03269   0.03269   2.70701
    R5        1.86087  -0.00915   0.00000  -0.01802  -0.01802   1.84285
    R6        2.06457   0.00388   0.00000   0.01114   0.01114   2.07571
    R7        2.06508   0.00807   0.00000   0.02319   0.02319   2.08826
    R8        2.06508   0.00807   0.00000   0.02318   0.02318   2.08826
    A1        1.79755   0.00329   0.00000   0.02025   0.02031   1.81786
    A2        2.17842  -0.00163   0.00000  -0.01129  -0.01130   2.16712
    A3        2.18083  -0.00186   0.00000  -0.01161  -0.01157   2.16926
    A4        1.85196   0.00455   0.00000   0.02786   0.02786   1.87982
    A5        1.90214  -0.00541   0.00000  -0.03735  -0.03710   1.86503
    A6        1.91199   0.00832   0.00000   0.05313   0.05227   1.96426
    A7        1.91199   0.00832   0.00000   0.05313   0.05227   1.96426
    A8        1.90828  -0.00306   0.00000  -0.02300  -0.02276   1.88552
    A9        1.90828  -0.00306   0.00000  -0.02298  -0.02275   1.88554
   A10        1.92101  -0.00518   0.00000  -0.02340  -0.02507   1.89594
   A11        3.13958  -0.00033   0.00000  -0.03075  -0.03080   3.10878
   A12        3.14092  -0.00013   0.00000  -0.01273  -0.01275   3.12816
    D1        2.63856  -0.00056   0.00000  -0.00655  -0.00642   2.63215
    D2        1.87807  -0.00038   0.00000  -0.00823  -0.00811   1.86996
    D3       -1.87166   0.00038   0.00000   0.00774   0.00762  -1.86404
    D4       -3.14154  -0.00000   0.00000   0.00002   0.00002  -3.14152
    D5        1.05447   0.00202   0.00000   0.01884   0.02029   1.07476
    D6       -1.05435  -0.00201   0.00000  -0.01879  -0.02024  -1.07459
         Item               Value     Threshold  Converged?
 Maximum Force            0.014226     0.000450     NO 
 RMS     Force            0.005444     0.000300     NO 
 Maximum Displacement     0.086198     0.001800     NO 
 RMS     Displacement     0.046771     0.001200     NO 
 Predicted change in Energy=-1.634271D-03
 GradGradGradGradGradGradGradGradGradGradGradGradGradGradGradGradGradGrad

                          Input orientation:                          
 ---------------------------------------------------------------------
 Center     Atomic      Atomic             Coordinates (Angstroms)
 Number     Number       Type             X           Y           Z
 ---------------------------------------------------------------------
      1          8           0       -1.975496    0.469671    2.501371
      2          1           0       -1.720981   -0.371161    2.905419
      3          1           0       -2.911844    0.355891    2.288463
      4          8           0       -0.774942    2.908388    3.072276
      5          6           0        0.018894    3.246213    1.928717
      6          1           0       -1.207702    2.053517    2.890838
      7          1           0        0.499198    4.209487    2.147664
      8          1           0       -0.587394    3.366650    1.012708
      9          1           0        0.813953    2.504669    1.730848
 ---------------------------------------------------------------------
                    Distance matrix (angstroms):
                    1          2          3          4          5
     1  O    0.000000
     2  H    0.966970   0.000000
     3  H    0.966965   1.525579   0.000000
     4  O    2.777518   3.417348   3.419935   0.000000
     5  C    3.466225   4.131163   4.131901   1.432491   0.000000
     6  H    1.802710   2.478453   2.479696   0.975195   1.962840
     7  H    4.498382   5.146428   5.148323   2.042351   1.098419
     8  H    3.540541   4.340346   4.011893   2.118254   1.105062
     9  H    3.537789   4.009477   4.337020   2.118255   1.105060
                    6          7          8          9
     6  H    0.000000
     7  H    2.848512   0.000000
     8  H    2.374125   1.783026   0.000000
     9  H    2.374069   1.783033   1.795134   0.000000
 Stoichiometry    CH6O2
 Framework group  C1[X(CH6O2)]
 Deg. of freedom    21
 Full point group                 C1      NOp   1
 Largest Abelian subgroup         C1      NOp   1
 Largest concise Abelian subgroup C1      NOp   1
                         Standard orientation:                         
 ---------------------------------------------------------------------
 Center     Atomic      Atomic             Coordinates (Angstroms)
 Number     Number       Type             X           Y           Z
 ---------------------------------------------------------------------
      1          8           0       -1.906389   -0.161417    0.000135
      2          1           0       -2.498407   -0.114384    0.763242
      3          1           0       -2.499749   -0.121323   -0.762321
      4          8           0        0.722051    0.736306   -0.000461
      5          6           0        1.549159   -0.433276    0.000334
      6          1           0       -0.207691    0.442060   -0.002082
      7          1           0        2.591367   -0.086402    0.002237
      8          1           0        1.398611   -1.059257   -0.897800
      9          1           0        1.395619   -1.060156    0.897332
 ---------------------------------------------------------------------
 Rotational constants (GHZ):          30.6523956           4.1606446           3.8181970
 Standard basis: Aug-CC-pVDZ (5D, 7F)
 There are   129 symmetry adapted cartesian basis functions of A   symmetry.
 There are   123 symmetry adapted basis functions of A   symmetry.
   123 basis functions,   195 primitive gaussians,   129 cartesian basis functions
    14 alpha electrons       14 beta electrons
       nuclear repulsion energy        79.3773045051 Hartrees.
 NAtoms=    9 NActive=    9 NUniq=    9 SFac= 1.00D+00 NAtFMM=   60 NAOKFM=F Big=F
 Integral buffers will be    131072 words long.
 Raffenetti 1 integral format.
 Two-electron integral symmetry is turned on.
 One-electron integrals computed using PRISM.
 NBasis=   123 RedAO= T EigKep=  5.31D-04  NBF=   123
 NBsUse=   123 1.00D-06 EigRej= -1.00D+00 NBFU=   123
 Initial guess from the checkpoint file:  "meoh_h2o.chk"
 B after Tr=     0.000000   -0.000000    0.000000
         Rot=    0.999998   -0.000181    0.000020   -0.002179 Ang=  -0.25 deg.
 ExpMin= 2.97D-02 ExpMax= 1.17D+04 ExpMxC= 4.01D+02 IAcc=3 IRadAn=         5 AccDes= 0.00D+00
 Harris functional with IExCor=  205 and IRadAn=       5 diagonalized for initial guess.
 HarFok:  IExCor=  205 AccDes= 0.00D+00 IRadAn=         5 IDoV= 1 UseB2=F ITyADJ=14
 ICtDFT=  3500011 ScaDFX=  1.000000  1.000000  1.000000  1.000000
 FoFCou: FMM=F IPFlag=           0 FMFlag=      100000 FMFlg1=           0
         NFxFlg=           0 DoJE=T BraDBF=F KetDBF=T FulRan=T
         wScrn=  0.000000 ICntrl=       500 IOpCl=  0 I1Cent=   200000004 NGrid=           0
         NMat0=    1 NMatS0=      1 NMatT0=    0 NMatD0=    1 NMtDS0=    0 NMtDT0=    0
 Petite list used in FoFCou.
 Keep R1 ints in memory in canonical form, NReq=35081862.
 Requested convergence on RMS density matrix=1.00D-08 within 128 cycles.
 Requested convergence on MAX density matrix=1.00D-06.
 Requested convergence on             energy=1.00D-06.
 No special actions if energy rises.
 SCF Done:  E(RHF) =  -191.105247985     A.U. after   10 cycles
            NFock= 10  Conv=0.69D-08     -V/T= 2.0021
 ExpMin= 2.97D-02 ExpMax= 1.17D+04 ExpMxC= 4.01D+02 IAcc=3 IRadAn=         5 AccDes= 0.00D+00
 HarFok:  IExCor=  205 AccDes= 0.00D+00 IRadAn=         5 IDoV=-2 UseB2=F ITyADJ=14
 ICtDFT= 12500011 ScaDFX=  1.000000  1.000000  1.000000  1.000000
 Range of M.O.s used for correlation:     4   123
 NBasis=   123 NAE=    14 NBE=    14 NFC=     3 NFV=     0
 NROrb=    120 NOA=    11 NOB=    11 NVA=   109 NVB=   109

 **** Warning!!: The largest alpha MO coefficient is  0.15013971D+02

 Fully direct method using O(ONN) memory.
 JobTyp=1 Pass  1:  I=   4 to  14 NPSUse= 28 ParTrn=T ParDer=T DoDerP=T.
 Spin components of T(2) and E(2):
     alpha-alpha T2 =       0.2110083874D-01 E2=     -0.7208914716D-01
     alpha-beta  T2 =       0.1254922032D+00 E2=     -0.4411602802D+00
     beta-beta   T2 =       0.2110083874D-01 E2=     -0.7208914716D-01
 ANorm=    0.1080598853D+01
 E2 =    -0.5853385745D+00 EUMP2 =    -0.19169058655954D+03
          IDoAtm=111111111
          Differentiating once with respect to electric field.
                with respect to dipole field.
          Differentiating once with respect to nuclear coordinates.
 Keep R1 ints in memory in canonical form, NReq=35086108.
          There are     1 degrees of freedom in the 1st order CPHF.  IDoFFX=0 NUNeed=     1.
 LinEq1:  Iter=  0 NonCon=     1 RMS=4.54D-03 Max=5.27D-02 NDo=     1
 AX will form     1 AO Fock derivatives at one time.
 LinEq1:  Iter=  1 NonCon=     1 RMS=1.04D-03 Max=7.71D-03 NDo=     1
 LinEq1:  Iter=  2 NonCon=     1 RMS=3.51D-04 Max=3.69D-03 NDo=     1
 LinEq1:  Iter=  3 NonCon=     1 RMS=6.49D-05 Max=4.68D-04 NDo=     1
 LinEq1:  Iter=  4 NonCon=     1 RMS=2.42D-05 Max=1.80D-04 NDo=     1
 LinEq1:  Iter=  5 NonCon=     1 RMS=5.61D-06 Max=4.62D-05 NDo=     1
 LinEq1:  Iter=  6 NonCon=     1 RMS=2.08D-06 Max=1.47D-05 NDo=     1
 LinEq1:  Iter=  7 NonCon=     1 RMS=4.84D-07 Max=4.05D-06 NDo=     1
 LinEq1:  Iter=  8 NonCon=     1 RMS=8.38D-08 Max=6.27D-07 NDo=     1
 LinEq1:  Iter=  9 NonCon=     1 RMS=1.28D-08 Max=1.23D-07 NDo=     1
 LinEq1:  Iter= 10 NonCon=     1 RMS=1.95D-09 Max=1.16D-08 NDo=     1
 LinEq1:  Iter= 11 NonCon=     1 RMS=3.42D-10 Max=2.41D-09 NDo=     1
 LinEq1:  Iter= 12 NonCon=     0 RMS=6.97D-11 Max=5.75D-10 NDo=     1
 Linear equations converged to 1.000D-10 1.000D-09 after    12 iterations.
 End of Minotr F.D. properties file   721 does not exist.
 End of Minotr F.D. properties file   722 does not exist.
 End of Minotr F.D. properties file   788 does not exist.
 Calling FoFJK, ICntrl=  10002127 FMM=F ISym2X=0 I1Cent= 0 IOpClX= 0 NMat=1 NMatS=1 NMatT=0.
 ***** Axes restored to original set *****
 -------------------------------------------------------------------
 Center     Atomic                   Forces (Hartrees/Bohr)
 Number     Number              X              Y              Z
 -------------------------------------------------------------------
      1        8          -0.002797711   -0.005762776   -0.001438680
      2        1           0.000675979    0.001215478    0.000212688
      3        1           0.000619793    0.001239347    0.000184707
      4        8           0.001264644   -0.000536831   -0.003157390
      5        6          -0.000412033    0.000796045    0.001759965
      6        1           0.002225146    0.004180406    0.000723118
      7        1           0.000104233    0.000356035    0.000223023
      8        1          -0.000752657   -0.000795432    0.000790163
      9        1          -0.000927394   -0.000692273    0.000702405
 -------------------------------------------------------------------
 Cartesian Forces:  Max     0.005762776 RMS     0.001821594

 GradGradGradGradGradGradGradGradGradGradGradGradGradGradGradGradGradGrad
 Berny optimization.
 Using GEDIIS/GDIIS optimizer.
 FormGI is forming the generalized inverse of G from B-inverse, IUseBI=4.
 Internal  Forces:  Max     0.003955239 RMS     0.001330622
 Search for a local minimum.
 Step number   2 out of a maximum of   36
 All quantities printed in internal units (Hartrees-Bohrs-Radians)
 Mixed Optimization -- RFO/linear search
 Update second derivatives using D2CorX and points    1    2
 DE= -1.51D-03 DEPred=-1.63D-03 R= 9.25D-01
 TightC=F SS=  1.41D+00  RLast= 1.42D-01 DXNew= 5.0454D-01 4.2524D-01
 Trust test= 9.25D-01 RLast= 1.42D-01 DXMaxT set to 4.25D-01
 ITU=  1  0
 Use linear search instead of GDIIS.
     Eigenvalues ---    0.00230   0.01096   0.01230   0.01491   0.01804
     Eigenvalues ---    0.05491   0.10253   0.10521   0.14932   0.15802
     Eigenvalues ---    0.16000   0.16000   0.16000   0.18602   0.34334
     Eigenvalues ---    0.34492   0.34672   0.47457   0.49824   0.52548
     Eigenvalues ---    0.52937
 RFO step:  Lambda=-3.32908397D-04 EMin= 2.29999993D-03
 Quartic linear search produced a step of -0.03354.
 Iteration  1 RMS(Cart)=  0.01531905 RMS(Int)=  0.00007937
 Iteration  2 RMS(Cart)=  0.00007043 RMS(Int)=  0.00004051
 Iteration  3 RMS(Cart)=  0.00000001 RMS(Int)=  0.00004051
 Variable       Old X    -DE/DX   Delta X   Delta X   Delta X     New X
                                 (Linear)    (Quad)   (Total)
    R1        1.82731  -0.00079   0.00033  -0.00279  -0.00246   1.82485
    R2        1.82730  -0.00079   0.00033  -0.00278  -0.00246   1.82484
    R3        3.40663   0.00377  -0.00243   0.06515   0.06272   3.46935
    R4        2.70701  -0.00396  -0.00110  -0.00434  -0.00543   2.70158
    R5        1.84285  -0.00103   0.00060  -0.00444  -0.00384   1.83902
    R6        2.07571   0.00040  -0.00037   0.00265   0.00228   2.07799
    R7        2.08826  -0.00033  -0.00078   0.00227   0.00149   2.08975
    R8        2.08826  -0.00033  -0.00078   0.00227   0.00149   2.08975
    A1        1.81786   0.00137  -0.00068   0.00865   0.00788   1.82574
    A2        2.16712  -0.00070   0.00038  -0.00841  -0.00806   2.15906
    A3        2.16926  -0.00085   0.00039  -0.00891  -0.00859   2.16067
    A4        1.87982  -0.00088  -0.00093  -0.00151  -0.00244   1.87738
    A5        1.86503   0.00071   0.00124   0.00097   0.00221   1.86724
    A6        1.96426  -0.00162  -0.00175  -0.00361  -0.00535   1.95891
    A7        1.96426  -0.00162  -0.00175  -0.00364  -0.00538   1.95889
    A8        1.88552   0.00100   0.00076   0.00462   0.00537   1.89090
    A9        1.88554   0.00100   0.00076   0.00464   0.00539   1.89093
   A10        1.89594   0.00074   0.00084  -0.00216  -0.00130   1.89464
   A11        3.10878   0.00016   0.00103   0.00861   0.00968   3.11846
   A12        3.12816   0.00004   0.00043   0.00138   0.00183   3.12999
    D1        2.63215  -0.00044   0.00022  -0.01729  -0.01715   2.61499
    D2        1.86996   0.00004   0.00027   0.00999   0.01017   1.88012
    D3       -1.86404  -0.00004  -0.00026  -0.01047  -0.01063  -1.87466
    D4       -3.14152   0.00000  -0.00000   0.00009   0.00009  -3.14143
    D5        1.07476  -0.00075  -0.00068  -0.00412  -0.00483   1.06993
    D6       -1.07459   0.00075   0.00068   0.00431   0.00501  -1.06958
         Item               Value     Threshold  Converged?
 Maximum Force            0.003955     0.000450     NO 
 RMS     Force            0.001331     0.000300     NO 
 Maximum Displacement     0.037410     0.001800     NO 
 RMS     Displacement     0.015323     0.001200     NO 
 Predicted change in Energy=-1.701292D-04
 GradGradGradGradGradGradGradGradGradGradGradGradGradGradGradGradGradGrad

                          Input orientation:                          
 ---------------------------------------------------------------------
 Center     Atomic      Atomic             Coordinates (Angstroms)
 Number     Number       Type             X           Y           Z
 ---------------------------------------------------------------------
      1          8           0       -1.985027    0.449874    2.496030
      2          1           0       -1.730938   -0.384531    2.910420
      3          1           0       -2.923473    0.345473    2.293714
      4          8           0       -0.768548    2.915889    3.069299
      5          6           0        0.024288    3.255459    1.929166
      6          1           0       -1.197376    2.061954    2.885037
      7          1           0        0.504021    4.220548    2.147422
      8          1           0       -0.585931    3.369287    1.013972
      9          1           0        0.816669    2.509373    1.733242
 ---------------------------------------------------------------------
                    Distance matrix (angstroms):
                    1          2          3          4          5
     1  O    0.000000
     2  H    0.965667   0.000000
     3  H    0.965666   1.528192   0.000000
     4  O    2.808859   3.441541   3.442713   0.000000
     5  C    3.497140   4.158510   4.158150   1.429615   0.000000
     6  H    1.835899   2.504121   2.505071   0.973165   1.957194
     7  H    4.531542   5.175323   5.175454   2.042407   1.099626
     8  H    3.560469   4.358750   4.030545   2.112649   1.105849
     9  H    3.559899   4.031219   4.357207   2.112632   1.105847
                    6          7          8          9
     6  H    0.000000
     7  H    2.845761   0.000000
     8  H    2.363021   1.788114   0.000000
     9  H    2.362878   1.788132   1.795574   0.000000
 Stoichiometry    CH6O2
 Framework group  C1[X(CH6O2)]
 Deg. of freedom    21
 Full point group                 C1      NOp   1
 Largest Abelian subgroup         C1      NOp   1
 Largest concise Abelian subgroup C1      NOp   1
                         Standard orientation:                         
 ---------------------------------------------------------------------
 Center     Atomic      Atomic             Coordinates (Angstroms)
 Number     Number       Type             X           Y           Z
 ---------------------------------------------------------------------
      1          8           0       -1.927098   -0.161877    0.000156
      2          1           0       -2.514805   -0.101627    0.764017
      3          1           0       -2.514763   -0.107331   -0.764165
      4          8           0        0.734967    0.734279   -0.000477
      5          6           0        1.559468   -0.433624    0.000287
      6          1           0       -0.192361    0.439131   -0.000482
      7          1           0        2.603866   -0.089517    0.000458
      8          1           0        1.399445   -1.059460   -0.897278
      9          1           0        1.398859   -1.058671    0.898296
 ---------------------------------------------------------------------
 Rotational constants (GHZ):          30.7417219           4.0869036           3.7576116
 Standard basis: Aug-CC-pVDZ (5D, 7F)
 There are   129 symmetry adapted cartesian basis functions of A   symmetry.
 There are   123 symmetry adapted basis functions of A   symmetry.
   123 basis functions,   195 primitive gaussians,   129 cartesian basis functions
    14 alpha electrons       14 beta electrons
       nuclear repulsion energy        79.1427471598 Hartrees.
 NAtoms=    9 NActive=    9 NUniq=    9 SFac= 1.00D+00 NAtFMM=   60 NAOKFM=F Big=F
 Integral buffers will be    131072 words long.
 Raffenetti 1 integral format.
 Two-electron integral symmetry is turned on.
 One-electron integrals computed using PRISM.
 NBasis=   123 RedAO= T EigKep=  5.34D-04  NBF=   123
 NBsUse=   123 1.00D-06 EigRej= -1.00D+00 NBFU=   123
 Initial guess from the checkpoint file:  "meoh_h2o.chk"
 B after Tr=     0.000000    0.000000   -0.000000
         Rot=    0.999999    0.000054   -0.000014    0.001016 Ang=   0.12 deg.
 ExpMin= 2.97D-02 ExpMax= 1.17D+04 ExpMxC= 4.01D+02 IAcc=3 IRadAn=         5 AccDes= 0.00D+00
 Harris functional with IExCor=  205 and IRadAn=       5 diagonalized for initial guess.
 HarFok:  IExCor=  205 AccDes= 0.00D+00 IRadAn=         5 IDoV= 1 UseB2=F ITyADJ=14
 ICtDFT=  3500011 ScaDFX=  1.000000  1.000000  1.000000  1.000000
 FoFCou: FMM=F IPFlag=           0 FMFlag=      100000 FMFlg1=           0
         NFxFlg=           0 DoJE=T BraDBF=F KetDBF=T FulRan=T
         wScrn=  0.000000 ICntrl=       500 IOpCl=  0 I1Cent=   200000004 NGrid=           0
         NMat0=    1 NMatS0=      1 NMatT0=    0 NMatD0=    1 NMtDS0=    0 NMtDT0=    0
 Petite list used in FoFCou.
 Keep R1 ints in memory in canonical form, NReq=35081686.
 Requested convergence on RMS density matrix=1.00D-08 within 128 cycles.
 Requested convergence on MAX density matrix=1.00D-06.
 Requested convergence on             energy=1.00D-06.
 No special actions if energy rises.
 SCF Done:  E(RHF) =  -191.106039123     A.U. after    9 cycles
            NFock=  9  Conv=0.85D-08     -V/T= 2.0020
 ExpMin= 2.97D-02 ExpMax= 1.17D+04 ExpMxC= 4.01D+02 IAcc=3 IRadAn=         5 AccDes= 0.00D+00
 HarFok:  IExCor=  205 AccDes= 0.00D+00 IRadAn=         5 IDoV=-2 UseB2=F ITyADJ=14
 ICtDFT= 12500011 ScaDFX=  1.000000  1.000000  1.000000  1.000000
 Range of M.O.s used for correlation:     4   123
 NBasis=   123 NAE=    14 NBE=    14 NFC=     3 NFV=     0
 NROrb=    120 NOA=    11 NOB=    11 NVA=   109 NVB=   109

 **** Warning!!: The largest alpha MO coefficient is  0.14829627D+02

 Fully direct method using O(ONN) memory.
 JobTyp=1 Pass  1:  I=   4 to  14 NPSUse= 28 ParTrn=T ParDer=T DoDerP=T.
 Spin components of T(2) and E(2):
     alpha-alpha T2 =       0.2105316716D-01 E2=     -0.7198980855D-01
     alpha-beta  T2 =       0.1253188455D+00 E2=     -0.4408363485D+00
     beta-beta   T2 =       0.2105316716D-01 E2=     -0.7198980855D-01
 ANorm=    0.1080474516D+01
 E2 =    -0.5848159656D+00 EUMP2 =    -0.19169085508904D+03
          IDoAtm=111111111
          Differentiating once with respect to electric field.
                with respect to dipole field.
          Differentiating once with respect to nuclear coordinates.
 Keep R1 ints in memory in canonical form, NReq=35085932.
          There are     1 degrees of freedom in the 1st order CPHF.  IDoFFX=0 NUNeed=     1.
 LinEq1:  Iter=  0 NonCon=     1 RMS=4.53D-03 Max=5.32D-02 NDo=     1
 AX will form     1 AO Fock derivatives at one time.
 LinEq1:  Iter=  1 NonCon=     1 RMS=1.04D-03 Max=7.66D-03 NDo=     1
 LinEq1:  Iter=  2 NonCon=     1 RMS=3.50D-04 Max=3.63D-03 NDo=     1
 LinEq1:  Iter=  3 NonCon=     1 RMS=6.46D-05 Max=4.76D-04 NDo=     1
 LinEq1:  Iter=  4 NonCon=     1 RMS=2.39D-05 Max=1.76D-04 NDo=     1
 LinEq1:  Iter=  5 NonCon=     1 RMS=5.46D-06 Max=4.55D-05 NDo=     1
 LinEq1:  Iter=  6 NonCon=     1 RMS=2.04D-06 Max=1.45D-05 NDo=     1
 LinEq1:  Iter=  7 NonCon=     1 RMS=4.75D-07 Max=4.06D-06 NDo=     1
 LinEq1:  Iter=  8 NonCon=     1 RMS=8.22D-08 Max=6.15D-07 NDo=     1
 LinEq1:  Iter=  9 NonCon=     1 RMS=1.25D-08 Max=1.20D-07 NDo=     1
 LinEq1:  Iter= 10 NonCon=     1 RMS=1.90D-09 Max=1.13D-08 NDo=     1
 LinEq1:  Iter= 11 NonCon=     1 RMS=3.31D-10 Max=2.35D-09 NDo=     1
 LinEq1:  Iter= 12 NonCon=     0 RMS=6.73D-11 Max=5.67D-10 NDo=     1
 Linear equations converged to 1.000D-10 1.000D-09 after    12 iterations.
 End of Minotr F.D. properties file   721 does not exist.
 End of Minotr F.D. properties file   722 does not exist.
 End of Minotr F.D. properties file   788 does not exist.
 Calling FoFJK, ICntrl=  10002127 FMM=F ISym2X=0 I1Cent= 0 IOpClX= 0 NMat=1 NMatS=1 NMatT=0.
 ***** Axes restored to original set *****
 -------------------------------------------------------------------
 Center     Atomic                   Forces (Hartrees/Bohr)
 Number     Number              X              Y              Z
 -------------------------------------------------------------------
      1        8          -0.000949123   -0.002862644   -0.001553434
      2        1           0.000299445    0.000070964    0.000534554
      3        1          -0.000347838    0.000470790    0.000202203
      4        8           0.000640180    0.000055381   -0.001181538
      5        6           0.000226343    0.000430919    0.000080253
      6        1           0.001038646    0.002311327    0.000718327
      7        1          -0.000224631   -0.000523238   -0.000185421
      8        1           0.000064345   -0.000226953    0.000901575
      9        1          -0.000747367    0.000273453    0.000483481
 -------------------------------------------------------------------
 Cartesian Forces:  Max     0.002862644 RMS     0.000930077

 GradGradGradGradGradGradGradGradGradGradGradGradGradGradGradGradGradGrad
 Berny optimization.
 Using GEDIIS/GDIIS optimizer.
 FormGI is forming the generalized inverse of G from B-inverse, IUseBI=4.
 Internal  Forces:  Max     0.002638608 RMS     0.000705331
 Search for a local minimum.
 Step number   3 out of a maximum of   36
 All quantities printed in internal units (Hartrees-Bohrs-Radians)
 Mixed Optimization -- En-DIIS/RFO-DIIS
 Update second derivatives using D2CorX and points    1    2    3
 DE= -2.69D-04 DEPred=-1.70D-04 R= 1.58D+00
 TightC=F SS=  1.41D+00  RLast= 7.06D-02 DXNew= 7.1517D-01 2.1180D-01
 Trust test= 1.58D+00 RLast= 7.06D-02 DXMaxT set to 4.25D-01
 ITU=  1  1  0
 Use linear search instead of GDIIS.
     Eigenvalues ---    0.00230   0.01075   0.01231   0.01406   0.01491
     Eigenvalues ---    0.02780   0.10420   0.10518   0.15037   0.15811
     Eigenvalues ---    0.16000   0.16000   0.16114   0.17994   0.34492
     Eigenvalues ---    0.34601   0.36172   0.46338   0.50651   0.52937
     Eigenvalues ---    0.54538
 RFO step:  Lambda=-1.86167840D-04 EMin= 2.29997897D-03
 Quartic linear search produced a step of  1.63766.
 Iteration  1 RMS(Cart)=  0.03627301 RMS(Int)=  0.00063169
 Iteration  2 RMS(Cart)=  0.00042208 RMS(Int)=  0.00042630
 Iteration  3 RMS(Cart)=  0.00000031 RMS(Int)=  0.00042630
 Variable       Old X    -DE/DX   Delta X   Delta X   Delta X     New X
                                 (Linear)    (Quad)   (Total)
    R1        1.82485   0.00025  -0.00403   0.00225  -0.00178   1.82306
    R2        1.82484   0.00024  -0.00402   0.00223  -0.00179   1.82305
    R3        3.46935   0.00264   0.10271   0.05200   0.15471   3.62406
    R4        2.70158  -0.00141  -0.00890   0.00378  -0.00512   2.69646
    R5        1.83902   0.00001  -0.00628   0.00108  -0.00521   1.83381
    R6        2.07799  -0.00059   0.00373  -0.00516  -0.00142   2.07657
    R7        2.08975  -0.00081   0.00244  -0.00359  -0.00116   2.08860
    R8        2.08975  -0.00081   0.00244  -0.00360  -0.00116   2.08859
    A1        1.82574   0.00051   0.01291  -0.00738   0.00424   1.82999
    A2        2.15906  -0.00028  -0.01320  -0.00817  -0.02243   2.13663
    A3        2.16067  -0.00047  -0.01406  -0.00985  -0.02498   2.13570
    A4        1.87738  -0.00023  -0.00400   0.00423   0.00023   1.87760
    A5        1.86724   0.00041   0.00361  -0.00120   0.00241   1.86965
    A6        1.95891  -0.00063  -0.00877   0.00459  -0.00422   1.95469
    A7        1.95889  -0.00062  -0.00881   0.00469  -0.00416   1.95473
    A8        1.89090   0.00024   0.00880  -0.00497   0.00383   1.89472
    A9        1.89093   0.00024   0.00883  -0.00502   0.00380   1.89473
   A10        1.89464   0.00041  -0.00213   0.00114  -0.00106   1.89358
   A11        3.11846  -0.00010   0.01585  -0.02076  -0.00468   3.11378
   A12        3.12999  -0.00003   0.00299  -0.00572  -0.00264   3.12735
    D1        2.61499  -0.00047  -0.02809  -0.04640  -0.07450   2.54049
    D2        1.88012   0.00016   0.01665   0.02150   0.03755   1.91767
    D3       -1.87466  -0.00016  -0.01740  -0.02457  -0.04136  -1.91602
    D4       -3.14143   0.00000   0.00015  -0.00008   0.00007  -3.14136
    D5        1.06993  -0.00020  -0.00790   0.00414  -0.00371   1.06622
    D6       -1.06958   0.00020   0.00820  -0.00429   0.00386  -1.06572
         Item               Value     Threshold  Converged?
 Maximum Force            0.002639     0.000450     NO 
 RMS     Force            0.000705     0.000300     NO 
 Maximum Displacement     0.089922     0.001800     NO 
 RMS     Displacement     0.036049     0.001200     NO 
 Predicted change in Energy=-2.169197D-04
 GradGradGradGradGradGradGradGradGradGradGradGradGradGradGradGradGradGrad

                          Input orientation:                          
 ---------------------------------------------------------------------
 Center     Atomic      Atomic             Coordinates (Angstroms)
 Number     Number       Type             X           Y           Z
 ---------------------------------------------------------------------
      1          8           0       -2.003217    0.402289    2.475219
      2          1           0       -1.755537   -0.416198    2.921789
      3          1           0       -2.949274    0.315837    2.307335
      4          8           0       -0.754734    2.938096    3.067511
      5          6           0        0.036120    3.273986    1.928305
      6          1           0       -1.183140    2.086476    2.886103
      7          1           0        0.517554    4.238469    2.141657
      8          1           0       -0.577618    3.381470    1.015439
      9          1           0        0.823533    2.522899    1.734945
 ---------------------------------------------------------------------
                    Distance matrix (angstroms):
                    1          2          3          4          5
     1  O    0.000000
     2  H    0.964723   0.000000
     3  H    0.964719   1.529195   0.000000
     4  O    2.887877   3.503445   3.502872   0.000000
     5  C    3.564359   4.220723   4.219821   1.426907   0.000000
     6  H    1.917769   2.567545   2.566976   0.970410   1.952985
     7  H    4.602372   5.238461   5.237689   2.041297   1.098874
     8  H    3.610929   4.409528   4.085566   2.106882   1.105238
     9  H    3.610472   4.086378   4.408268   2.106905   1.105233
                    6          7          8          9
     6  H    0.000000
     7  H    2.842117   0.000000
     8  H    2.354368   1.789473   0.000000
     9  H    2.354223   1.789475   1.793894   0.000000
 Stoichiometry    CH6O2
 Framework group  C1[X(CH6O2)]
 Deg. of freedom    21
 Full point group                 C1      NOp   1
 Largest Abelian subgroup         C1      NOp   1
 Largest concise Abelian subgroup C1      NOp   1
                         Standard orientation:                         
 ---------------------------------------------------------------------
 Center     Atomic      Atomic             Coordinates (Angstroms)
 Number     Number       Type             X           Y           Z
 ---------------------------------------------------------------------
      1          8           0       -1.974672   -0.166841    0.000095
      2          1           0       -2.554963   -0.066800    0.764258
      3          1           0       -2.553987   -0.067827   -0.764936
      4          8           0        0.768661    0.735358   -0.000070
      5          6           0        1.579287   -0.438928    0.000057
      6          1           0       -0.159153    0.451003   -0.000115
      7          1           0        2.627331   -0.108583    0.000350
      8          1           0        1.406798   -1.061099   -0.896994
      9          1           0        1.406342   -1.061265    0.896900
 ---------------------------------------------------------------------
 Rotational constants (GHZ):          30.5340616           3.9252386           3.6175372
 Standard basis: Aug-CC-pVDZ (5D, 7F)
 There are   129 symmetry adapted cartesian basis functions of A   symmetry.
 There are   123 symmetry adapted basis functions of A   symmetry.
   123 basis functions,   195 primitive gaussians,   129 cartesian basis functions
    14 alpha electrons       14 beta electrons
       nuclear repulsion energy        78.5222589063 Hartrees.
 NAtoms=    9 NActive=    9 NUniq=    9 SFac= 1.00D+00 NAtFMM=   60 NAOKFM=F Big=F
 Integral buffers will be    131072 words long.
 Raffenetti 1 integral format.
 Two-electron integral symmetry is turned on.
 One-electron integrals computed using PRISM.
 NBasis=   123 RedAO= T EigKep=  5.37D-04  NBF=   123
 NBsUse=   123 1.00D-06 EigRej= -1.00D+00 NBFU=   123
 Initial guess from the checkpoint file:  "meoh_h2o.chk"
 B after Tr=    -0.000000   -0.000000   -0.000000
         Rot=    0.999997   -0.000409    0.000009    0.002603 Ang=  -0.30 deg.
 ExpMin= 2.97D-02 ExpMax= 1.17D+04 ExpMxC= 4.01D+02 IAcc=3 IRadAn=         5 AccDes= 0.00D+00
 Harris functional with IExCor=  205 and IRadAn=       5 diagonalized for initial guess.
 HarFok:  IExCor=  205 AccDes= 0.00D+00 IRadAn=         5 IDoV= 1 UseB2=F ITyADJ=14
 ICtDFT=  3500011 ScaDFX=  1.000000  1.000000  1.000000  1.000000
 FoFCou: FMM=F IPFlag=           0 FMFlag=      100000 FMFlg1=           0
         NFxFlg=           0 DoJE=T BraDBF=F KetDBF=T FulRan=T
         wScrn=  0.000000 ICntrl=       500 IOpCl=  0 I1Cent=   200000004 NGrid=           0
         NMat0=    1 NMatS0=      1 NMatT0=    0 NMatD0=    1 NMtDS0=    0 NMtDT0=    0
 Petite list used in FoFCou.
 Keep R1 ints in memory in canonical form, NReq=35080938.
 Requested convergence on RMS density matrix=1.00D-08 within 128 cycles.
 Requested convergence on MAX density matrix=1.00D-06.
 Requested convergence on             energy=1.00D-06.
 No special actions if energy rises.
 SCF Done:  E(RHF) =  -191.107137722     A.U. after    9 cycles
            NFock=  9  Conv=0.90D-08     -V/T= 2.0020
 ExpMin= 2.97D-02 ExpMax= 1.17D+04 ExpMxC= 4.01D+02 IAcc=3 IRadAn=         5 AccDes= 0.00D+00
 HarFok:  IExCor=  205 AccDes= 0.00D+00 IRadAn=         5 IDoV=-2 UseB2=F ITyADJ=14
 ICtDFT= 12500011 ScaDFX=  1.000000  1.000000  1.000000  1.000000
 Range of M.O.s used for correlation:     4   123
 NBasis=   123 NAE=    14 NBE=    14 NFC=     3 NFV=     0
 NROrb=    120 NOA=    11 NOB=    11 NVA=   109 NVB=   109

 **** Warning!!: The largest alpha MO coefficient is  0.14325792D+02

 Fully direct method using O(ONN) memory.
 JobTyp=1 Pass  1:  I=   4 to  14 NPSUse= 28 ParTrn=T ParDer=T DoDerP=T.
 Spin components of T(2) and E(2):
     alpha-alpha T2 =       0.2098736487D-01 E2=     -0.7182240919D-01
     alpha-beta  T2 =       0.1251110698D+00 E2=     -0.4403687067D+00
     beta-beta   T2 =       0.2098736487D-01 E2=     -0.7182240919D-01
 ANorm=    0.1080317453D+01
 E2 =    -0.5840135251D+00 EUMP2 =    -0.19169115124757D+03
          IDoAtm=111111111
          Differentiating once with respect to electric field.
                with respect to dipole field.
          Differentiating once with respect to nuclear coordinates.
 Keep R1 ints in memory in canonical form, NReq=35085096.
          There are     1 degrees of freedom in the 1st order CPHF.  IDoFFX=0 NUNeed=     1.
 LinEq1:  Iter=  0 NonCon=     1 RMS=4.51D-03 Max=5.33D-02 NDo=     1
 AX will form     1 AO Fock derivatives at one time.
 LinEq1:  Iter=  1 NonCon=     1 RMS=1.03D-03 Max=7.58D-03 NDo=     1
 LinEq1:  Iter=  2 NonCon=     1 RMS=3.49D-04 Max=3.57D-03 NDo=     1
 LinEq1:  Iter=  3 NonCon=     1 RMS=6.42D-05 Max=4.91D-04 NDo=     1
 LinEq1:  Iter=  4 NonCon=     1 RMS=2.34D-05 Max=1.69D-04 NDo=     1
 LinEq1:  Iter=  5 NonCon=     1 RMS=5.18D-06 Max=4.24D-05 NDo=     1
 LinEq1:  Iter=  6 NonCon=     1 RMS=1.95D-06 Max=1.41D-05 NDo=     1
 LinEq1:  Iter=  7 NonCon=     1 RMS=4.59D-07 Max=4.00D-06 NDo=     1
 LinEq1:  Iter=  8 NonCon=     1 RMS=7.98D-08 Max=5.88D-07 NDo=     1
 LinEq1:  Iter=  9 NonCon=     1 RMS=1.20D-08 Max=1.16D-07 NDo=     1
 LinEq1:  Iter= 10 NonCon=     1 RMS=1.81D-09 Max=1.10D-08 NDo=     1
 LinEq1:  Iter= 11 NonCon=     1 RMS=3.11D-10 Max=2.35D-09 NDo=     1
 LinEq1:  Iter= 12 NonCon=     0 RMS=6.31D-11 Max=5.56D-10 NDo=     1
 Linear equations converged to 1.000D-10 1.000D-09 after    12 iterations.
 End of Minotr F.D. properties file   721 does not exist.
 End of Minotr F.D. properties file   722 does not exist.
 End of Minotr F.D. properties file   788 does not exist.
 Calling FoFJK, ICntrl=  10002127 FMM=F ISym2X=0 I1Cent= 0 IOpClX= 0 NMat=1 NMatS=1 NMatT=0.
 ***** Axes restored to original set *****
 -------------------------------------------------------------------
 Center     Atomic                   Forces (Hartrees/Bohr)
 Number     Number              X              Y              Z
 -------------------------------------------------------------------
      1        8           0.001018510    0.000467685   -0.001420682
      2        1          -0.000004577   -0.000793201    0.000822512
      3        1          -0.001114170   -0.000121244    0.000253237
      4        8          -0.000131925    0.000761669    0.001165413
      5        6           0.000476558   -0.000453772   -0.001482328
      6        1          -0.000287741   -0.000366381    0.000136366
      7        1          -0.000110662   -0.000248207   -0.000080655
      8        1           0.000261320    0.000265179    0.000396225
      9        1          -0.000107314    0.000488272    0.000209912
 -------------------------------------------------------------------
 Cartesian Forces:  Max     0.001482328 RMS     0.000649557

 GradGradGradGradGradGradGradGradGradGradGradGradGradGradGradGradGradGrad
 Berny optimization.
 Using GEDIIS/GDIIS optimizer.
 FormGI is forming the generalized inverse of G from B-inverse, IUseBI=4.
 Internal  Forces:  Max     0.001064232 RMS     0.000470375
 Search for a local minimum.
 Step number   4 out of a maximum of   36
 All quantities printed in internal units (Hartrees-Bohrs-Radians)
 Mixed Optimization -- En-DIIS/RFO-DIIS
 Swapping is turned off.
 Update second derivatives using D2CorX and points    1    2    3    4
 DE= -2.96D-04 DEPred=-2.17D-04 R= 1.37D+00
 TightC=F SS=  1.41D+00  RLast= 1.84D-01 DXNew= 7.1517D-01 5.5272D-01
 Trust test= 1.37D+00 RLast= 1.84D-01 DXMaxT set to 5.53D-01
 ITU=  1  1  1  0
     Eigenvalues ---    0.00230   0.00842   0.01197   0.01232   0.01491
     Eigenvalues ---    0.03249   0.10512   0.10576   0.14921   0.15822
     Eigenvalues ---    0.16000   0.16017   0.16111   0.18198   0.34492
     Eigenvalues ---    0.34634   0.36328   0.46993   0.50999   0.52937
     Eigenvalues ---    0.57371
 En-DIIS/RFO-DIIS/Sim-DIIS IScMMF=       -3 using points:     4    3
 RFO step:  Lambda=-7.56420832D-05.
 DidBck=F Rises=F RFO-DIIS coefs:    1.45273   -0.45273
 Iteration  1 RMS(Cart)=  0.01411751 RMS(Int)=  0.00038738
 Iteration  2 RMS(Cart)=  0.00017984 RMS(Int)=  0.00033968
 Iteration  3 RMS(Cart)=  0.00000008 RMS(Int)=  0.00033968
 Variable       Old X    -DE/DX   Delta X   Delta X   Delta X     New X
                                 (Linear)    (Quad)   (Total)
    R1        1.82306   0.00105  -0.00081   0.00205   0.00124   1.82431
    R2        1.82305   0.00106  -0.00081   0.00207   0.00126   1.82431
    R3        3.62406   0.00051   0.07004  -0.01147   0.05857   3.68263
    R4        2.69646   0.00106  -0.00232   0.00371   0.00139   2.69786
    R5        1.83381   0.00092  -0.00236   0.00218  -0.00018   1.83363
    R6        2.07657  -0.00028  -0.00064   0.00032  -0.00032   2.07625
    R7        2.08860  -0.00045  -0.00052  -0.00031  -0.00084   2.08776
    R8        2.08859  -0.00044  -0.00053  -0.00031  -0.00083   2.08775
    A1        1.82999  -0.00018   0.00192  -0.00573  -0.00482   1.82517
    A2        2.13663   0.00003  -0.01016  -0.00192  -0.01304   2.12358
    A3        2.13570  -0.00016  -0.01131  -0.00248  -0.01464   2.12105
    A4        1.87760  -0.00016   0.00010  -0.00143  -0.00133   1.87627
    A5        1.86965  -0.00015   0.00109  -0.00286  -0.00177   1.86787
    A6        1.95469   0.00016  -0.00191   0.00242   0.00050   1.95519
    A7        1.95473   0.00015  -0.00188   0.00233   0.00044   1.95517
    A8        1.89472  -0.00020   0.00173  -0.00233  -0.00060   1.89412
    A9        1.89473  -0.00020   0.00172  -0.00232  -0.00060   1.89413
   A10        1.89358   0.00022  -0.00048   0.00239   0.00190   1.89548
   A11        3.11378  -0.00017  -0.00212  -0.00397  -0.00597   3.10781
   A12        3.12735  -0.00008  -0.00119  -0.00285  -0.00399   3.12336
    D1        2.54049  -0.00045  -0.03373  -0.01561  -0.04909   2.49140
    D2        1.91767   0.00027   0.01700   0.00901   0.02565   1.94332
    D3       -1.91602  -0.00027  -0.01872  -0.00876  -0.02714  -1.94316
    D4       -3.14136   0.00000   0.00003   0.00001   0.00004  -3.14132
    D5        1.06622   0.00025  -0.00168   0.00328   0.00160   1.06782
    D6       -1.06572  -0.00026   0.00175  -0.00330  -0.00156  -1.06728
         Item               Value     Threshold  Converged?
 Maximum Force            0.001064     0.000450     NO 
 RMS     Force            0.000470     0.000300     NO 
 Maximum Displacement     0.035135     0.001800     NO 
 RMS     Displacement     0.014034     0.001200     NO 
 Predicted change in Energy=-3.691438D-05
 GradGradGradGradGradGradGradGradGradGradGradGradGradGradGradGradGradGrad

                          Input orientation:                          
 ---------------------------------------------------------------------
 Center     Atomic      Atomic             Coordinates (Angstroms)
 Number     Number       Type             X           Y           Z
 ---------------------------------------------------------------------
      1          8           0       -2.007441    0.383697    2.461493
      2          1           0       -1.766242   -0.426661    2.927436
      3          1           0       -2.958505    0.305908    2.315218
      4          8           0       -0.750224    2.946732    3.068619
      5          6           0        0.040016    3.279392    1.927118
      6          1           0       -1.178745    2.094961    2.888707
      7          1           0        0.521370    4.243999    2.139218
      8          1           0       -0.574141    3.386601    1.015039
      9          1           0        0.827598    2.528695    1.735455
 ---------------------------------------------------------------------
                    Distance matrix (angstroms):
                    1          2          3          4          5
     1  O    0.000000
     2  H    0.965381   0.000000
     3  H    0.965386   1.527404   0.000000
     4  O    2.918621   3.525905   3.523928   0.000000
     5  C    3.586460   4.242410   4.240679   1.427644   0.000000
     6  H    1.948763   2.589447   2.587885   0.970315   1.952667
     7  H    4.626087   5.260183   5.258238   2.040500   1.098705
     8  H    3.628225   4.429373   4.106864   2.107530   1.104795
     9  H    3.628443   4.108887   4.428485   2.107511   1.104792
                    6          7          8          9
     6  H    0.000000
     7  H    2.840860   0.000000
     8  H    2.354679   1.788590   0.000000
     9  H    2.354469   1.788593   1.794400   0.000000
 Stoichiometry    CH6O2
 Framework group  C1[X(CH6O2)]
 Deg. of freedom    21
 Full point group                 C1      NOp   1
 Largest Abelian subgroup         C1      NOp   1
 Largest concise Abelian subgroup C1      NOp   1
                         Standard orientation:                         
 ---------------------------------------------------------------------
 Center     Atomic      Atomic             Coordinates (Angstroms)
 Number     Number       Type             X           Y           Z
 ---------------------------------------------------------------------
      1          8           0       -1.991469   -0.171226    0.000072
      2          1           0       -2.569715   -0.047108    0.763084
      3          1           0       -2.567617   -0.045795   -0.764318
      4          8           0        0.781938    0.737927    0.000098
      5          6           0        1.584706   -0.442637   -0.000056
      6          1           0       -0.147390    0.458892    0.000497
      7          1           0        2.634310   -0.117853   -0.000226
      8          1           0        1.409071   -1.062957   -0.897233
      9          1           0        1.409356   -1.062966    0.897168
 ---------------------------------------------------------------------
 Rotational constants (GHZ):          30.2952420           3.8711231           3.5681406
 Standard basis: Aug-CC-pVDZ (5D, 7F)
 There are   129 symmetry adapted cartesian basis functions of A   symmetry.
 There are   123 symmetry adapted basis functions of A   symmetry.
   123 basis functions,   195 primitive gaussians,   129 cartesian basis functions
    14 alpha electrons       14 beta electrons
       nuclear repulsion energy        78.2629181389 Hartrees.
 NAtoms=    9 NActive=    9 NUniq=    9 SFac= 1.00D+00 NAtFMM=   60 NAOKFM=F Big=F
 Integral buffers will be    131072 words long.
 Raffenetti 1 integral format.
 Two-electron integral symmetry is turned on.
 One-electron integrals computed using PRISM.
 NBasis=   123 RedAO= T EigKep=  5.38D-04  NBF=   123
 NBsUse=   123 1.00D-06 EigRej= -1.00D+00 NBFU=   123
 Initial guess from the checkpoint file:  "meoh_h2o.chk"
 B after Tr=    -0.000000    0.000000   -0.000000
         Rot=    0.999999   -0.000152    0.000002    0.001044 Ang=  -0.12 deg.
 ExpMin= 2.97D-02 ExpMax= 1.17D+04 ExpMxC= 4.01D+02 IAcc=3 IRadAn=         5 AccDes= 0.00D+00
 Harris functional with IExCor=  205 and IRadAn=       5 diagonalized for initial guess.
 HarFok:  IExCor=  205 AccDes= 0.00D+00 IRadAn=         5 IDoV= 1 UseB2=F ITyADJ=14
 ICtDFT=  3500011 ScaDFX=  1.000000  1.000000  1.000000  1.000000
 FoFCou: FMM=F IPFlag=           0 FMFlag=      100000 FMFlg1=           0
         NFxFlg=           0 DoJE=T BraDBF=F KetDBF=T FulRan=T
         wScrn=  0.000000 ICntrl=       500 IOpCl=  0 I1Cent=   200000004 NGrid=           0
         NMat0=    1 NMatS0=      1 NMatT0=    0 NMatD0=    1 NMtDS0=    0 NMtDT0=    0
 Petite list used in FoFCou.
 Keep R1 ints in memory in canonical form, NReq=35080762.
 Requested convergence on RMS density matrix=1.00D-08 within 128 cycles.
 Requested convergence on MAX density matrix=1.00D-06.
 Requested convergence on             energy=1.00D-06.
 No special actions if energy rises.
 SCF Done:  E(RHF) =  -191.107232660     A.U. after    9 cycles
            NFock=  9  Conv=0.50D-08     -V/T= 2.0020
 ExpMin= 2.97D-02 ExpMax= 1.17D+04 ExpMxC= 4.01D+02 IAcc=3 IRadAn=         5 AccDes= 0.00D+00
 HarFok:  IExCor=  205 AccDes= 0.00D+00 IRadAn=         5 IDoV=-2 UseB2=F ITyADJ=14
 ICtDFT= 12500011 ScaDFX=  1.000000  1.000000  1.000000  1.000000
 Range of M.O.s used for correlation:     4   123
 NBasis=   123 NAE=    14 NBE=    14 NFC=     3 NFV=     0
 NROrb=    120 NOA=    11 NOB=    11 NVA=   109 NVB=   109

 **** Warning!!: The largest alpha MO coefficient is  0.13956580D+02

 Fully direct method using O(ONN) memory.
 JobTyp=1 Pass  1:  I=   4 to  14 NPSUse= 28 ParTrn=T ParDer=T DoDerP=T.
 Spin components of T(2) and E(2):
     alpha-alpha T2 =       0.2098839846D-01 E2=     -0.7179395350D-01
     alpha-beta  T2 =       0.1251779553D+00 E2=     -0.4403861204D+00
     beta-beta   T2 =       0.2098839846D-01 E2=     -0.7179395350D-01
 ANorm=    0.1080349366D+01
 E2 =    -0.5839740274D+00 EUMP2 =    -0.19169120668723D+03
          IDoAtm=111111111
          Differentiating once with respect to electric field.
                with respect to dipole field.
          Differentiating once with respect to nuclear coordinates.
 Keep R1 ints in memory in canonical form, NReq=35084920.
          There are     1 degrees of freedom in the 1st order CPHF.  IDoFFX=0 NUNeed=     1.
 LinEq1:  Iter=  0 NonCon=     1 RMS=4.51D-03 Max=5.29D-02 NDo=     1
 AX will form     1 AO Fock derivatives at one time.
 LinEq1:  Iter=  1 NonCon=     1 RMS=1.03D-03 Max=7.62D-03 NDo=     1
 LinEq1:  Iter=  2 NonCon=     1 RMS=3.50D-04 Max=3.57D-03 NDo=     1
 LinEq1:  Iter=  3 NonCon=     1 RMS=6.45D-05 Max=4.99D-04 NDo=     1
 LinEq1:  Iter=  4 NonCon=     1 RMS=2.34D-05 Max=1.71D-04 NDo=     1
 LinEq1:  Iter=  5 NonCon=     1 RMS=5.13D-06 Max=4.11D-05 NDo=     1
 LinEq1:  Iter=  6 NonCon=     1 RMS=1.93D-06 Max=1.40D-05 NDo=     1
 LinEq1:  Iter=  7 NonCon=     1 RMS=4.57D-07 Max=3.98D-06 NDo=     1
 LinEq1:  Iter=  8 NonCon=     1 RMS=7.98D-08 Max=5.78D-07 NDo=     1
 LinEq1:  Iter=  9 NonCon=     1 RMS=1.20D-08 Max=1.17D-07 NDo=     1
 LinEq1:  Iter= 10 NonCon=     1 RMS=1.81D-09 Max=1.09D-08 NDo=     1
 LinEq1:  Iter= 11 NonCon=     1 RMS=3.10D-10 Max=2.43D-09 NDo=     1
 LinEq1:  Iter= 12 NonCon=     0 RMS=6.27D-11 Max=5.64D-10 NDo=     1
 Linear equations converged to 1.000D-10 1.000D-09 after    12 iterations.
 End of Minotr F.D. properties file   721 does not exist.
 End of Minotr F.D. properties file   722 does not exist.
 End of Minotr F.D. properties file   788 does not exist.
 Calling FoFJK, ICntrl=  10002127 FMM=F ISym2X=0 I1Cent= 0 IOpClX= 0 NMat=1 NMatS=1 NMatT=0.
 ***** Axes restored to original set *****
 -------------------------------------------------------------------
 Center     Atomic                   Forces (Hartrees/Bohr)
 Number     Number              X              Y              Z
 -------------------------------------------------------------------
      1        8           0.000627706    0.000201090   -0.000997281
      2        1           0.000127637   -0.000281465    0.000594093
      3        1          -0.000609655    0.000166719    0.000214049
      4        8          -0.000195159    0.000333504    0.000770911
      5        6           0.000467187   -0.000059782   -0.000976897
      6        1          -0.000403337   -0.000590787    0.000091961
      7        1          -0.000036935   -0.000134694   -0.000088397
      8        1           0.000110997    0.000120399    0.000248095
      9        1          -0.000088441    0.000245017    0.000143466
 -------------------------------------------------------------------
 Cartesian Forces:  Max     0.000997281 RMS     0.000428902

 GradGradGradGradGradGradGradGradGradGradGradGradGradGradGradGradGradGrad
 Berny optimization.
 Using GEDIIS/GDIIS optimizer.
 FormGI is forming the generalized inverse of G from B-inverse, IUseBI=4.
 Internal  Forces:  Max     0.000829186 RMS     0.000293415
 Search for a local minimum.
 Step number   5 out of a maximum of   36
 All quantities printed in internal units (Hartrees-Bohrs-Radians)
 Mixed Optimization -- En-DIIS/RFO-DIIS
 Swapping is turned off.
 Update second derivatives using D2CorX and points    1    2    3    4    5
 DE= -5.54D-05 DEPred=-3.69D-05 R= 1.50D+00
 TightC=F SS=  1.41D+00  RLast= 8.78D-02 DXNew= 9.2956D-01 2.6352D-01
 Trust test= 1.50D+00 RLast= 8.78D-02 DXMaxT set to 5.53D-01
 ITU=  1  1  1  1  0
     Eigenvalues ---    0.00230   0.00470   0.01185   0.01232   0.01491
     Eigenvalues ---    0.03992   0.10503   0.10525   0.14806   0.15886
     Eigenvalues ---    0.16000   0.16020   0.16168   0.18205   0.34492
     Eigenvalues ---    0.34560   0.35835   0.46915   0.50675   0.52937
     Eigenvalues ---    0.54208
 En-DIIS/RFO-DIIS/Sim-DIIS IScMMF=       -3 using points:     5    4    3
 RFO step:  Lambda=-4.21243439D-05.
 DidBck=F Rises=F RFO-DIIS coefs:    2.67231   -1.90296    0.23065
 Iteration  1 RMS(Cart)=  0.01408719 RMS(Int)=  0.00062195
 Iteration  2 RMS(Cart)=  0.00039395 RMS(Int)=  0.00046301
 Iteration  3 RMS(Cart)=  0.00000025 RMS(Int)=  0.00046301
 Variable       Old X    -DE/DX   Delta X   Delta X   Delta X     New X
                                 (Linear)    (Quad)   (Total)
    R1        1.82431   0.00055   0.00249  -0.00073   0.00176   1.82607
    R2        1.82431   0.00055   0.00252  -0.00076   0.00177   1.82608
    R3        3.68263  -0.00010   0.06226  -0.01106   0.05120   3.73383
    R4        2.69786   0.00083   0.00351  -0.00009   0.00343   2.70128
    R5        1.83363   0.00058   0.00090  -0.00028   0.00061   1.83424
    R6        2.07625  -0.00015  -0.00021  -0.00015  -0.00036   2.07589
    R7        2.08776  -0.00025  -0.00113  -0.00010  -0.00123   2.08653
    R8        2.08775  -0.00025  -0.00113  -0.00010  -0.00123   2.08652
    A1        1.82517   0.00013  -0.00904   0.00290  -0.00747   1.81770
    A2        2.12358  -0.00012  -0.01664  -0.00389  -0.02193   2.10165
    A3        2.12105  -0.00031  -0.01873  -0.00428  -0.02411   2.09695
    A4        1.87627  -0.00002  -0.00228   0.00129  -0.00098   1.87529
    A5        1.86787   0.00003  -0.00352   0.00309  -0.00043   1.86744
    A6        1.95519   0.00000   0.00181  -0.00242  -0.00061   1.95459
    A7        1.95517   0.00001   0.00169  -0.00226  -0.00056   1.95461
    A8        1.89412  -0.00010  -0.00189   0.00126  -0.00063   1.89349
    A9        1.89413  -0.00010  -0.00188   0.00124  -0.00064   1.89349
   A10        1.89548   0.00015   0.00342  -0.00064   0.00278   1.89826
   A11        3.10781  -0.00010  -0.00890   0.00210  -0.00669   3.10112
   A12        3.12336  -0.00005  -0.00606   0.00119  -0.00482   3.11854
    D1        2.49140  -0.00041  -0.06491  -0.00799  -0.07232   2.41908
    D2        1.94332   0.00019   0.03424   0.00381   0.03768   1.98100
    D3       -1.94316  -0.00019  -0.03585  -0.00420  -0.03967  -1.98284
    D4       -3.14132  -0.00000   0.00005  -0.00011  -0.00006  -3.14138
    D5        1.06782   0.00010   0.00353  -0.00221   0.00133   1.06915
    D6       -1.06728  -0.00010  -0.00350   0.00206  -0.00144  -1.06872
         Item               Value     Threshold  Converged?
 Maximum Force            0.000829     0.000450     NO 
 RMS     Force            0.000293     0.000300     YES
 Maximum Displacement     0.038567     0.001800     NO 
 RMS     Displacement     0.014012     0.001200     NO 
 Predicted change in Energy=-1.601167D-05
 GradGradGradGradGradGradGradGradGradGradGradGradGradGradGradGradGradGrad

                          Input orientation:                          
 ---------------------------------------------------------------------
 Center     Atomic      Atomic             Coordinates (Angstroms)
 Number     Number       Type             X           Y           Z
 ---------------------------------------------------------------------
      1          8           0       -2.008642    0.364563    2.441084
      2          1           0       -1.776299   -0.432133    2.936112
      3          1           0       -2.966128    0.301044    2.327241
      4          8           0       -0.747746    2.951726    3.069264
      5          6           0        0.043445    3.284104    1.926071
      6          1           0       -1.175553    2.099256    2.889211
      7          1           0        0.523959    4.249025    2.137659
      8          1           0       -0.571033    3.391257    1.014992
      9          1           0        0.831684    2.534482    1.736670
 ---------------------------------------------------------------------
                    Distance matrix (angstroms):
                    1          2          3          4          5
     1  O    0.000000
     2  H    0.966312   0.000000
     3  H    0.966320   1.524455   0.000000
     4  O    2.945825   3.539230   3.535241   0.000000
     5  C    3.605554   4.259350   4.256421   1.429457   0.000000
     6  H    1.975859   2.602119   2.599141   0.970640   1.953832
     7  H    4.647062   5.276547   5.272875   2.041594   1.098515
     8  H    3.641612   4.445410   4.124063   2.108185   1.104142
     9  H    3.643103   4.128079   4.445266   2.108198   1.104141
                    6          7          8          9
     6  H    0.000000
     7  H    2.841598   0.000000
     8  H    2.355293   1.787500   0.000000
     9  H    2.355159   1.787497   1.795131   0.000000
 Stoichiometry    CH6O2
 Framework group  C1[X(CH6O2)]
 Deg. of freedom    21
 Full point group                 C1      NOp   1
 Largest Abelian subgroup         C1      NOp   1
 Largest concise Abelian subgroup C1      NOp   1
                         Standard orientation:                         
 ---------------------------------------------------------------------
 Center     Atomic      Atomic             Coordinates (Angstroms)
 Number     Number       Type             X           Y           Z
 ---------------------------------------------------------------------
      1          8           0       -2.006038   -0.178793    0.000011
      2          1           0       -2.579320   -0.019056    0.761319
      3          1           0       -2.575601   -0.014490   -0.763125
      4          8           0        0.792570    0.740814    0.000332
      5          6           0        1.589616   -0.445805   -0.000206
[...]
 -0.00000761,-0.00370185,-0.00387993,0.01321053,-0.16800040,0.11366288,
 -0.83905100,-0.00039251,0.00018865,0.00004229,0.00430670,-0.00104167,-
 0.00183176,0.16333935,0.00011982,0.00024180,0.00021962,-0.00000073,-0.
 00008112,-0.00002767,-0.00003451,-0.00005973,-0.00003422,0.00355266,0.
 00378346,-0.00054385,0.10678810,0.30893619,0.20314368,0.00027832,-0.00
 078572,-0.00125075,-0.00589935,-0.00305449,-0.00692048,-0.10268832,-0.
 30589526,-0.00021114,0.00017970,-0.00009410,0.00013605,0.00000690,0.00
 001458,-0.00002121,-0.00010224,-0.00000519,-0.00328729,-0.00231690,0.0
 0228175,-0.84398054,0.20506997,-1.07404164,-0.00052096,-0.00091269,0.0
 0088171,0.00569959,0.00353572,0.00788346,0.82948986,-0.19292881,1.0721
 9749,-0.00010122,0.00032558,0.00006469,0.00001656,-0.00002188,-0.00000
 334,-0.00001179,-0.00012007,0.00000153,0.00560695,0.00509339,-0.004758
 09,-0.73168802,0.91245226,0.30261981,0.00076583,-0.00013363,-0.0014178
 4,0.00494252,-0.01270012,-0.00253002,0.00443454,-0.00211598,0.01269563
 ,0.71603461,-0.00001854,-0.00000308,0.00005458,0.00001698,-0.00001085,
 -0.00001624,-0.00003525,0.00003995,-0.00003236,-0.00734728,0.00152045,
 0.00763430,0.91642415,-0.45975596,-0.24792369,-0.00019821,-0.00072822,
 -0.00024320,0.00004208,0.00017208,-0.00320497,-0.00610439,-0.00308514,
 -0.01253165,-0.90277955,0.46185077,0.00026624,0.00016847,0.00023235,-0
 .00009220,-0.00011942,-0.00003506,-0.00004273,0.00002803,-0.00008886,0
 .00583301,-0.00028990,-0.00477109,0.30413025,-0.25549665,0.25906360,-0
 .00081686,-0.00053760,-0.00034034,-0.00077045,0.00164136,0.00400569,-0
 .00183490,-0.00165752,-0.00911807,-0.30667236,0.25626323,-0.24894822,0
 .00023114,-0.00013565,0.00000340,0.00001929,-0.00011259,0.00016671,-0.
 00010905,-0.00011272,-0.00007025,0.00004618,-0.00024590,-0.00019260,-0
 .00013606,0.00012007,0.00020972,0.00000816,-0.00004718,0.00003675,0.00
 000100,0.00005375,-0.00006984,0.00003956,-0.00021765,-0.00001091,0.000
 01639,0.00010584,-0.00006016,0.00000365,-0.00003958,-0.00031123,-0.000
 02209,-0.00000142,0.00004227,-0.00002314,0.00014749,0.00019691,-0.0000
 3600,-0.00002578,0.00000763,0.00000050,-0.00000654,0.00001143,0.000048
 53,0.00002450,-0.00001273,-0.00051257,-0.00077057,-0.00024340,-0.00003
 783,0.00007625,-0.00004610,0.00005846,-0.00009021,0.00000107,-0.010762
 47,-0.00032390,-0.00090764,-0.00025169,-0.00006993,0.00003235,-0.00007
 191,0.00010829,-0.00000488,0.00002113,-0.00488492,-0.00437558,0.000290
 49,0.00062168,0.00000937,0.00006169,0.00002339,0.00004607,-0.00004419,
 0.00002876,-0.00000920,0.01242565,0.00595661,-0.01841286,0.00032941,0.
 00073916,0.00021148,0.00005793,-0.00007576,0.00005784,-0.00011505,0.00
 001766,0.00004187,0.00733443,0.01472485,-0.01022660,0.10022584,0.00018
 100,0.00057644,0.00034097,0.00001165,-0.00004100,0.00011528,-0.0001000
 9,0.00003053,0.00001299,0.00186903,-0.00459155,-0.00092119,1.08309003,
 2.09848008,-0.00044765,-0.00074287,-0.00002372,-0.00003129,0.00007140,
 -0.00005511,0.00009102,-0.00000556,0.00004580,-0.02533060,-0.02580915,
 0.01180285,0.43792415,0.75760366,-0.28748654,0.00011014,0.00069506,0.0
 0009983,0.00004325,0.00000061,0.00008234,-0.00005794,-0.00000848,-0.00
 000965,0.00541028,-0.00481775,-0.00283945,-0.00235113,0.00071158,-0.00
 049393,-0.00483219,0.00070170,0.00115331,0.00032172,0.00007612,-0.0000
 4964,0.00007858,-0.00010566,0.00009988,0.00000898,-0.00166456,0.000573
 55,-0.00421397,-0.00001152,-0.00131015,0.00206066,0.00189085,-0.001610
 29,0.00010427,0.00033174,-0.00007260,0.00005533,0.00001889,0.00001934,
 -0.00000832,0.00002224,-0.00003286,0.00089401,0.00191108,0.00738248,-0
 .00136740,0.00064682,0.00036905,0.00057907,0.00113530,-0.00546914,0.00
 003874,-0.00020834,0.00000511,-0.00004175,0.00001224,-0.00004055,0.000
 05016,0.00003451,-0.00006781,-0.00137576,-0.00308262,-0.00046275,0.037
 52462,-1.23048223,-0.34434370,0.00083447,-0.00018222,-0.00051615,-0.03
 188538,-0.00005389,-0.00002647,-0.00011564,0.00004280,-0.00000593,-0.0
 0011298,0.00005001,-0.00005907,-0.00006147,0.00853819,0.00947172,-0.00
 568639,-1.23253573,-2.07474260,-0.76381509,0.00143628,0.00042945,-0.00
 308133,1.21649780,2.05031754,0.00018320,0.00017674,0.00002191,-0.00002
 305,-0.00005944,-0.00001602,-0.00002656,-0.00001886,-0.00005742,0.0131
 8398,0.01679545,-0.00552424,-0.34676201,-0.76779846,0.37565832,0.00138
 517,0.00005907,-0.00193954,0.33800925,0.75340569,-0.36478504,-0.000015
 32,-0.00002268,-0.00001388,-0.00000725,-0.00000550,0.00000362,0.000000
 46,-0.00002347,0.00001837,-0.00019010,-0.00126397,0.00136896,-0.028235
 90,0.01986784,-0.09794047,-0.00045930,-0.00015171,-0.00010362,0.001496
 30,0.01165495,-0.00359422,0.02469960,0.00002000,-0.00018631,0.00003911
 ,-0.00003502,-0.00001079,-0.00000445,0.00001453,0.00002074,0.00001090,
 -0.00065164,-0.00032113,0.00191803,0.03517563,0.02615466,0.05136165,-0
 .00138068,0.00142874,-0.00136344,0.00047009,0.00556066,-0.00387713,-0.
 03354596,-0.03729365,-0.00004797,-0.00010795,-0.00008343,0.00000902,0.
 00001306,0.00001600,0.00000747,-0.00001192,0.00003784,-0.00079046,0.00
 066688,0.00270977,-0.10588451,0.03140526,-0.12899828,0.00001054,0.0004
 5897,-0.00031713,0.00192906,0.01655482,-0.00400503,0.10270776,-0.04882
 965,0.12833329,-0.00011204,0.00003339,0.00000273,0.00003213,0.00001217
 ,-0.00000614,0.00000431,-0.00003649,0.00000312,0.00007557,-0.00039004,
 -0.00057379,-0.11477015,0.12485119,0.03057248,0.00130243,-0.00055301,0
 .00036282,-0.00664141,-0.00563041,-0.00235576,0.00271150,-0.00006694,0
 .00205910,0.11739766,-0.00010378,-0.00010888,-0.00006373,-0.00003154,0
 .00001562,0.00001203,-0.00000275,-0.00001514,0.00001530,-0.00242156,0.
 00012319,0.00227308,0.09887567,-0.04455640,-0.02072470,0.00147254,-0.0
 0071485,0.00037870,0.01694078,0.00905472,0.00131694,0.00349049,0.00464
 708,-0.00014947,-0.11821986,0.03155467,-0.00007378,-0.00009379,-0.0000
 6262,-0.00000295,0.00002157,0.00001137,0.00000313,0.00000607,0.0000095
 2,-0.00009414,0.00078158,0.00199576,0.02600518,-0.02140533,0.02868761,
 0.00118609,0.00009069,0.00006039,0.00548755,0.00291240,0.00064707,-0.0
 0244652,0.00074497,0.00230697,-0.03006456,0.01694185,-0.03365607,0.047
 92226,-0.02406974,0.01339300,0.01487342,-0.02154470,0.01454335,0.00237
 951,0.00596596,-0.01485018,-0.00563894,0.00557527,-0.01785085,0.022263
 69,-0.00879841,0.01880869,-0.01514199,0.02471264,-0.01832638,0.0121803
 0,-0.02594779,0.01658587,-0.04520422,0.00597254,0.00188144,0.00041690,
 0.00189467,-0.00032939,0.04744819,0.00774107,-0.00077404,-0.00199816,-
 0.00036500,0.00094332,-0.00062668,-0.00524316,-0.00610993,0.00379025,-
 0.00190662,0.01201016,-0.00053115,0.00062755,0.00055570,-0.00194030,0.
 00130707,-0.01142048,-0.00106246,-0.00540300,0.00108971,-0.00088731,-0
 .00039477,-0.00114535,0.00045131,-0.00050279,-0.00025661,-0.08048405,-
 0.00620534,-0.00647215,0.00112477,-0.00094230,-0.00016135,-0.00153793,
 0.00111192,-0.00187633,-0.00060200,2.80738166,4.77949477,0.00008666,-0
 .00057914,0.00195972,-0.00027911,-0.00003110,-0.00035681,0.00019633,0.
 00006686,-0.00001708,0.81609919,1.80452909,-0.82138381,0.00156124,0.00
 169322,-0.00029139,0.00033803,0.00021351,0.00021688,-0.00004677,0.0004
 1360,0.00007429,0.00564610,0.00326469,-0.03448087,-0.00843035,-0.00106
 159,-0.00239585,-0.00124139,-0.00008974,-0.00010737,0.00001132,-0.0000
 6170,-0.00009068,-0.00000777,0.01708069,-0.01004927,-0.02832463,-0.006
 21989,-0.00947547,-0.00355969,-0.00655210,-0.00053066,-0.00066357,-0.0
 0053824,-0.00044186,0.00000937,-0.00097191,-0.00006689,-0.01820341,-0.
 00153300,0.01932391,0.01058495,-0.00005515,-0.01979784,-0.00370994,0.0
 1875292,-0.00216083,0.00369435,0.00169193,0.00438084,-0.00303353,-0.00
 162352,-0.00107899,0.07648269,-2.80260599,-0.78378779,-0.00370010,-0.0
 0937013,0.01298954,-0.07340359,0.01832459,0.01504863,0.00148953,0.0043
 0952,-0.00158549,0.00348804,-0.00375409,0.00800787,0.00057782,-2.81565
 143,-4.76018091,-1.77707009,-0.00016647,0.01657777,0.00962564,2.790075
 27,4.72044870,-0.00262611,0.00088437,-0.01022143,0.00369081,0.00318009
 ,0.00175389,0.00012171,0.00158369,-0.00107116,-0.79917320,-1.80241151,
 0.80083850,0.02379813,0.02750866,-0.00498764,0.77627731,1.77133195,-0.
 78630384,-0.00115438,-0.00195190,-0.00042348,-0.00016410,-0.00011253,-
 0.00011073,0.00001208,-0.00022436,-0.00001753,-0.00053281,-0.00146629,
 -0.00010367,0.00194951,-0.00176545,-0.00125412,0.00174398,0.00474637,0
 .00180989,-0.00136995,-0.00051874,-0.00116048,-0.00017258,-0.00010184,
 -0.00001656,-0.00010139,0.00007762,-0.00012145,-0.00001091,-0.00155533
 ,-0.00077035,0.00173770,0.00020028,0.00142672,-0.00150630,0.00108137,0
 .00181820,0.00034965,0.00077224,-0.00067028,0.00129742,0.00262890,0.00
 044636,0.00019636,0.00021226,0.00008969,0.00005566,0.00029100,0.000018
 72,-0.00019353,0.00157377,0.00254323,0.00105697,0.00230105,0.00304555,
 -0.00256129,-0.00679153,-0.00332694,0.00028991,-0.00030054,-0.00260247
 ,-0.00001655,0.00002332,-0.00008521,0.00000340,0.00002869,0.00000585,-
 0.00000440,-0.00000763,-0.00001312,0.00179205,0.00002657,0.00143997,0.
 00079111,0.00043340,0.00142058,-0.00099045,0.00060020,-0.00339894,-0.0
 0021898,-0.00000552,-0.00026448,-0.00106375,-0.00015328,-0.00017049,0.
 00003132,-0.00001017,-0.00001582,-0.00001374,-0.00003010,-0.00008301,0
 .00000065,0.00015019,-0.00113930,0.00047760,0.00103844,0.00200127,0.00
 014669,-0.00012468,0.00161104,-0.00153508,0.00004177,-0.00026963,0.000
 18864,-0.00111934,-0.00179883,0.00071180,0.00150766,-0.00001047,0.0001
 7407,0.00019500,0.00008764,-0.00001970,0.00019040,-0.00001459,0.000544
 44,0.00029435,-0.00190894,-0.00095778,-0.00013785,0.00234068,-0.001077
 88,-0.00275954,0.00193268,0.00009509,-0.00012074,-0.00011532,0.0007223
 4,0.00071764,-0.00202151,-0.00071544,-0.00098334,-0.00003349,-0.000141
 85,-0.00009835,-0.00005641,-0.00003957,-0.00018821,-0.00002684,-0.0014
 0552,-0.00056491,0.00082928,0.00189123,0.00105441,-0.00132365,0.002916
 60,0.00151603,-0.00049960,-0.00026534,0.00004993,0.00012299,-0.0002924
 2,0.00020717,-0.00019238,-0.00194769,0.00036777,0.00038223,0.00004753,
 0.00003197,-0.00001457,0.00001554,0.00003229,0.00010425,0.00001419,-0.
 00110521,0.00115489,-0.00080631,-0.00043737,0.00211287,0.00138436,0.00
 212283,-0.00174581,-0.00089182,-0.00003985,-0.00023616,-0.00010355,0.0
 0002031,-0.00013524,0.00011307,-0.00099274,-0.00162244,0.00056824,0.00
 084899,0.00012937,0.00008246,0.00003853,0.00005226,0.00002487,0.000157
 71,0.00000562,0.00123878,-0.00143755,-0.00099874,-0.00000118,-0.000054
 24,0.00111475,-0.00298091,0.00010818,0.00138594,-0.00028536,0.00012511
 ,-0.00009882,0.00017301,-0.00001371,-0.00029018,0.00118009,0.00022698,
 -0.00130020,2.85129199,-0.90734120,0.63395102,0.42391644,-1.86876065,0
 .48732556,0.41179252,0.61263972,-0.58621353,-0.38560379,0.67351906,-1.
 26542191,1.85800200,-0.67951479,1.25466826,-0.64840301,1.86583782,-1.1
 2845128,0.64691576,-1.88152271,1.10987065,-3.26276140,0.29379790,0.162
 29252,-0.02627920,0.00646091,0.00146390,3.28858765,0.23294499,0.630682
 03,0.01050287,0.06808746,0.01133231,0.01609311,-0.29986406,-0.64123991
 ,0.22452786,0.00273194,0.64168609,-0.06082111,0.02355570,0.01800440,-0
 .16375281,-0.02637289,-0.66013530,0.00010683,0.00023393,-0.00004732,0.
 00005699,0.00003389,0.00016371,-0.00024182,0.00034735,-0.00001266,-0.0
 0150717,0.00045502,0.00092525,0.00028723,0.00032916,-0.00013254,0.0001
 4280,-0.00017100,0.00010283,-0.00009415,0.03931188,0.06740494,0.000214
 81,0.00072046,0.00037456,-0.00014150,-0.00016845,-0.00032001,0.0000315
 7,-0.00021285,-0.00025049,0.01147243,0.02624842,-0.01079121,-0.0000145
 7,0.00006684,-0.00013527,-0.00019227,-0.00001409,-0.00005543,0.0001818
 1,-0.00019687,0.00007976,0.00004909,-0.00011263,-0.00021638,0.00002346
 ,-0.00003971,-0.00033569,-0.00016674,-0.00010041,0.00020887,-0.0000139
 8,0.00011517,0.00004863,0.00013206,0.00021388,-0.00002878,-0.00045556,
 0.00011662,0.00010294,-0.00026334,-0.00037443,-0.00006120,0.00032211,0
 .00015376,0.00021523,-0.00003064,0.00040213,0.00000885,0.00016869,0.00
 017705,-0.00011537,-0.00019405,0.00006249,0.00030585,-0.00035463,0.000
 77981,0.00015287,0.00020295,-0.00059173,-0.00009982,0.00050768,-0.0014
 2612,-0.00001504,0.00145174,-0.03989613,-0.01128041,0.00007405,-0.0002
 2385,-0.00007815,-0.00183103,0.00053604,0.00024503,0.00013017,-0.00145
 138,-0.00069416,-0.00052334,-0.00041351,-0.00093321,0.00002145,-0.0401
 4254,-0.06824412,-0.02610627,0.00023087,0.00017922,-0.00043538,0.04131
 229,0.06944958,-0.00015469,-0.00036495,-0.00087758,0.00006249,0.000064
 97,0.00075384,0.00001947,-0.00025508,0.00071410,-0.01156731,-0.0265777
 9,0.01098395,0.00045710,0.00044726,-0.00019056,0.01127291,0.02671299,-
 0.01147276,-0.00001741,-0.00009106,0.00002409,0.00001968,0.00004384,0.
 00000498,-0.00001226,0.00006551,0.00000486,0.00006103,0.00005746,-0.00
 010381,-0.00003176,-0.00009444,0.00005129,-0.00003731,-0.00004264,-0.0
 0001546,0.00000726,-0.00003308,-0.00001442,-0.00001071,0.00004556,0.00
 000442,0.00002818,-0.00000204,0.00003407,-0.00000516,0.00006056,0.0000
 1817,-0.00006312,-0.00012119,-0.00015028,-0.00000654,0.00000024,-0.000
 02582,-0.00000777,0.00003503,0.00008101,0.00009242,0.00009970,-0.00001
 124,-0.00002775,-0.00005418,-0.00002270,-0.00003954,-0.00004820,-0.000
 02119,-0.00010076,-0.00005723,0.00009986,0.00002017,-0.00005837,-0.000
 05284,0.00003486,0.00007558,0.00000179,0.00002053,0.00003466,-0.000003
 37,-0.00000758,-0.00001233,-0.00001861,0.00001562,-0.00000657,0.000011
 68,0.00002637,0.00001578,-0.00000989,-0.00001235,-0.00000205,0.0000710
 6,-0.00000709,-0.00003105,-0.00002074,-0.00002049,0.00004131,-0.000048
 28,0.00001619,0.00002018,0.00000300,-0.00002530,-0.00006763,-0.0000105
 3,0.00000289,-0.00000184,0.00000233,0.00000278,0.00007890,-0.00001881,
 0.00002879,0.00000188,-0.00002379,-0.00000814,0.00004148,-0.00001969,0
 .00005746,-0.00002062,0.00000959,-0.00002975,0.00001410,0.00001453,0.0
 0000588,-0.00002545,0.00004128,0.00003100,0.00007822,-0.00001044,-0.00
 004271,-0.00000541,-0.00002455,-0.00000802,-0.00007150,-0.00001599,-0.
 00006074,-0.00006503,0.00003433,0.00001262,0.00002551,-0.00008653,0.00
 004140,0.00006552,0.00005970,0.00001144,0.00002242,0.00000568,0.000010
 77,-0.00005392,0.00002113,-0.00003573,-0.00007360,0.00002881,-0.000012
 50,0.00006949,-0.00000178,-0.00000885,0.00002597,-0.00000097,0.0000356
 6,0.00002829,-0.00004776,-0.00008273,0.00004377,0.00004484,0.00000704,
 -0.00007043,-0.00002624,-0.00000542,-0.00000526,-0.00000293,0.00001462
 ,-0.00002082,0.00000424,0.00008790,0.00002652,-0.00002075,0.00001295,-
 0.00003348,0.00003241,-0.00004466,-0.00000227,-0.00000794,0.00000225,-
 0.00006083,-0.00002194,0.00004551,-0.00001102,-0.00000524,-0.00003654,
 0.00006612,0.00001389,0.00001014,0.00001220,0.00003833,0.00000217,0.00
 000017,0.00000508,0.00000420,0.00000260,-0.00003385,0.00003851,0.00003
 190,0.00002556,-0.00005377,-0.00002568,-0.00002559,0.00002354,-0.00003
 758,0.00000952,-0.00001603,-0.00006130,-0.00001564,0.00003147,0.000027
 33,-0.00002344,-0.00002863,0.00005928,0.00002752,0.00000208,0.00000804
 ,0.00000401,0.00000102,-0.00000599,0.00001667,0.00000180,0.00000399,-0
 .00001862,2.90793198,-0.82779495,0.61647422,0.31910099,-2.03060827,0.4
 8967707,0.53183410,0.62243492,-0.59867260,-0.53897980,0.62283177,-1.33
 914109,2.02473042,-0.62058776,1.33779229,-0.59866970,2.02509185,-1.203
 71505,0.59814128,-2.01971839,1.20189998,-3.43885527,0.20466654,0.27903
 592,0.00680393,-0.00190835,0.00057678,3.43149265,0.20460673,0.72224579
 ,0.00478656,-0.00177361,0.00141712,-0.00486107,-0.20254402,-0.72360625
 ,0.27945842,0.00511299,0.71482677,0.00050870,-0.00489246,0.00133437,-0
 .27963843,0.00012651,-0.71645099,0.00062810,-0.00035993,-0.00037164,-0
 .00013124,0.00008125,-0.00014744,-0.00038702,0.00015929,0.00042822,0.0
 0027251,-0.00000998,0.00035196,-0.00033257,-0.00014924,-0.00020271,0.0
 0023331,0.00007267,-0.00028606,-0.00006809,0.00019345,0.00054106,0.000
 03581,0.00033114,0.00097859,-0.00003079,-0.00019663,-0.00059949,-0.000
 05066,-0.00022493,-0.00026430,0.00009764,0.00001021,0.00002597,-0.0001
 7172,0.00034044,0.00025689,-0.00004357,-0.00011624,-0.00009078,0.00017
 293,-0.00010816,-0.00012716,-0.00006833,-0.00002567,0.00001495,-0.0000
 9964,0.00012884,-0.00006331,-0.00002735,-0.00007439,0.00011102,-0.0000
 3886,0.00000693,-0.00002182,0.00008940,-0.00006709,-0.00010425,0.00006
 280,-0.00009786,-0.00028228,0.00000755,-0.00043913,-0.00078467,-0.0000
 0786,0.00013887,0.00035723,-0.00002490,0.00021812,0.00028491,-0.000038
 23,-0.00002102,0.00000342,-0.00008533,-0.00003813,0.00004187,-0.001463
 26,0.00091398,0.00078466,0.00055632,-0.00041564,0.00017330,0.00079001,
 -0.00038676,-0.00072199,-0.00029750,-0.00010341,-0.00005278,0.00007512
 ,0.00005395,0.00011895,0.00033953,0.00030605,0.00019175,0.00156997,0.0
 0017649,-0.00001893,-0.00073160,-0.00037831,0.00024292,-0.00041281,-0.
 00003091,-0.00031829,0.00000072,-0.00008103,0.00011532,0.00017198,-0.0
 0005317,-0.00019996,0.00004299,0.00037007,-0.00125427,0.00004818,0.000
 00372,0.00084135,0.00012959,0.00002407,0.00038104,0.00004088,0.0001551
 2,-0.00015373,-0.00004458,-0.00009334,0.00007570,-0.00023573,-0.000498
 33,0.00012882,0.00004990,-0.00008944,-0.00004522,-0.00002660,0.0000418
 9,0.00000306,-0.00002029,0.00002539,0.00004501,-0.00000681,0.00000383,
 0.00002550,0.00000947,0.00003517,-0.00002742,0.00001175,0.00004471,-0.
 00000867,-0.00000610,-0.00003424,-0.00002941,-0.00006003,-0.00000634,0
 .00001052,0.00003086,0.00002148,0.00000091,0.00002404,-0.00001173,-0.0
 0000010,0.00001823,0.00006638,0.00011762,0.00003049,0.00001249,0.00001
 142,0.00001309,-0.00003325,-0.00006106,0.00001727,0.00004467,0.0000962
 3,0.00001087,-0.00002794,-0.00004505,-0.00002201,-0.00001564,-0.000044
 84,0.00000671,-0.00001219,-0.00002385,0.00000975,0.00009047,0.00006271
 ,-0.00004687,-0.00004943,0.00001283,0.00002111,-0.00002788,-0.00004853
 ,-0.00004069,0.00002434,-0.00001015,-0.00000516,-0.00003059,0.00003142
 ,0.00005241,0.00000024,-0.00002122,-0.00000468,0.00001206,-0.00005603,
 0.00010706,0.00002875,0.00002901,-0.00001911,-0.00000211,0.00000935,-0
 .00000519,-0.00001136,0.00000445,-0.00007287,-0.00008124,0.00000060,-0
 .00010344,-0.00001102,-0.00000619,0.00005940,0.00009525,0.00001382,0.0
 0000850,0.00000823,0.00001338,0.00001539,-0.00000004,0.00004221,-0.000
 02184,-0.00001124,-0.00000064,0.00001182,-0.00001742,-0.00002009,-0.00
 000432,-0.00001193,-0.00003940,0.00003260,0.00005120,0.00013768,0.0000
 1277,0.00000378,-0.00007624,-0.00004960,-0.00005142,-0.00003614,0.0000
 1979,0.00000175,0.00001255,0.00001357,0.00001464,-0.00004127,-0.000008
 29,-0.00003531,-0.00001433,-0.00001816,-0.00000917,-0.00000924,0.00000
 404,0.00003270,0.00004903,0.00008689,-0.00013589,-0.00007887,-0.000007
 96,0.00010366,-0.00001793,-0.00004935,0.00002091,0.00006845,-0.0000050
 1,0.00000631,0.00001637,0.00001870,-0.00001431,0.00002822,0.00000715,0
 .00001829,0.00001801,-0.00000611,-0.00000344,-0.00000127,-0.00001176,0
 .00002943,-0.00000671,-0.00003254,0.00004704,-0.00003046,0.00004472,-0
 .00000906,0.00003796,-0.00006551,-0.00003219,-0.00000643,0.00001193,0.
 00002746,0.00000504,-0.00001692,0.00002217,0.00008549,-0.00003933,-0.0
 0001020,-0.00002359,0.00001377,-0.00001087,-0.00002981,0.00000226,-0.0
 0000940,-0.00000369,-0.00000816,-0.00002495,-0.00003451,-0.00002593,0.
 00004548,0.00003768,-0.00001055,-0.00004137,0.00000289,0.00004331,-0.0
 0000221,-0.00003082,-0.00003593,0.00003347,0.00002083,0.00005269,-0.00
 005963,0.00000010,-0.00001126,-0.00001518,-0.00001742,0.00000480,-0.00
 001962,-0.00000025,0.00000914,0.00000180,-0.00002204,-0.00002626,0.000
 05726,0.00000903\\@


 ... THIS SEEMS PLAINLY ABSURD; BUT WHOEVER WISHES TO BECOME A 
 PHILOSOPHER MUST LEARN NOT TO BE FRIGHTENED BY ABSURDITIES.

                          -- BERTRAND RUSSELL
 Job cpu time:       0 days 18 hours 17 minutes 43.0 seconds.
 Elapsed time:       0 days  0 hours 40 minutes 13.2 seconds.
 File lengths (MBytes):  RWF=   1208 Int=      0 D2E=      0 Chk=     48 Scr=      8
 Normal termination of Gaussian 16 at Thu Aug  6 20:54:00 2020.
