 Entering Gaussian System, Link 0=g16
 Input=meoh_nh3_mp2_avdz_opt_anharm.gjf
 Output=meoh_nh3_mp2_avdz_opt_anharm.log
 Initial command:
 /sw/contrib/gaussian/g16/A03/g16/l1.exe "/tmp/Gau-26116.inp" -scrdir="/tmp/"
 Entering Link 1 = /sw/contrib/gaussian/g16/A03/g16/l1.exe PID=     26117.
  
 Copyright (c) 1988,1990,1992,1993,1995,1998,2003,2009,2016,
            Gaussian, Inc.  All Rights Reserved.
  
 This is part of the Gaussian(R) 16 program.  It is based on
 the Gaussian(R) 09 system (copyright 2009, Gaussian, Inc.),
 the Gaussian(R) 03 system (copyright 2003, Gaussian, Inc.),
 the Gaussian(R) 98 system (copyright 1998, Gaussian, Inc.),
 the Gaussian(R) 94 system (copyright 1995, Gaussian, Inc.),
 the Gaussian 92(TM) system (copyright 1992, Gaussian, Inc.),
 the Gaussian 90(TM) system (copyright 1990, Gaussian, Inc.),
 the Gaussian 88(TM) system (copyright 1988, Gaussian, Inc.),
 the Gaussian 86(TM) system (copyright 1986, Carnegie Mellon
 University), and the Gaussian 82(TM) system (copyright 1983,
 Carnegie Mellon University). Gaussian is a federally registered
 trademark of Gaussian, Inc.
  
 This software contains proprietary and confidential information,
 including trade secrets, belonging to Gaussian, Inc.
  
 This software is provided under written license and may be
 used, copied, transmitted, or stored only in accord with that
 written license.
  
 The following legend is applicable only to US Government
 contracts under FAR:
  
                    RESTRICTED RIGHTS LEGEND
  
 Use, reproduction and disclosure by the US Government is
 subject to restrictions as set forth in subparagraphs (a)
 and (c) of the Commercial Computer Software - Restricted
 Rights clause in FAR 52.227-19.
  
 Gaussian, Inc.
 340 Quinnipiac St., Bldg. 40, Wallingford CT 06492
  
  
 ---------------------------------------------------------------
 Warning -- This program may not be used in any manner that
 competes with the business of Gaussian, Inc. or will provide
 assistance to any competitor of Gaussian, Inc.  The licensee
 of this program is prohibited from giving any competitor of
 Gaussian, Inc. access to this program.  By using this program,
 the user acknowledges that Gaussian, Inc. is engaged in the
 business of creating and licensing software in the field of
 computational chemistry and represents and warrants to the
 licensee that it is not a competitor of Gaussian, Inc. and that
 it will not use this program in any manner prohibited above.
 ---------------------------------------------------------------
  

 Cite this work as:
 Gaussian 16, Revision A.03,
 M. J. Frisch, G. W. Trucks, H. B. Schlegel, G. E. Scuseria, 
 M. A. Robb, J. R. Cheeseman, G. Scalmani, V. Barone, 
 G. A. Petersson, H. Nakatsuji, X. Li, M. Caricato, A. V. Marenich, 
 J. Bloino, B. G. Janesko, R. Gomperts, B. Mennucci, H. P. Hratchian, 
 J. V. Ortiz, A. F. Izmaylov, J. L. Sonnenberg, D. Williams-Young, 
 F. Ding, F. Lipparini, F. Egidi, J. Goings, B. Peng, A. Petrone, 
 T. Henderson, D. Ranasinghe, V. G. Zakrzewski, J. Gao, N. Rega, 
 G. Zheng, W. Liang, M. Hada, M. Ehara, K. Toyota, R. Fukuda, 
 J. Hasegawa, M. Ishida, T. Nakajima, Y. Honda, O. Kitao, H. Nakai, 
 T. Vreven, K. Throssell, J. A. Montgomery, Jr., J. E. Peralta, 
 F. Ogliaro, M. J. Bearpark, J. J. Heyd, E. N. Brothers, K. N. Kudin, 
 V. N. Staroverov, T. A. Keith, R. Kobayashi, J. Normand, 
 K. Raghavachari, A. P. Rendell, J. C. Burant, S. S. Iyengar, 
 J. Tomasi, M. Cossi, J. M. Millam, M. Klene, C. Adamo, R. Cammi, 
 J. W. Ochterski, R. L. Martin, K. Morokuma, O. Farkas, 
 J. B. Foresman, and D. J. Fox, Gaussian, Inc., Wallingford CT, 2016.
 
 ******************************************
 Gaussian 16:  ES64L-G16RevA.03 25-Dec-2016
                 6-Jun-2022 
 ******************************************
 %nprocshared=28
 Will use up to   28 processors via shared memory.
 %mem=41GB
 ----------------------------------------------
 # MP2/aug-cc-pVDZ opt freq=(vibrot,anharmonic)
 ----------------------------------------------
 1/18=20,19=15,38=1,80=1/1,3;
 2/9=110,12=2,17=6,18=5,40=1/2;
 3/5=16,7=10,11=9,25=1,30=1,71=1/1,2,3;
 4//1;
 5/5=2,38=5/2;
 8/6=4,10=1/1;
 9/15=2,16=-3/6;
 10/5=1/2;
 6/7=2,8=2,9=2,10=2/1;
 7/12=2/1,2,3,16;
 1/18=20,19=15,80=1/3(2);
 2/9=110/2;
 99//99;
 2/9=110/2;
 3/5=16,7=10,11=9,25=1,30=1,71=1/1,2,3;
 4/5=5,16=3,69=1/1;
 5/5=2,38=5/2;
 8/6=4,10=1/1;
 9/15=2,16=-3/6;
 10/5=1/2;
 7/12=2/1,2,3,16;
 1/18=20,19=15,80=1/3(-8);
 2/9=110/2;
 6/7=2,8=2,9=2,10=2/1;
 99//99;
 ----
 bleh
 ----
 Symbolic Z-matrix:
 Charge =  0 Multiplicity = 1
 O1                   -1.16606   2.3623    0.22535 
 H2                   -0.22325   2.16275   0.01629 
 C3                   -1.80238   2.60671  -1.01464 
 H4                   -2.85574   2.83413  -0.83484 
 H5                   -1.7269    1.71795  -1.64599 
 H6                   -1.32755   3.45844  -1.50789 
 N7                    1.52408   1.78585  -0.28899 
 H8                    2.04533   2.43889   0.30196 
 H9                    1.68631   0.86759   0.13266 
 H10                   2.03855   1.76354  -1.17199 
 
 Add virtual bond connecting atoms N7         and H2         Dist= 3.43D+00.

 GradGradGradGradGradGradGradGradGradGradGradGradGradGradGradGradGradGrad
 Berny optimization.
 Initialization pass.
                           ----------------------------
                           !    Initial Parameters    !
                           ! (Angstroms and Degrees)  !
 --------------------------                            --------------------------
 ! Name  Definition              Value          Derivative Info.                !
 --------------------------------------------------------------------------------
 ! R1    R(1,2)                  0.9861         estimate D2E/DX2                !
 ! R2    R(1,3)                  1.415          estimate D2E/DX2                !
 ! R3    R(2,7)                  1.8134         estimate D2E/DX2                !
 ! R4    R(3,4)                  1.0925         estimate D2E/DX2                !
 ! R5    R(3,5)                  1.0928         estimate D2E/DX2                !
 ! R6    R(3,6)                  1.0928         estimate D2E/DX2                !
 ! R7    R(7,8)                  1.0234         estimate D2E/DX2                !
 ! R8    R(7,9)                  1.0234         estimate D2E/DX2                !
 ! R9    R(7,10)                 1.0222         estimate D2E/DX2                !
 ! A1    A(2,1,3)              106.2077         estimate D2E/DX2                !
 ! A2    A(1,3,4)              108.9843         estimate D2E/DX2                !
 ! A3    A(1,3,5)              109.5572         estimate D2E/DX2                !
 ! A4    A(1,3,6)              109.558          estimate D2E/DX2                !
 ! A5    A(4,3,5)              109.3278         estimate D2E/DX2                !
 ! A6    A(4,3,6)              109.3279         estimate D2E/DX2                !
 ! A7    A(5,3,6)              110.0662         estimate D2E/DX2                !
 ! A8    A(2,7,8)              105.1256         estimate D2E/DX2                !
 ! A9    A(2,7,9)              105.6568         estimate D2E/DX2                !
 ! A10   A(2,7,10)             129.4141         estimate D2E/DX2                !
 ! A11   A(8,7,9)              104.7088         estimate D2E/DX2                !
 ! A12   A(8,7,10)             104.8555         estimate D2E/DX2                !
 ! A13   A(9,7,10)             104.8659         estimate D2E/DX2                !
 ! A14   L(1,2,7,5,-1)         182.2896         estimate D2E/DX2                !
 ! A15   L(1,2,7,5,-2)         181.2788         estimate D2E/DX2                !
 ! D1    D(3,1,7,8)            126.4736         estimate D2E/DX2                !
 ! D2    D(3,1,7,9)           -123.5053         estimate D2E/DX2                !
 ! D3    D(3,1,7,10)             1.8346         estimate D2E/DX2                !
 ! D4    D(2,1,3,4)           -179.9896         estimate D2E/DX2                !
 ! D5    D(2,1,3,5)             60.4296         estimate D2E/DX2                !
 ! D6    D(2,1,3,6)            -60.4082         estimate D2E/DX2                !
 --------------------------------------------------------------------------------
 Trust Radius=3.00D-01 FncErr=1.00D-07 GrdErr=1.00D-07 EigMax=2.50D+02 EigMin=1.00D-04
 Number of steps in this run=     40 maximum allowed number of steps=    100.
 GradGradGradGradGradGradGradGradGradGradGradGradGradGradGradGradGradGrad

                          Input orientation:                          
 ---------------------------------------------------------------------
 Center     Atomic      Atomic             Coordinates (Angstroms)
 Number     Number       Type             X           Y           Z
 ---------------------------------------------------------------------
      1          8           0       -1.166057    2.362302    0.225352
      2          1           0       -0.223248    2.162747    0.016290
      3          6           0       -1.802383    2.606707   -1.014641
      4          1           0       -2.855742    2.834126   -0.834835
      5          1           0       -1.726902    1.717945   -1.645992
      6          1           0       -1.327555    3.458440   -1.507886
      7          7           0        1.524083    1.785845   -0.288987
      8          1           0        2.045334    2.438887    0.301962
      9          1           0        1.686307    0.867592    0.132662
     10          1           0        2.038550    1.763543   -1.171990
 ---------------------------------------------------------------------
                    Distance matrix (angstroms):
                    1          2          3          4          5
     1  O    0.000000
     2  H    0.986112   0.000000
     3  C    1.415000   1.937417   0.000000
     4  H    2.049793   2.846961   1.092527   0.000000
     5  H    2.057103   2.285171   1.092794   1.782727   0.000000
     6  H    2.057112   2.285043   1.092795   1.782728   1.791053
     7  N    2.798875   1.813399   3.502251   4.536487   3.523490
     8  H    3.213217   2.303112   4.070200   5.046689   4.306280
     9  H    3.221603   2.310275   4.063469   5.043165   3.941663
    10  H    3.546911   2.585944   3.935537   5.021346   3.795443
                    6          7          8          9         10
     6  H    0.000000
     7  N    3.523511   0.000000
     8  H    3.961239   1.023419   0.000000
     9  H    4.299680   1.023374   1.620658   0.000000
    10  H    3.783670   1.022187   1.621317   1.621394   0.000000
 Stoichiometry    CH7NO
 Framework group  C1[X(CH7NO)]
 Deg. of freedom    24
 Full point group                 C1      NOp   1
 Largest Abelian subgroup         C1      NOp   1
 Largest concise Abelian subgroup C1      NOp   1
                         Standard orientation:                         
 ---------------------------------------------------------------------
 Center     Atomic      Atomic             Coordinates (Angstroms)
 Number     Number       Type             X           Y           Z
 ---------------------------------------------------------------------
      1          8           0        0.739335   -0.720513   -0.000018
      2          1           0       -0.189749   -0.390028   -0.000252
      3          6           0        1.566825    0.427304   -0.000028
      4          1           0        2.612698    0.111448    0.000039
      5          1           0        1.368355    1.021358    0.895466
      6          1           0        1.368448    1.021291   -0.895588
      7          7           0       -1.923693    0.140872   -0.000159
      8          1           0       -2.350238   -0.339951   -0.796560
      9          1           0       -2.346112   -0.295554    0.823484
     10          1           0       -2.313180    1.085616   -0.025164
 ---------------------------------------------------------------------
 Rotational constants (GHZ):          29.3233462           4.2068728           3.8435842
 Standard basis: Aug-CC-pVDZ (5D, 7F)
 There are   138 symmetry adapted cartesian basis functions of A   symmetry.
 There are   132 symmetry adapted basis functions of A   symmetry.
   132 basis functions,   206 primitive gaussians,   138 cartesian basis functions
    14 alpha electrons       14 beta electrons
       nuclear repulsion energy        82.0221017385 Hartrees.
 NAtoms=   10 NActive=   10 NUniq=   10 SFac= 1.00D+00 NAtFMM=   60 NAOKFM=F Big=F
 Integral buffers will be    131072 words long.
 Raffenetti 1 integral format.
 Two-electron integral symmetry is turned on.
 One-electron integrals computed using PRISM.
 NBasis=   132 RedAO= T EigKep=  4.67D-04  NBF=   132
 NBsUse=   132 1.00D-06 EigRej= -1.00D+00 NBFU=   132
 ExpMin= 2.97D-02 ExpMax= 1.17D+04 ExpMxC= 4.01D+02 IAcc=3 IRadAn=         5 AccDes= 0.00D+00
 Harris functional with IExCor=  205 and IRadAn=       5 diagonalized for initial guess.
 HarFok:  IExCor=  205 AccDes= 0.00D+00 IRadAn=         5 IDoV= 1 UseB2=F ITyADJ=14
 ICtDFT=  3500011 ScaDFX=  1.000000  1.000000  1.000000  1.000000
 FoFCou: FMM=F IPFlag=           0 FMFlag=      100000 FMFlg1=           0
         NFxFlg=           0 DoJE=T BraDBF=F KetDBF=T FulRan=T
         wScrn=  0.000000 ICntrl=       500 IOpCl=  0 I1Cent=   200000004 NGrid=           0
         NMat0=    1 NMatS0=      1 NMatT0=    0 NMatD0=    1 NMtDS0=    0 NMtDT0=    0
 Petite list used in FoFCou.
 Keep R1 ints in memory in canonical form, NReq=44568075.
 Requested convergence on RMS density matrix=1.00D-08 within 128 cycles.
 Requested convergence on MAX density matrix=1.00D-06.
 Requested convergence on             energy=1.00D-06.
 No special actions if energy rises.
 SCF Done:  E(RHF) =  -171.270089972     A.U. after   11 cycles
            NFock= 11  Conv=0.75D-08     -V/T= 2.0018
 ExpMin= 2.97D-02 ExpMax= 1.17D+04 ExpMxC= 4.01D+02 IAcc=3 IRadAn=         5 AccDes= 0.00D+00
 HarFok:  IExCor=  205 AccDes= 0.00D+00 IRadAn=         5 IDoV=-2 UseB2=F ITyADJ=14
 ICtDFT= 12500011 ScaDFX=  1.000000  1.000000  1.000000  1.000000
 Range of M.O.s used for correlation:     4   132
 NBasis=   132 NAE=    14 NBE=    14 NFC=     3 NFV=     0
 NROrb=    129 NOA=    11 NOB=    11 NVA=   118 NVB=   118

 **** Warning!!: The largest alpha MO coefficient is  0.18632632D+02

 Fully direct method using O(ONN) memory.
 JobTyp=1 Pass  1:  I=   4 to  14 NPSUse= 28 ParTrn=T ParDer=T DoDerP=T.
 Spin components of T(2) and E(2):
     alpha-alpha T2 =       0.2095458989D-01 E2=     -0.6765914656D-01
     alpha-beta  T2 =       0.1287548151D+00 E2=     -0.4312364103D+00
     beta-beta   T2 =       0.2095458989D-01 E2=     -0.6765914656D-01
 ANorm=    0.1081972271D+01
 E2 =    -0.5665547034D+00 EUMP2 =    -0.17183664467494D+03
          IDoAtm=1111111111
          Differentiating once with respect to electric field.
                with respect to dipole field.
          Differentiating once with respect to nuclear coordinates.
 Keep R1 ints in memory in canonical form, NReq=44572776.
          There are     1 degrees of freedom in the 1st order CPHF.  IDoFFX=0 NUNeed=     1.
 LinEq1:  Iter=  0 NonCon=     1 RMS=4.08D-03 Max=5.39D-02 NDo=     1
 AX will form     1 AO Fock derivatives at one time.
 LinEq1:  Iter=  1 NonCon=     1 RMS=9.27D-04 Max=7.50D-03 NDo=     1
 LinEq1:  Iter=  2 NonCon=     1 RMS=3.48D-04 Max=3.67D-03 NDo=     1
 LinEq1:  Iter=  3 NonCon=     1 RMS=6.57D-05 Max=4.42D-04 NDo=     1
 LinEq1:  Iter=  4 NonCon=     1 RMS=2.28D-05 Max=2.05D-04 NDo=     1
 LinEq1:  Iter=  5 NonCon=     1 RMS=4.16D-06 Max=3.67D-05 NDo=     1
 LinEq1:  Iter=  6 NonCon=     1 RMS=1.32D-06 Max=1.11D-05 NDo=     1
 LinEq1:  Iter=  7 NonCon=     1 RMS=4.12D-07 Max=4.02D-06 NDo=     1
 LinEq1:  Iter=  8 NonCon=     1 RMS=7.31D-08 Max=5.44D-07 NDo=     1
 LinEq1:  Iter=  9 NonCon=     1 RMS=1.10D-08 Max=8.32D-08 NDo=     1
 LinEq1:  Iter= 10 NonCon=     1 RMS=1.68D-09 Max=1.72D-08 NDo=     1
 LinEq1:  Iter= 11 NonCon=     1 RMS=2.63D-10 Max=1.67D-09 NDo=     1
 LinEq1:  Iter= 12 NonCon=     0 RMS=4.56D-11 Max=3.56D-10 NDo=     1
 Linear equations converged to 1.000D-10 1.000D-09 after    12 iterations.
 End of Minotr F.D. properties file   721 does not exist.
 End of Minotr F.D. properties file   722 does not exist.
 End of Minotr F.D. properties file   788 does not exist.

 **********************************************************************

            Population analysis using the SCF density.

 **********************************************************************

 Orbital symmetries:
       Occupied  (A) (A) (A) (A) (A) (A) (A) (A) (A) (A) (A) (A)
                 (A) (A)
       Virtual   (A) (A) (A) (A) (A) (A) (A) (A) (A) (A) (A) (A)
                 (A) (A) (A) (A) (A) (A) (A) (A) (A) (A) (A) (A)
                 (A) (A) (A) (A) (A) (A) (A) (A) (A) (A) (A) (A)
                 (A) (A) (A) (A) (A) (A) (A) (A) (A) (A) (A) (A)
                 (A) (A) (A) (A) (A) (A) (A) (A) (A) (A) (A) (A)
                 (A) (A) (A) (A) (A) (A) (A) (A) (A) (A) (A) (A)
                 (A) (A) (A) (A) (A) (A) (A) (A) (A) (A) (A) (A)
                 (A) (A) (A) (A) (A) (A) (A) (A) (A) (A) (A) (A)
                 (A) (A) (A) (A) (A) (A) (A) (A) (A) (A) (A) (A)
                 (A) (A) (A) (A) (A) (A) (A) (A) (A) (A)
 The electronic state is 1-A.
 Alpha  occ. eigenvalues --  -20.52085 -15.58423 -11.25336  -1.31852  -1.17401
 Alpha  occ. eigenvalues --   -0.89452  -0.66409  -0.65069  -0.64867  -0.59318
 Alpha  occ. eigenvalues --   -0.56258  -0.49303  -0.44463  -0.41138
 Alpha virt. eigenvalues --    0.02708   0.04924   0.05282   0.05517   0.07491
 Alpha virt. eigenvalues --    0.07519   0.08995   0.13640   0.16047   0.16161
 Alpha virt. eigenvalues --    0.17666   0.18757   0.19147   0.20020   0.21101
 Alpha virt. eigenvalues --    0.25405   0.26545   0.27291   0.27579   0.30201
 Alpha virt. eigenvalues --    0.30796   0.32486   0.35410   0.37206   0.37686
 Alpha virt. eigenvalues --    0.40563   0.42150   0.42670   0.44539   0.46507
 Alpha virt. eigenvalues --    0.48014   0.50280   0.50910   0.51366   0.52511
 Alpha virt. eigenvalues --    0.53874   0.54489   0.55274   0.58343   0.58880
 Alpha virt. eigenvalues --    0.60856   0.62439   0.64453   0.64624   0.65821
 Alpha virt. eigenvalues --    0.67599   0.68575   0.70367   0.70437   0.74756
 Alpha virt. eigenvalues --    0.76362   0.77380   0.78409   0.81221   0.91573
 Alpha virt. eigenvalues --    0.91816   0.96028   0.99366   1.01772   1.02257
 Alpha virt. eigenvalues --    1.08783   1.11800   1.15353   1.21286   1.22343
 Alpha virt. eigenvalues --    1.24803   1.29030   1.35898   1.37153   1.47311
 Alpha virt. eigenvalues --    1.53047   1.59001   1.62232   1.74840   1.77713
 Alpha virt. eigenvalues --    1.80551   1.83092   1.84969   1.89924   1.90462
 Alpha virt. eigenvalues --    1.92791   1.95317   1.98788   2.02288   2.05691
 Alpha virt. eigenvalues --    2.09347   2.16017   2.19226   2.19328   2.24010
 Alpha virt. eigenvalues --    2.28927   2.30471   2.32694   2.37389   2.38461
 Alpha virt. eigenvalues --    2.38998   2.43284   2.46725   2.47864   2.68109
 Alpha virt. eigenvalues --    2.72398   2.80401   2.82455   2.85457   2.88508
 Alpha virt. eigenvalues --    2.90593   2.95027   2.99823   3.09183   3.12464
 Alpha virt. eigenvalues --    3.23742   3.52319   3.55788   3.79982   3.81536
 Alpha virt. eigenvalues --    3.88242   3.98097   4.46190
          Condensed to atoms (all electrons):
               1          2          3          4          5          6
     1  O    8.466127   0.305754   0.074048  -0.108092  -0.010917  -0.011411
     2  H    0.305754   0.531825  -0.016198   0.015188  -0.014020  -0.014057
     3  C    0.074048  -0.016198   3.872104   0.432540   0.364369   0.364386
     4  H   -0.108092   0.015188   0.432540   1.207519  -0.165619  -0.165079
     5  H   -0.010917  -0.014020   0.364369  -0.165619   1.040405  -0.085879
     6  H   -0.011411  -0.014057   0.364386  -0.165079  -0.085879   1.040643
     7  N   -0.048453  -0.102778   0.003805  -0.003484   0.006059   0.006284
     8  H   -0.003458  -0.017199   0.001333   0.000482  -0.000295  -0.000316
     9  H   -0.003434  -0.016885   0.001260   0.000420  -0.000361  -0.000298
    10  H    0.002148   0.005282  -0.004399  -0.000788   0.001379   0.001404
               7          8          9         10
     1  O   -0.048453  -0.003458  -0.003434   0.002148
     2  H   -0.102778  -0.017199  -0.016885   0.005282
     3  C    0.003805   0.001333   0.001260  -0.004399
     4  H   -0.003484   0.000482   0.000420  -0.000788
     5  H    0.006059  -0.000295  -0.000361   0.001379
     6  H    0.006284  -0.000316  -0.000298   0.001404
     7  N    6.173699   0.416006   0.416060   0.382057
     8  H    0.416006   0.687381  -0.046421  -0.086814
     9  H    0.416060  -0.046421   0.686618  -0.086590
    10  H    0.382057  -0.086814  -0.086590   0.719641
 Mulliken charges:
               1
     1  O   -0.662309
     2  H    0.323089
     3  C    0.906752
     4  H   -0.213087
     5  H   -0.135123
     6  H   -0.135678
     7  N   -0.249254
     8  H    0.049300
     9  H    0.049631
    10  H    0.066680
 Sum of Mulliken charges =  -0.00000
 Mulliken charges with hydrogens summed into heavy atoms:
               1
     1  O   -0.339220
     3  C    0.422864
     7  N   -0.083644
 Electronic spatial extent (au):  <R**2>=            340.8100
 Charge=             -0.0000 electrons
 Dipole moment (field-independent basis, Debye):
    X=             -3.3085    Y=              1.8671    Z=              0.0023  Tot=              3.7990
 Quadrupole moment (field-independent basis, Debye-Ang):
   XX=            -13.2121   YY=            -21.9769   ZZ=            -20.0809
   XY=              1.4446   XZ=             -0.0009   YZ=              0.0008
 Traceless Quadrupole moment (field-independent basis, Debye-Ang):
   XX=              5.2112   YY=             -3.5536   ZZ=             -1.6576
   XY=              1.4446   XZ=             -0.0009   YZ=              0.0008
 Octapole moment (field-independent basis, Debye-Ang**2):
  XXX=            -16.6330  YYY=              1.2965  ZZZ=              0.0859  XYY=             -7.2589
  XXY=              0.3945  XXZ=             -0.0105  XZZ=             -5.4209  YZZ=             -0.4927
  YYZ=             -0.0796  XYZ=             -0.0047
 Hexadecapole moment (field-independent basis, Debye-Ang**3):
 XXXX=           -303.2874 YYYY=            -61.2266 ZZZZ=            -30.2014 XXXY=             -6.1581
 XXXZ=              0.0543 YYYX=             -5.0011 YYYZ=             -0.0337 ZZZX=             -0.2038
 ZZZY=              0.0109 XXYY=            -61.4063 XXZZ=            -55.5090 YYZZ=            -15.3050
 XXYZ=              0.0183 YYXZ=              0.1955 ZZXY=              1.6258
 N-N= 8.202210173849D+01 E-N=-5.671165588244D+02  KE= 1.709596194069D+02
 Calling FoFJK, ICntrl=  10002127 FMM=F ISym2X=0 I1Cent= 0 IOpClX= 0 NMat=1 NMatS=1 NMatT=0.
 ***** Axes restored to original set *****
 -------------------------------------------------------------------
 Center     Atomic                   Forces (Hartrees/Bohr)
 Number     Number              X              Y              Z
 -------------------------------------------------------------------
      1        8           0.004306074   -0.001919327    0.011696136
      2        1          -0.006632711    0.001465329    0.000905965
      3        6           0.004614191   -0.001312695    0.003202013
      4        1          -0.003720246    0.000739806    0.001426948
      5        1          -0.002575840   -0.004076960   -0.009224969
      6        1          -0.000236574    0.006121232   -0.008411214
      7        7           0.009870047   -0.002440318    0.001859517
      8        1          -0.001539712    0.000262185   -0.000317910
      9        1          -0.001515059    0.000480663   -0.000283143
     10        1          -0.002570168    0.000680085   -0.000853342
 -------------------------------------------------------------------
 Cartesian Forces:  Max     0.011696136 RMS     0.004442529

 GradGradGradGradGradGradGradGradGradGradGradGradGradGradGradGradGradGrad
 Berny optimization.
 FormGI is forming the generalized inverse of G from B-inverse, IUseBI=4.
 Internal  Forces:  Max     0.012515524 RMS     0.004421278
 Search for a local minimum.
 Step number   1 out of a maximum of   40
 All quantities printed in internal units (Hartrees-Bohrs-Radians)
 Mixed Optimization -- RFO/linear search
 Second derivative matrix not updated -- first step.
 ITU=  0
     Eigenvalues ---    0.00230   0.00230   0.00230   0.01493   0.05965
     Eigenvalues ---    0.07236   0.10391   0.10418   0.10486   0.16000
     Eigenvalues ---    0.16000   0.16000   0.16000   0.16000   0.16000
     Eigenvalues ---    0.16000   0.34492   0.34492   0.34522   0.43222
     Eigenvalues ---    0.43797   0.43804   0.43991   0.50216
 RFO step:  Lambda=-2.95104503D-03 EMin= 2.30000000D-03
 Linear search not attempted -- first point.
 Iteration  1 RMS(Cart)=  0.15652603 RMS(Int)=  0.00873766
 Iteration  2 RMS(Cart)=  0.01683443 RMS(Int)=  0.00078970
 Iteration  3 RMS(Cart)=  0.00028872 RMS(Int)=  0.00077741
 Iteration  4 RMS(Cart)=  0.00000016 RMS(Int)=  0.00077741
 Variable       Old X    -DE/DX   Delta X   Delta X   Delta X     New X
                                 (Linear)    (Quad)   (Total)
    R1        1.86348  -0.00265   0.00000  -0.00525  -0.00525   1.85823
    R2        2.67396   0.01252   0.00000   0.02876   0.02877   2.70274
    R3        3.42683   0.00423   0.00000   0.06763   0.06763   3.49446
    R4        2.06458   0.00398   0.00000   0.01142   0.01142   2.07600
    R5        2.06508   0.00847   0.00000   0.02434   0.02433   2.08942
    R6        2.06508   0.00846   0.00000   0.02433   0.02433   2.08942
    R7        1.93398  -0.00080   0.00000  -0.00182  -0.00182   1.93217
    R8        1.93390  -0.00079   0.00000  -0.00179  -0.00179   1.93211
    R9        1.93165  -0.00057   0.00000  -0.00129  -0.00129   1.93036
    A1        1.85367   0.00266   0.00000   0.01632   0.01630   1.86997
    A2        1.90214  -0.00482   0.00000  -0.03359  -0.03338   1.86876
    A3        1.91213   0.00824   0.00000   0.05262   0.05181   1.96395
    A4        1.91215   0.00824   0.00000   0.05258   0.05173   1.96388
    A5        1.90813  -0.00322   0.00000  -0.02383  -0.02362   1.88450
    A6        1.90813  -0.00322   0.00000  -0.02383  -0.02364   1.88449
    A7        1.92102  -0.00527   0.00000  -0.02441  -0.02604   1.89497
    A8        1.83479  -0.00059   0.00000  -0.00300  -0.00247   1.83232
    A9        1.84406  -0.00063   0.00000  -0.00368  -0.00450   1.83956
   A10        2.25870  -0.00313   0.00000  -0.02034  -0.02004   2.23866
   A11        1.82751   0.00155   0.00000   0.01285   0.01154   1.83905
   A12        1.83007   0.00186   0.00000   0.01072   0.01188   1.84195
   A13        1.83025   0.00188   0.00000   0.01030   0.00973   1.83998
   A14        3.18155   0.00117   0.00000   0.20674   0.20666   3.38822
   A15        3.16391   0.00052   0.00000   0.09469   0.09502   3.25893
    D1        2.20738  -0.00052   0.00000   0.00823   0.00627   2.21365
    D2       -2.15557   0.00054   0.00000  -0.01402  -0.01319  -2.16877
    D3        0.03202  -0.00002   0.00000   0.00476   0.00580   0.03782
    D4       -3.14141  -0.00000   0.00000  -0.00012  -0.00013  -3.14154
    D5        1.05470   0.00191   0.00000   0.01774   0.01910   1.07379
    D6       -1.05432  -0.00191   0.00000  -0.01802  -0.01941  -1.07374
         Item               Value     Threshold  Converged?
 Maximum Force            0.012516     0.000450     NO 
 RMS     Force            0.004421     0.000300     NO 
 Maximum Displacement     0.373823     0.001800     NO 
 RMS     Displacement     0.165920     0.001200     NO 
 Predicted change in Energy=-1.586067D-03
 GradGradGradGradGradGradGradGradGradGradGradGradGradGradGradGradGradGrad

                          Input orientation:                          
 ---------------------------------------------------------------------
 Center     Atomic      Atomic             Coordinates (Angstroms)
 Number     Number       Type             X           Y           Z
 ---------------------------------------------------------------------
      1          8           0       -1.092998    2.348487    0.140494
      2          1           0       -0.179286    2.148058   -0.162667
      3          6           0       -1.873202    2.624249   -1.026032
      4          1           0       -2.893596    2.848036   -0.686074
      5          1           0       -1.924720    1.760998   -1.714980
      6          1           0       -1.500572    3.500999   -1.587249
      7          7           0        1.626742    1.761106   -0.252237
      8          1           0        2.072404    2.432055    0.377551
      9          1           0        1.732349    0.851367    0.202272
     10          1           0        2.225266    1.722780   -1.079143
 ---------------------------------------------------------------------
                    Distance matrix (angstroms):
                    1          2          3          4          5
     1  O    0.000000
     2  H    0.983335   0.000000
     3  C    1.430226   1.959976   0.000000
     4  H    2.043262   2.851561   1.098570   0.000000
     5  H    2.116529   2.367706   1.105671   1.782981   0.000000
     6  H    2.116482   2.367631   1.105671   1.782973   1.795501
     7  N    2.810025   1.849187   3.686921   4.669378   3.840899
     8  H    3.175366   2.332938   4.192230   5.095635   4.561361
     9  H    3.198089   2.338577   4.201410   5.116172   4.228173
    10  H    3.590250   2.608191   4.196774   5.255802   4.198587
                    6          7          8          9         10
     6  H    0.000000
     7  N    3.819631   0.000000
     8  H    4.215358   1.022458   0.000000
     9  H    4.546946   1.022428   1.626326   0.000000
    10  H    4.159580   1.021505   1.627389   1.626147   0.000000
 Stoichiometry    CH7NO
 Framework group  C1[X(CH7NO)]
 Deg. of freedom    24
 Full point group                 C1      NOp   1
 Largest Abelian subgroup         C1      NOp   1
 Largest concise Abelian subgroup C1      NOp   1
                         Standard orientation:                         
 ---------------------------------------------------------------------
 Center     Atomic      Atomic             Coordinates (Angstroms)
 Number     Number       Type             X           Y           Z
 ---------------------------------------------------------------------
      1          8           0        0.686203   -0.662975   -0.000863
      2          1           0       -0.192419   -0.221759    0.016472
      3          6           0        1.676287    0.369149   -0.000099
      4          1           0        2.657272   -0.124963   -0.019531
      5          1           0        1.629886    0.999953    0.906786
      6          1           0        1.606339    1.023774   -0.888402
      7          7           0       -2.004038    0.148716   -0.000130
      8          1           0       -2.372012   -0.367125   -0.802578
      9          1           0       -2.385151   -0.322893    0.823093
     10          1           0       -2.462992    1.060905   -0.027435
 ---------------------------------------------------------------------
 Rotational constants (GHZ):          32.9859907           3.8761085           3.6152965
 Standard basis: Aug-CC-pVDZ (5D, 7F)
 There are   138 symmetry adapted cartesian basis functions of A   symmetry.
 There are   132 symmetry adapted basis functions of A   symmetry.
   132 basis functions,   206 primitive gaussians,   138 cartesian basis functions
    14 alpha electrons       14 beta electrons
       nuclear repulsion energy        80.8702468203 Hartrees.
 NAtoms=   10 NActive=   10 NUniq=   10 SFac= 1.00D+00 NAtFMM=   60 NAOKFM=F Big=F
 Integral buffers will be    131072 words long.
 Raffenetti 1 integral format.
 Two-electron integral symmetry is turned on.
 One-electron integrals computed using PRISM.
 NBasis=   132 RedAO= T EigKep=  4.59D-04  NBF=   132
 NBsUse=   132 1.00D-06 EigRej= -1.00D+00 NBFU=   132
 Initial guess from the checkpoint file:  "/tmp/Gau-26117.chk"
 B after Tr=    -0.000000   -0.000000   -0.000000
         Rot=    0.999948   -0.001601   -0.000161    0.010072 Ang=  -1.17 deg.
 ExpMin= 2.97D-02 ExpMax= 1.17D+04 ExpMxC= 4.01D+02 IAcc=3 IRadAn=         5 AccDes= 0.00D+00
 Harris functional with IExCor=  205 and IRadAn=       5 diagonalized for initial guess.
 HarFok:  IExCor=  205 AccDes= 0.00D+00 IRadAn=         5 IDoV= 1 UseB2=F ITyADJ=14
 ICtDFT=  3500011 ScaDFX=  1.000000  1.000000  1.000000  1.000000
 FoFCou: FMM=F IPFlag=           0 FMFlag=      100000 FMFlg1=           0
         NFxFlg=           0 DoJE=T BraDBF=F KetDBF=T FulRan=T
         wScrn=  0.000000 ICntrl=       500 IOpCl=  0 I1Cent=   200000004 NGrid=           0
         NMat0=    1 NMatS0=      1 NMatT0=    0 NMatD0=    1 NMtDS0=    0 NMtDT0=    0
 Petite list used in FoFCou.
 Keep R1 ints in memory in canonical form, NReq=44566139.
 Requested convergence on RMS density matrix=1.00D-08 within 128 cycles.
 Requested convergence on MAX density matrix=1.00D-06.
 Requested convergence on             energy=1.00D-06.
 No special actions if energy rises.
 SCF Done:  E(RHF) =  -171.270552359     A.U. after   11 cycles
            NFock= 11  Conv=0.37D-08     -V/T= 2.0023
 ExpMin= 2.97D-02 ExpMax= 1.17D+04 ExpMxC= 4.01D+02 IAcc=3 IRadAn=         5 AccDes= 0.00D+00
 HarFok:  IExCor=  205 AccDes= 0.00D+00 IRadAn=         5 IDoV=-2 UseB2=F ITyADJ=14
 ICtDFT= 12500011 ScaDFX=  1.000000  1.000000  1.000000  1.000000
 Range of M.O.s used for correlation:     4   132
 NBasis=   132 NAE=    14 NBE=    14 NFC=     3 NFV=     0
 NROrb=    129 NOA=    11 NOB=    11 NVA=   118 NVB=   118

 **** Warning!!: The largest alpha MO coefficient is  0.15404304D+02

 Fully direct method using O(ONN) memory.
 JobTyp=1 Pass  1:  I=   4 to  14 NPSUse= 28 ParTrn=T ParDer=T DoDerP=T.
 Spin components of T(2) and E(2):
     alpha-alpha T2 =       0.2105023772D-01 E2=     -0.6764397261D-01
     alpha-beta  T2 =       0.1296914455D+00 E2=     -0.4319892406D+00
     beta-beta   T2 =       0.2105023772D-01 E2=     -0.6764397261D-01
 ANorm=    0.1082493382D+01
 E2 =    -0.5672771858D+00 EUMP2 =    -0.17183782954481D+03
          IDoAtm=1111111111
          Differentiating once with respect to electric field.
                with respect to dipole field.
          Differentiating once with respect to nuclear coordinates.
 Keep R1 ints in memory in canonical form, NReq=44571104.
          There are     1 degrees of freedom in the 1st order CPHF.  IDoFFX=0 NUNeed=     1.
 LinEq1:  Iter=  0 NonCon=     1 RMS=4.10D-03 Max=5.15D-02 NDo=     1
 AX will form     1 AO Fock derivatives at one time.
 LinEq1:  Iter=  1 NonCon=     1 RMS=9.47D-04 Max=7.21D-03 NDo=     1
 LinEq1:  Iter=  2 NonCon=     1 RMS=3.54D-04 Max=3.83D-03 NDo=     1
 LinEq1:  Iter=  3 NonCon=     1 RMS=6.88D-05 Max=6.22D-04 NDo=     1
 LinEq1:  Iter=  4 NonCon=     1 RMS=2.40D-05 Max=2.22D-04 NDo=     1
 LinEq1:  Iter=  5 NonCon=     1 RMS=4.25D-06 Max=3.16D-05 NDo=     1
 LinEq1:  Iter=  6 NonCon=     1 RMS=1.32D-06 Max=1.03D-05 NDo=     1
 LinEq1:  Iter=  7 NonCon=     1 RMS=4.26D-07 Max=4.15D-06 NDo=     1
 LinEq1:  Iter=  8 NonCon=     1 RMS=7.72D-08 Max=6.56D-07 NDo=     1
 LinEq1:  Iter=  9 NonCon=     1 RMS=1.20D-08 Max=8.75D-08 NDo=     1
 LinEq1:  Iter= 10 NonCon=     1 RMS=1.93D-09 Max=1.50D-08 NDo=     1
 LinEq1:  Iter= 11 NonCon=     1 RMS=3.46D-10 Max=2.29D-09 NDo=     1
 LinEq1:  Iter= 12 NonCon=     0 RMS=6.70D-11 Max=4.82D-10 NDo=     1
 Linear equations converged to 1.000D-10 1.000D-09 after    12 iterations.
 End of Minotr F.D. properties file   721 does not exist.
 End of Minotr F.D. properties file   722 does not exist.
 End of Minotr F.D. properties file   788 does not exist.
 Calling FoFJK, ICntrl=  10002127 FMM=F ISym2X=0 I1Cent= 0 IOpClX= 0 NMat=1 NMatS=1 NMatT=0.
 ***** Axes restored to original set *****
 -------------------------------------------------------------------
 Center     Atomic                   Forces (Hartrees/Bohr)
 Number     Number              X              Y              Z
 -------------------------------------------------------------------
      1        8          -0.000022973    0.000099365   -0.005716257
      2        1          -0.002713399    0.000969734    0.003016502
      3        6          -0.001358257    0.000139242    0.002165605
      4        1          -0.000579297    0.000147818   -0.000082973
      5        1           0.000893964   -0.000155414    0.000603871
      6        1           0.000882294   -0.000349232    0.000585952
      7        7           0.006555499   -0.001887255    0.000549157
      8        1          -0.001264354    0.000005749   -0.000466597
      9        1          -0.001021283    0.000574321   -0.000247051
     10        1          -0.001372193    0.000455671   -0.000408210
 -------------------------------------------------------------------
 Cartesian Forces:  Max     0.006555499 RMS     0.001930316

 GradGradGradGradGradGradGradGradGradGradGradGradGradGradGradGradGradGrad
 Berny optimization.
 Using GEDIIS/GDIIS optimizer.
 FormGI is forming the generalized inverse of G from B-inverse, IUseBI=4.
 Internal  Forces:  Max     0.003033813 RMS     0.001189103
 Search for a local minimum.
 Step number   2 out of a maximum of   40
 All quantities printed in internal units (Hartrees-Bohrs-Radians)
 Mixed Optimization -- RFO/linear search
 Update second derivatives using D2CorX and points    1    2
 DE= -1.18D-03 DEPred=-1.59D-03 R= 7.47D-01
 TightC=F SS=  1.41D+00  RLast= 2.62D-01 DXNew= 5.0454D-01 7.8697D-01
 Trust test= 7.47D-01 RLast= 2.62D-01 DXMaxT set to 5.05D-01
 ITU=  1  0
 Use linear search instead of GDIIS.
     Eigenvalues ---    0.00229   0.00230   0.00336   0.01493   0.05014
     Eigenvalues ---    0.07026   0.10220   0.10502   0.10570   0.14314
     Eigenvalues ---    0.16000   0.16000   0.16000   0.16000   0.16000
     Eigenvalues ---    0.17973   0.33680   0.34491   0.34589   0.43465
     Eigenvalues ---    0.43801   0.43965   0.44744   0.50117
 RFO step:  Lambda=-1.23895841D-03 EMin= 2.29149848D-03
 Quartic linear search produced a step of -0.15426.
 Iteration  1 RMS(Cart)=  0.10187178 RMS(Int)=  0.04827805
 Iteration  2 RMS(Cart)=  0.12491125 RMS(Int)=  0.01258094
 Iteration  3 RMS(Cart)=  0.04492929 RMS(Int)=  0.00295564
 Iteration  4 RMS(Cart)=  0.00082949 RMS(Int)=  0.00291439
 Iteration  5 RMS(Cart)=  0.00000121 RMS(Int)=  0.00291439
 Iteration  6 RMS(Cart)=  0.00000001 RMS(Int)=  0.00291439
 Variable       Old X    -DE/DX   Delta X   Delta X   Delta X     New X
                                 (Linear)    (Quad)   (Total)
    R1        1.85823  -0.00060   0.00081  -0.00462  -0.00375   1.85449
    R2        2.70274  -0.00261  -0.00444   0.01435   0.00987   2.71260
    R3        3.49446   0.00303  -0.01043   0.08892   0.07845   3.57290
    R4        2.07600   0.00054  -0.00176   0.00916   0.00740   2.08339
    R5        2.08942  -0.00031  -0.00375   0.01581   0.01212   2.10154
    R6        2.08942  -0.00028  -0.00375   0.01589   0.01214   2.10155
    R7        1.93217  -0.00083   0.00028  -0.00290  -0.00262   1.92954
    R8        1.93211  -0.00073   0.00028  -0.00267  -0.00239   1.92972
    R9        1.93036  -0.00049   0.00020  -0.00185  -0.00165   1.92871
    A1        1.86997   0.00227  -0.00251   0.02342   0.02085   1.89082
    A2        1.86876   0.00120   0.00515  -0.01492  -0.00978   1.85898
    A3        1.96395  -0.00138  -0.00799   0.02657   0.01848   1.98243
    A4        1.96388  -0.00146  -0.00798   0.02609   0.01819   1.98207
    A5        1.88450   0.00061   0.00364  -0.01148  -0.00784   1.87667
    A6        1.88449   0.00063   0.00365  -0.01143  -0.00778   1.87671
    A7        1.89497   0.00056   0.00402  -0.01764  -0.01349   1.88149
    A8        1.83232  -0.00087   0.00038  -0.00732  -0.00307   1.82925
    A9        1.83956  -0.00055   0.00069  -0.00505  -0.00927   1.83029
   A10        2.23866  -0.00138   0.00309  -0.02148  -0.01707   2.22159
   A11        1.83905   0.00081  -0.00178   0.01344   0.00891   1.84796
   A12        1.84195   0.00109  -0.00183   0.01239   0.01742   1.85938
   A13        1.83998   0.00131  -0.00150   0.01454   0.00748   1.84746
   A14        3.38822  -0.00212  -0.03188  -0.42752  -0.45988   2.92834
   A15        3.25893  -0.00035  -0.01466  -0.06348  -0.07580   3.18314
    D1        2.21365  -0.00041  -0.00097  -0.01173  -0.01957   2.19407
    D2       -2.16877   0.00030   0.00204   0.04815   0.04898  -2.11979
    D3        0.03782   0.00002  -0.00090  -0.05297  -0.04528  -0.00745
    D4       -3.14154   0.00002   0.00002   0.00046   0.00048  -3.14106
    D5        1.07379  -0.00071  -0.00295   0.00879   0.00585   1.07964
    D6       -1.07374   0.00071   0.00299  -0.00809  -0.00499  -1.07872
         Item               Value     Threshold  Converged?
 Maximum Force            0.003034     0.000450     NO 
 RMS     Force            0.001189     0.000300     NO 
 Maximum Displacement     0.714397     0.001800     NO 
 RMS     Displacement     0.260509     0.001200     NO 
 Predicted change in Energy=-7.453420D-04
 GradGradGradGradGradGradGradGradGradGradGradGradGradGradGradGradGradGrad

                          Input orientation:                          
 ---------------------------------------------------------------------
 Center     Atomic      Atomic             Coordinates (Angstroms)
 Number     Number       Type             X           Y           Z
 ---------------------------------------------------------------------
      1          8           0       -1.216007    2.382912    0.295252
      2          1           0       -0.247873    2.243669    0.215375
      3          6           0       -1.751845    2.594170   -1.019569
      4          1           0       -2.836516    2.747287   -0.895007
      5          1           0       -1.612216    1.726943   -1.701590
      6          1           0       -1.342512    3.495120   -1.527004
      7          7           0        1.516410    1.784328   -0.285677
      8          1           0        2.112790    2.417775    0.248795
      9          1           0        1.668262    0.855886    0.111447
     10          1           0        1.901895    1.750046   -1.230087
 ---------------------------------------------------------------------
                    Distance matrix (angstroms):
                    1          2          3          4          5
     1  O    0.000000
     2  H    0.981352   0.000000
     3  C    1.435447   1.977339   0.000000
     4  H    2.043413   2.861407   1.102484   0.000000
     5  H    2.138844   2.408981   1.112085   1.786221   0.000000
     6  H    2.138605   2.408371   1.112095   1.786259   1.797129
     7  N    2.856901   1.890699   3.446148   4.499615   3.434589
     8  H    3.329304   2.367311   4.071274   5.090431   4.261094
     9  H    3.268731   2.368188   3.999746   4.988323   3.848036
    10  H    3.528242   2.637144   3.755887   4.853793   3.545677
                    6          7          8          9         10
     6  H    0.000000
     7  N    3.555438   0.000000
     8  H    4.031532   1.021070   0.000000
     9  H    4.326065   1.021162   1.629714   0.000000
    10  H    3.695893   1.020629   1.636286   1.629055   0.000000
 Stoichiometry    CH7NO
 Framework group  C1[X(CH7NO)]
 Deg. of freedom    24
 Full point group                 C1      NOp   1
 Largest Abelian subgroup         C1      NOp   1
 Largest concise Abelian subgroup C1      NOp   1
                         Standard orientation:                         
 ---------------------------------------------------------------------
 Center     Atomic      Atomic             Coordinates (Angstroms)
 Number     Number       Type             X           Y           Z
 ---------------------------------------------------------------------
      1          8           0        0.787570   -0.770510    0.006552
      2          1           0       -0.170117   -0.572276   -0.074643
      3          6           0        1.507993    0.471034   -0.001675
      4          1           0        2.576180    0.214085    0.090107
      5          1           0        1.250410    1.140577    0.848087
      6          1           0        1.382738    1.051509   -0.941949
      7          7           0       -1.921797    0.135656   -0.002585
      8          1           0       -2.412007   -0.300699   -0.784808
      9          1           0       -2.331747   -0.264947    0.842536
     10          1           0       -2.191396    1.120033   -0.003603
 ---------------------------------------------------------------------
 Rotational constants (GHZ):          25.9889877           4.2726421           3.8347567
 Standard basis: Aug-CC-pVDZ (5D, 7F)
 There are   138 symmetry adapted cartesian basis functions of A   symmetry.
 There are   132 symmetry adapted basis functions of A   symmetry.
   132 basis functions,   206 primitive gaussians,   138 cartesian basis functions
    14 alpha electrons       14 beta electrons
       nuclear repulsion energy        81.2891450309 Hartrees.
 NAtoms=   10 NActive=   10 NUniq=   10 SFac= 1.00D+00 NAtFMM=   60 NAOKFM=F Big=F
 Integral buffers will be    131072 words long.
 Raffenetti 1 integral format.
 Two-electron integral symmetry is turned on.
 One-electron integrals computed using PRISM.
 NBasis=   132 RedAO= T EigKep=  5.03D-04  NBF=   132
 NBsUse=   132 1.00D-06 EigRej= -1.00D+00 NBFU=   132
 Initial guess from the checkpoint file:  "/tmp/Gau-26117.chk"
 B after Tr=     0.000000   -0.000000    0.000000
         Rot=    0.999837    0.009420    0.000766   -0.015378 Ang=   2.07 deg.
 ExpMin= 2.97D-02 ExpMax= 1.17D+04 ExpMxC= 4.01D+02 IAcc=3 IRadAn=         5 AccDes= 0.00D+00
 Harris functional with IExCor=  205 and IRadAn=       5 diagonalized for initial guess.
 HarFok:  IExCor=  205 AccDes= 0.00D+00 IRadAn=         5 IDoV= 1 UseB2=F ITyADJ=14
 ICtDFT=  3500011 ScaDFX=  1.000000  1.000000  1.000000  1.000000
 FoFCou: FMM=F IPFlag=           0 FMFlag=      100000 FMFlg1=           0
         NFxFlg=           0 DoJE=T BraDBF=F KetDBF=T FulRan=T
         wScrn=  0.000000 ICntrl=       500 IOpCl=  0 I1Cent=   200000004 NGrid=           0
         NMat0=    1 NMatS0=      1 NMatT0=    0 NMatD0=    1 NMtDS0=    0 NMtDT0=    0
 Petite list used in FoFCou.
 Keep R1 ints in memory in canonical form, NReq=44567987.
 Requested convergence on RMS density matrix=1.00D-08 within 128 cycles.
 Requested convergence on MAX density matrix=1.00D-06.
 Requested convergence on             energy=1.00D-06.
 No special actions if energy rises.
 SCF Done:  E(RHF) =  -171.269639835     A.U. after   12 cycles
            NFock= 12  Conv=0.40D-08     -V/T= 2.0026
 ExpMin= 2.97D-02 ExpMax= 1.17D+04 ExpMxC= 4.01D+02 IAcc=3 IRadAn=         5 AccDes= 0.00D+00
 HarFok:  IExCor=  205 AccDes= 0.00D+00 IRadAn=         5 IDoV=-2 UseB2=F ITyADJ=14
 ICtDFT= 12500011 ScaDFX=  1.000000  1.000000  1.000000  1.000000
 Range of M.O.s used for correlation:     4   132
 NBasis=   132 NAE=    14 NBE=    14 NFC=     3 NFV=     0
 NROrb=    129 NOA=    11 NOB=    11 NVA=   118 NVB=   118

 **** Warning!!: The largest alpha MO coefficient is  0.15494902D+02

 Fully direct method using O(ONN) memory.
 JobTyp=1 Pass  1:  I=   4 to  14 NPSUse= 28 ParTrn=T ParDer=T DoDerP=T.
 Spin components of T(2) and E(2):
     alpha-alpha T2 =       0.2108430227D-01 E2=     -0.6761842192D-01
     alpha-beta  T2 =       0.1299930428D+00 E2=     -0.4321209598D+00
     beta-beta   T2 =       0.2108430227D-01 E2=     -0.6761842192D-01
 ANorm=    0.1082664143D+01
 E2 =    -0.5673578036D+00 EUMP2 =    -0.17183699763852D+03
          IDoAtm=1111111111
          Differentiating once with respect to electric field.
                with respect to dipole field.
          Differentiating once with respect to nuclear coordinates.
 Keep R1 ints in memory in canonical form, NReq=44572908.
          There are     1 degrees of freedom in the 1st order CPHF.  IDoFFX=0 NUNeed=     1.
 LinEq1:  Iter=  0 NonCon=     1 RMS=4.11D-03 Max=4.96D-02 NDo=     1
 AX will form     1 AO Fock derivatives at one time.
 LinEq1:  Iter=  1 NonCon=     1 RMS=9.46D-04 Max=7.96D-03 NDo=     1
 LinEq1:  Iter=  2 NonCon=     1 RMS=3.54D-04 Max=3.20D-03 NDo=     1
 LinEq1:  Iter=  3 NonCon=     1 RMS=6.93D-05 Max=5.16D-04 NDo=     1
 LinEq1:  Iter=  4 NonCon=     1 RMS=2.43D-05 Max=2.23D-04 NDo=     1
 LinEq1:  Iter=  5 NonCon=     1 RMS=4.26D-06 Max=3.99D-05 NDo=     1
 LinEq1:  Iter=  6 NonCon=     1 RMS=1.30D-06 Max=9.78D-06 NDo=     1
 LinEq1:  Iter=  7 NonCon=     1 RMS=4.29D-07 Max=4.23D-06 NDo=     1
 LinEq1:  Iter=  8 NonCon=     1 RMS=8.01D-08 Max=6.08D-07 NDo=     1
 LinEq1:  Iter=  9 NonCon=     1 RMS=1.21D-08 Max=9.38D-08 NDo=     1
 LinEq1:  Iter= 10 NonCon=     1 RMS=1.89D-09 Max=1.50D-08 NDo=     1
 LinEq1:  Iter= 11 NonCon=     1 RMS=3.04D-10 Max=2.24D-09 NDo=     1
 LinEq1:  Iter= 12 NonCon=     0 RMS=5.43D-11 Max=2.95D-10 NDo=     1
 Linear equations converged to 1.000D-10 1.000D-09 after    12 iterations.
 End of Minotr F.D. properties file   721 does not exist.
 End of Minotr F.D. properties file   722 does not exist.
 End of Minotr F.D. properties file   788 does not exist.
 Calling FoFJK, ICntrl=  10002127 FMM=F ISym2X=0 I1Cent= 0 IOpClX= 0 NMat=1 NMatS=1 NMatT=0.
 ***** Axes restored to original set *****
 -------------------------------------------------------------------
 Center     Atomic                   Forces (Hartrees/Bohr)
 Number     Number              X              Y              Z
 -------------------------------------------------------------------
      1        8          -0.001966530    0.002104958   -0.003865926
      2        1          -0.005016614   -0.000597038   -0.007513575
      3        6          -0.000881712    0.000271863    0.000315874
      4        1           0.002079657   -0.000343065   -0.000010035
      5        1           0.001653806    0.001732213    0.004969544
      6        1           0.000711438   -0.003138005    0.004435684
      7        7           0.003854453   -0.001090298    0.002439294
      8        1           0.000984349   -0.000267212   -0.000980821
      9        1          -0.000207637    0.000099533    0.000046884
     10        1          -0.001211210    0.001227049    0.000163076
 -------------------------------------------------------------------
 Cartesian Forces:  Max     0.007513575 RMS     0.002569871

 GradGradGradGradGradGradGradGradGradGradGradGradGradGradGradGradGradGrad
 Berny optimization.
 Using GEDIIS/GDIIS optimizer.
 FormGI is forming the generalized inverse of G from B-inverse, IUseBI=4.
 Internal  Forces:  Max     0.010460495 RMS     0.003179433
 Search for a local minimum.
 Step number   3 out of a maximum of   40
 All quantities printed in internal units (Hartrees-Bohrs-Radians)
 Mixed Optimization -- RFO/linear search
 Update second derivatives using D2CorX and points    1    3    2
 DE=  8.32D-04 DEPred=-7.45D-04 R=-1.12D+00
 Trust test=-1.12D+00 RLast= 4.81D-01 DXMaxT set to 2.52D-01
 ITU= -1  1  0
 Use linear search instead of GDIIS.
     Eigenvalues ---    0.00229   0.00230   0.01383   0.01496   0.04285
     Eigenvalues ---    0.07951   0.09886   0.10341   0.10487   0.14839
     Eigenvalues ---    0.15999   0.16000   0.16000   0.16000   0.16641
     Eigenvalues ---    0.18076   0.34389   0.34492   0.34581   0.43658
     Eigenvalues ---    0.43801   0.43965   0.45335   0.50111
 RFO step:  Lambda=-4.29530295D-04 EMin= 2.28874718D-03
 Quartic linear search produced a step of -0.71183.
 Iteration  1 RMS(Cart)=  0.11760247 RMS(Int)=  0.02218972
 Iteration  2 RMS(Cart)=  0.06732185 RMS(Int)=  0.00205996
 Iteration  3 RMS(Cart)=  0.00361672 RMS(Int)=  0.00091793
 Iteration  4 RMS(Cart)=  0.00000128 RMS(Int)=  0.00091793
 Iteration  5 RMS(Cart)=  0.00000000 RMS(Int)=  0.00091793
 Variable       Old X    -DE/DX   Delta X   Delta X   Delta X     New X
                                 (Linear)    (Quad)   (Total)
    R1        1.85449  -0.00101   0.00267  -0.00238   0.00029   1.85478
    R2        2.71260  -0.01046  -0.00702  -0.00896  -0.01599   2.69662
    R3        3.57290   0.00275  -0.05584   0.06975   0.01391   3.58681
    R4        2.08339  -0.00209  -0.00526   0.00128  -0.00398   2.07941
    R5        2.10154  -0.00417  -0.00863  -0.00109  -0.00971   2.09183
    R6        2.10155  -0.00430  -0.00864  -0.00113  -0.00977   2.09179
    R7        1.92954  -0.00010   0.00187  -0.00214  -0.00027   1.92927
    R8        1.92972  -0.00010   0.00170  -0.00190  -0.00020   1.92952
    R9        1.92871  -0.00065   0.00118  -0.00167  -0.00049   1.92822
    A1        1.89082  -0.00622  -0.01484   0.00455  -0.01029   1.88053
    A2        1.85898   0.00190   0.00696   0.00893   0.01592   1.87490
    A3        1.98243  -0.00460  -0.01316  -0.01119  -0.02451   1.95792
    A4        1.98207  -0.00419  -0.01295  -0.01088  -0.02396   1.95811
    A5        1.87667   0.00228   0.00558   0.00726   0.01287   1.88954
    A6        1.87671   0.00221   0.00554   0.00728   0.01285   1.88956
    A7        1.88149   0.00305   0.00960   0.00072   0.01005   1.89154
    A8        1.82925   0.00222   0.00218  -0.00049   0.00057   1.82982
    A9        1.83029   0.00021   0.00660  -0.00442   0.00366   1.83395
   A10        2.22159  -0.00250   0.01215  -0.01568  -0.00387   2.21773
   A11        1.84796   0.00030  -0.00634   0.00797   0.00297   1.85093
   A12        1.85938  -0.00056  -0.01240   0.00812  -0.00645   1.85293
   A13        1.84746   0.00073  -0.00532   0.00834   0.00442   1.85188
   A14        2.92834   0.00519   0.32735  -0.01223   0.31530   3.24365
   A15        3.18314  -0.00005   0.05396  -0.10822  -0.05490   3.12824
    D1        2.19407  -0.00032   0.01393  -0.01294   0.00367   2.19775
    D2       -2.11979   0.00020  -0.03487   0.00407  -0.03108  -2.15087
    D3       -0.00745   0.00049   0.03223   0.02086   0.05077   0.04332
    D4       -3.14106  -0.00011  -0.00034  -0.00081  -0.00115   3.14097
    D5        1.07964  -0.00154  -0.00416  -0.00921  -0.01313   1.06651
    D6       -1.07872   0.00147   0.00355   0.00779   0.01111  -1.06762
         Item               Value     Threshold  Converged?
 Maximum Force            0.010460     0.000450     NO 
 RMS     Force            0.003179     0.000300     NO 
 Maximum Displacement     0.462002     0.001800     NO 
 RMS     Displacement     0.180032     0.001200     NO 
 Predicted change in Energy=-3.366812D-04
 GradGradGradGradGradGradGradGradGradGradGradGradGradGradGradGradGradGrad

                          Input orientation:                          
 ---------------------------------------------------------------------
 Center     Atomic      Atomic             Coordinates (Angstroms)
 Number     Number       Type             X           Y           Z
 ---------------------------------------------------------------------
      1          8           0       -1.164784    2.362004    0.202498
      2          1           0       -0.235468    2.131771   -0.013645
      3          6           0       -1.846514    2.616832   -1.024938
      4          1           0       -2.887295    2.873621   -0.776624
      5          1           0       -1.856697    1.731241   -1.688984
      6          1           0       -1.403184    3.464998   -1.581136
      7          7           0        1.610876    1.768335   -0.261754
      8          1           0        2.092394    2.438788    0.339014
      9          1           0        1.760370    0.851438    0.161934
     10          1           0        2.122690    1.759109   -1.144430
 ---------------------------------------------------------------------
                    Distance matrix (angstroms):
                    1          2          3          4          5
     1  O    0.000000
     2  H    0.981506   0.000000
     3  C    1.426988   1.963025   0.000000
     4  H    2.046333   2.857388   1.100375   0.000000
     5  H    2.110524   2.365495   1.106947   1.788733   0.000000
     6  H    2.110635   2.366027   1.106925   1.788729   1.795332
     7  N    2.876153   1.898059   3.640871   4.660503   3.749990
     8  H    3.260942   2.374357   4.172177   5.121625   4.495411
     9  H    3.292413   2.377698   4.187469   5.154698   4.157298
    10  H    3.603496   2.641677   4.062579   5.145617   4.016571
                    6          7          8          9         10
     6  H    0.000000
     7  N    3.701890   0.000000
     8  H    4.118149   1.020925   0.000000
     9  H    4.458370   1.021059   1.631342   0.000000
    10  H    3.941137   1.020371   1.632019   1.631480   0.000000
 Stoichiometry    CH7NO
 Framework group  C1[X(CH7NO)]
 Deg. of freedom    24
 Full point group                 C1      NOp   1
 Largest Abelian subgroup         C1      NOp   1
 Largest concise Abelian subgroup C1      NOp   1
                         Standard orientation:                         
 ---------------------------------------------------------------------
 Center     Atomic      Atomic             Coordinates (Angstroms)
 Number     Number       Type             X           Y           Z
 ---------------------------------------------------------------------
      1          8           0        0.744548   -0.708636   -0.002392
      2          1           0       -0.174160   -0.365109    0.033924
      3          6           0        1.628277    0.411769    0.000072
      4          1           0        2.656078    0.020822   -0.040078
      5          1           0        1.525302    1.023232    0.917046
      6          1           0        1.472605    1.068974   -0.876930
      7          7           0       -2.002653    0.142915   -0.000011
      8          1           0       -2.394627   -0.344796   -0.806722
      9          1           0       -2.415791   -0.296696    0.823773
     10          1           0       -2.376880    1.091637   -0.032233
 ---------------------------------------------------------------------
 Rotational constants (GHZ):          29.8442655           3.9232374           3.6145451
 Standard basis: Aug-CC-pVDZ (5D, 7F)
 There are   138 symmetry adapted cartesian basis functions of A   symmetry.
 There are   132 symmetry adapted basis functions of A   symmetry.
   132 basis functions,   206 primitive gaussians,   138 cartesian basis functions
    14 alpha electrons       14 beta electrons
       nuclear repulsion energy        80.7266285756 Hartrees.
 NAtoms=   10 NActive=   10 NUniq=   10 SFac= 1.00D+00 NAtFMM=   60 NAOKFM=F Big=F
 Integral buffers will be    131072 words long.
 Raffenetti 1 integral format.
 Two-electron integral symmetry is turned on.
 One-electron integrals computed using PRISM.
 NBasis=   132 RedAO= T EigKep=  4.94D-04  NBF=   132
 NBsUse=   132 1.00D-06 EigRej= -1.00D+00 NBFU=   132
 Lowest energy guess from the checkpoint file:  "/tmp/Gau-26117.chk"
 B after Tr=     0.000000   -0.000000    0.000000
         Rot=    0.999976   -0.002060   -0.000159   -0.006636 Ang=  -0.80 deg.
 B after Tr=    -0.000000    0.000000    0.000000
         Rot=    0.999918   -0.009453   -0.001076    0.008529 Ang=  -1.46 deg.
 Keep R1 ints in memory in canonical form, NReq=44566227.
 Requested convergence on RMS density matrix=1.00D-08 within 128 cycles.
 Requested convergence on MAX density matrix=1.00D-06.
 Requested convergence on             energy=1.00D-06.
 No special actions if energy rises.
 SCF Done:  E(RHF) =  -171.271733808     A.U. after   10 cycles
            NFock= 10  Conv=0.60D-08     -V/T= 2.0024
 ExpMin= 2.97D-02 ExpMax= 1.17D+04 ExpMxC= 4.01D+02 IAcc=3 IRadAn=         5 AccDes= 0.00D+00
 HarFok:  IExCor=  205 AccDes= 0.00D+00 IRadAn=         5 IDoV=-2 UseB2=F ITyADJ=14
 ICtDFT= 12500011 ScaDFX=  1.000000  1.000000  1.000000  1.000000
 Range of M.O.s used for correlation:     4   132
 NBasis=   132 NAE=    14 NBE=    14 NFC=     3 NFV=     0
 NROrb=    129 NOA=    11 NOB=    11 NVA=   118 NVB=   118

 **** Warning!!: The largest alpha MO coefficient is  0.15259700D+02

 Fully direct method using O(ONN) memory.
 JobTyp=1 Pass  1:  I=   4 to  14 NPSUse= 28 ParTrn=T ParDer=T DoDerP=T.
 Spin components of T(2) and E(2):
     alpha-alpha T2 =       0.2098394606D-01 E2=     -0.6749183349D-01
     alpha-beta  T2 =       0.1294541829D+00 E2=     -0.4314974623D+00
     beta-beta   T2 =       0.2098394606D-01 E2=     -0.6749183349D-01
 ANorm=    0.1082322537D+01
 E2 =    -0.5664811293D+00 EUMP2 =    -0.17183821493707D+03
          IDoAtm=1111111111
          Differentiating once with respect to electric field.
                with respect to dipole field.
          Differentiating once with respect to nuclear coordinates.
 Keep R1 ints in memory in canonical form, NReq=44571456.
          There are     1 degrees of freedom in the 1st order CPHF.  IDoFFX=0 NUNeed=     1.
 LinEq1:  Iter=  0 NonCon=     1 RMS=4.08D-03 Max=5.15D-02 NDo=     1
 AX will form     1 AO Fock derivatives at one time.
 LinEq1:  Iter=  1 NonCon=     1 RMS=9.36D-04 Max=7.63D-03 NDo=     1
 LinEq1:  Iter=  2 NonCon=     1 RMS=3.50D-04 Max=3.71D-03 NDo=     1
 LinEq1:  Iter=  3 NonCon=     1 RMS=6.81D-05 Max=5.52D-04 NDo=     1
 LinEq1:  Iter=  4 NonCon=     1 RMS=2.37D-05 Max=2.21D-04 NDo=     1
 LinEq1:  Iter=  5 NonCon=     1 RMS=4.11D-06 Max=3.30D-05 NDo=     1
 LinEq1:  Iter=  6 NonCon=     1 RMS=1.26D-06 Max=9.70D-06 NDo=     1
 LinEq1:  Iter=  7 NonCon=     1 RMS=4.15D-07 Max=4.16D-06 NDo=     1
 LinEq1:  Iter=  8 NonCon=     1 RMS=7.64D-08 Max=6.17D-07 NDo=     1
 LinEq1:  Iter=  9 NonCon=     1 RMS=1.16D-08 Max=8.64D-08 NDo=     1
 LinEq1:  Iter= 10 NonCon=     1 RMS=1.80D-09 Max=1.49D-08 NDo=     1
 LinEq1:  Iter= 11 NonCon=     1 RMS=3.07D-10 Max=2.12D-09 NDo=     1
 LinEq1:  Iter= 12 NonCon=     0 RMS=5.95D-11 Max=4.17D-10 NDo=     1
 Linear equations converged to 1.000D-10 1.000D-09 after    12 iterations.
 End of Minotr F.D. properties file   721 does not exist.
 End of Minotr F.D. properties file   722 does not exist.
 End of Minotr F.D. properties file   788 does not exist.
 Calling FoFJK, ICntrl=  10002127 FMM=F ISym2X=0 I1Cent= 0 IOpClX= 0 NMat=1 NMatS=1 NMatT=0.
 ***** Axes restored to original set *****
 -------------------------------------------------------------------
 Center     Atomic                   Forces (Hartrees/Bohr)
 Number     Number              X              Y              Z
 -------------------------------------------------------------------
      1        8           0.000345962   -0.000705680   -0.000179185
      2        1          -0.002718628    0.001871639   -0.001175601
      3        6           0.000421987   -0.000162625   -0.000702771
      4        1           0.000988061   -0.000250336   -0.000013747
      5        1          -0.000032230    0.000663270    0.000816605
      6        1          -0.000271184   -0.000627394    0.000749891
      7        7           0.002188712   -0.001205012    0.000889942
      8        1          -0.000162508   -0.000055484   -0.000103005
      9        1           0.000204013    0.000208667   -0.000069874
     10        1          -0.000964183    0.000262955   -0.000212254
 -------------------------------------------------------------------
 Cartesian Forces:  Max     0.002718628 RMS     0.000913038

 GradGradGradGradGradGradGradGradGradGradGradGradGradGradGradGradGradGrad
 Berny optimization.
 Using GEDIIS/GDIIS optimizer.
 FormGI is forming the generalized inverse of G from B-inverse, IUseBI=4.
 Internal  Forces:  Max     0.001478982 RMS     0.000714880
 Search for a local minimum.
 Step number   4 out of a maximum of   40
 All quantities printed in internal units (Hartrees-Bohrs-Radians)
 Mixed Optimization -- En-DIIS/RFO-DIIS
 Update second derivatives using D2CorX and points    1    3    2    4
 DE= -3.85D-04 DEPred=-3.37D-04 R= 1.14D+00
 TightC=F SS=  1.41D+00  RLast= 2.20D-01 DXNew= 4.2426D-01 6.6040D-01
 Trust test= 1.14D+00 RLast= 2.20D-01 DXMaxT set to 4.24D-01
 ITU=  1 -1  1  0
 Use linear search instead of GDIIS.
     Eigenvalues ---    0.00230   0.00378   0.01378   0.01494   0.02440
     Eigenvalues ---    0.07464   0.10193   0.10429   0.10476   0.14364
     Eigenvalues ---    0.15999   0.16000   0.16000   0.16101   0.17023
     Eigenvalues ---    0.18298   0.34492   0.34567   0.35287   0.43413
     Eigenvalues ---    0.43801   0.43966   0.44484   0.50025
 RFO step:  Lambda=-5.47881833D-04 EMin= 2.29961387D-03
 Quartic linear search produced a step of  0.00126.
 Iteration  1 RMS(Cart)=  0.09548383 RMS(Int)=  0.01657586
 Iteration  2 RMS(Cart)=  0.03842866 RMS(Int)=  0.00093264
 Iteration  3 RMS(Cart)=  0.00121513 RMS(Int)=  0.00045163
 Iteration  4 RMS(Cart)=  0.00000048 RMS(Int)=  0.00045163
 Variable       Old X    -DE/DX   Delta X   Delta X   Delta X     New X
                                 (Linear)    (Quad)   (Total)
    R1        1.85478  -0.00148  -0.00000  -0.00721  -0.00721   1.84757
    R2        2.69662  -0.00131  -0.00001  -0.00929  -0.00929   2.68733
    R3        3.58681   0.00132   0.00012   0.12630   0.12641   3.71322
    R4        2.07941  -0.00100   0.00000   0.00084   0.00085   2.08026
    R5        2.09183  -0.00104   0.00000   0.00002   0.00002   2.09185
    R6        2.09179  -0.00097   0.00000   0.00021   0.00021   2.09199
    R7        1.92927  -0.00017  -0.00000  -0.00362  -0.00363   1.92564
    R8        1.92952  -0.00019  -0.00000  -0.00332  -0.00333   1.92620
    R9        1.92822  -0.00030  -0.00000  -0.00315  -0.00315   1.92507
    A1        1.88053  -0.00138   0.00001   0.00156   0.00156   1.88209
    A2        1.87490  -0.00029   0.00001   0.00335   0.00335   1.87825
    A3        1.95792  -0.00009  -0.00001  -0.00554  -0.00555   1.95237
    A4        1.95811  -0.00030  -0.00001  -0.00670  -0.00673   1.95137
    A5        1.88954   0.00014   0.00001   0.00561   0.00562   1.89516
    A6        1.88956   0.00018   0.00001   0.00573   0.00574   1.89530
    A7        1.89154   0.00038  -0.00000  -0.00153  -0.00159   1.88995
    A8        1.82982   0.00010  -0.00000  -0.00327  -0.00283   1.82699
    A9        1.83395   0.00075  -0.00001   0.00087   0.00036   1.83431
   A10        2.21773  -0.00147  -0.00003  -0.03444  -0.03484   2.18288
   A11        1.85093   0.00006   0.00001   0.01553   0.01637   1.86730
   A12        1.85293   0.00035   0.00001   0.01145   0.01173   1.86466
   A13        1.85188   0.00040   0.00001   0.01775   0.01666   1.86854
   A14        3.24365   0.00009  -0.00018  -0.04617  -0.04659   3.19706
   A15        3.12824   0.00107  -0.00016   0.27947   0.27946   3.40770
    D1        2.19775  -0.00024  -0.00002   0.00251   0.00305   2.20080
    D2       -2.15087   0.00007   0.00002   0.01117   0.00966  -2.14121
    D3        0.04332   0.00002   0.00001  -0.06269  -0.06178  -0.01846
    D4        3.14097   0.00005  -0.00000   0.00089   0.00089  -3.14132
    D5        1.06651   0.00011  -0.00001  -0.00490  -0.00490   1.06162
    D6       -1.06762  -0.00010   0.00001   0.00616   0.00613  -1.06149
         Item               Value     Threshold  Converged?
 Maximum Force            0.001479     0.000450     NO 
 RMS     Force            0.000715     0.000300     NO 
 Maximum Displacement     0.317288     0.001800     NO 
 RMS     Displacement     0.128355     0.001200     NO 
 Predicted change in Energy=-3.020948D-04
 GradGradGradGradGradGradGradGradGradGradGradGradGradGradGradGradGradGrad

                          Input orientation:                          
 ---------------------------------------------------------------------
 Center     Atomic      Atomic             Coordinates (Angstroms)
 Number     Number       Type             X           Y           Z
 ---------------------------------------------------------------------
      1          8           0       -1.159244    2.388172    0.174189
      2          1           0       -0.213501    2.299672   -0.057367
      3          6           0       -1.881977    2.622105   -1.027985
      4          1           0       -2.945845    2.721425   -0.763157
      5          1           0       -1.773299    1.784806   -1.743861
      6          1           0       -1.554811    3.552965   -1.529968
      7          7           0        1.660501    1.740296   -0.247767
      8          1           0        2.186398    2.400954    0.322616
      9          1           0        1.715963    0.835088    0.217520
     10          1           0        2.158203    1.652652   -1.132285
 ---------------------------------------------------------------------
                    Distance matrix (angstroms):
                    1          2          3          4          5
     1  O    0.000000
     2  H    0.977692   0.000000
     3  C    1.422073   1.957007   0.000000
     4  H    2.044901   2.853370   1.100824   0.000000
     5  H    2.102388   2.354213   1.106959   1.792736   0.000000
     6  H    2.101754   2.353383   1.107035   1.792885   1.794401
     7  N    2.923825   1.964952   3.733026   4.737792   3.745833
     8  H    3.348957   2.431904   4.292401   5.255619   4.508788
     9  H    3.268144   2.437909   4.205934   5.123715   4.113871
    10  H    3.640511   2.683107   4.156173   5.227795   3.980980
                    6          7          8          9         10
     6  H    0.000000
     7  N    3.907434   0.000000
     8  H    4.330802   1.019006   0.000000
     9  H    4.597666   1.019299   1.638381   0.000000
    10  H    4.189966   1.018705   1.636303   1.638891   0.000000
 Stoichiometry    CH7NO
 Framework group  C1[X(CH7NO)]
 Deg. of freedom    24
 Full point group                 C1      NOp   1
 Largest Abelian subgroup         C1      NOp   1
 Largest concise Abelian subgroup C1      NOp   1
                         Standard orientation:                         
 ---------------------------------------------------------------------
 Center     Atomic      Atomic             Coordinates (Angstroms)
 Number     Number       Type             X           Y           Z
 ---------------------------------------------------------------------
      1          8           0        0.750522   -0.687879    0.007523
      2          1           0       -0.146869   -0.320221   -0.116566
      3          6           0        1.670402    0.396581    0.000027
      4          1           0        2.679210   -0.021302    0.139654
      5          1           0        1.469069    1.113559    0.819029
      6          1           0        1.646870    0.949145   -0.958955
      7          7           0       -2.053765    0.139563   -0.000873
      8          1           0       -2.483681   -0.341482   -0.789632
      9          1           0       -2.386816   -0.320098    0.845743
     10          1           0       -2.428018    1.087002    0.006496
 ---------------------------------------------------------------------
 Rotational constants (GHZ):          31.0821557           3.7549589           3.4883363
 Standard basis: Aug-CC-pVDZ (5D, 7F)
 There are   138 symmetry adapted cartesian basis functions of A   symmetry.
 There are   132 symmetry adapted basis functions of A   symmetry.
   132 basis functions,   206 primitive gaussians,   138 cartesian basis functions
    14 alpha electrons       14 beta electrons
       nuclear repulsion energy        80.2812168517 Hartrees.
 NAtoms=   10 NActive=   10 NUniq=   10 SFac= 1.00D+00 NAtFMM=   60 NAOKFM=F Big=F
 Integral buffers will be    131072 words long.
 Raffenetti 1 integral format.
 Two-electron integral symmetry is turned on.
 One-electron integrals computed using PRISM.
 NBasis=   132 RedAO= T EigKep=  4.92D-04  NBF=   132
 NBsUse=   132 1.00D-06 EigRej= -1.00D+00 NBFU=   132
 Initial guess from the checkpoint file:  "/tmp/Gau-26117.chk"
 B after Tr=     0.000000   -0.000000   -0.000000
         Rot=    0.999900    0.014023    0.001378    0.001035 Ang=   1.62 deg.
 ExpMin= 2.97D-02 ExpMax= 1.17D+04 ExpMxC= 4.01D+02 IAcc=3 IRadAn=         5 AccDes= 0.00D+00
 Harris functional with IExCor=  205 and IRadAn=       5 diagonalized for initial guess.
 HarFok:  IExCor=  205 AccDes= 0.00D+00 IRadAn=         5 IDoV= 1 UseB2=F ITyADJ=14
 ICtDFT=  3500011 ScaDFX=  1.000000  1.000000  1.000000  1.000000
 FoFCou: FMM=F IPFlag=           0 FMFlag=      100000 FMFlg1=           0
         NFxFlg=           0 DoJE=T BraDBF=F KetDBF=T FulRan=T
         wScrn=  0.000000 ICntrl=       500 IOpCl=  0 I1Cent=   200000004 NGrid=           0
         NMat0=    1 NMatS0=      1 NMatT0=    0 NMatD0=    1 NMtDS0=    0 NMtDT0=    0
 Petite list used in FoFCou.
 Keep R1 ints in memory in canonical form, NReq=44565259.
 Requested convergence on RMS density matrix=1.00D-08 within 128 cycles.
 Requested convergence on MAX density matrix=1.00D-06.
 Requested convergence on             energy=1.00D-06.
 No special actions if energy rises.
 SCF Done:  E(RHF) =  -171.272528762     A.U. after   11 cycles
            NFock= 11  Conv=0.33D-08     -V/T= 2.0023
 ExpMin= 2.97D-02 ExpMax= 1.17D+04 ExpMxC= 4.01D+02 IAcc=3 IRadAn=         5 AccDes= 0.00D+00
 HarFok:  IExCor=  205 AccDes= 0.00D+00 IRadAn=         5 IDoV=-2 UseB2=F ITyADJ=14
 ICtDFT= 12500011 ScaDFX=  1.000000  1.000000  1.000000  1.000000
 Range of M.O.s used for correlation:     4   132
 NBasis=   132 NAE=    14 NBE=    14 NFC=     3 NFV=     0
 NROrb=    129 NOA=    11 NOB=    11 NVA=   118 NVB=   118

 **** Warning!!: The largest alpha MO coefficient is  0.13300818D+02

 Fully direct method using O(ONN) memory.
 JobTyp=1 Pass  1:  I=   4 to  14 NPSUse= 28 ParTrn=T ParDer=T DoDerP=T.
 Spin components of T(2) and E(2):
     alpha-alpha T2 =       0.2089140267D-01 E2=     -0.6730597101D-01
     alpha-beta  T2 =       0.1290978983D+00 E2=     -0.4308676209D+00
     beta-beta   T2 =       0.2089140267D-01 E2=     -0.6730597101D-01
 ANorm=    0.1082072411D+01
 E2 =    -0.5654795629D+00 EUMP2 =    -0.17183800832461D+03
          IDoAtm=1111111111
          Differentiating once with respect to electric field.
                with respect to dipole field.
          Differentiating once with respect to nuclear coordinates.
 Keep R1 ints in memory in canonical form, NReq=44570664.
          There are     1 degrees of freedom in the 1st order CPHF.  IDoFFX=0 NUNeed=     1.
 LinEq1:  Iter=  0 NonCon=     1 RMS=4.06D-03 Max=4.35D-02 NDo=     1
 AX will form     1 AO Fock derivatives at one time.
 LinEq1:  Iter=  1 NonCon=     1 RMS=9.27D-04 Max=6.69D-03 NDo=     1
 LinEq1:  Iter=  2 NonCon=     1 RMS=3.47D-04 Max=3.64D-03 NDo=     1
 LinEq1:  Iter=  3 NonCon=     1 RMS=6.75D-05 Max=4.85D-04 NDo=     1
 LinEq1:  Iter=  4 NonCon=     1 RMS=2.33D-05 Max=2.15D-04 NDo=     1
 LinEq1:  Iter=  5 NonCon=     1 RMS=3.97D-06 Max=3.00D-05 NDo=     1
 LinEq1:  Iter=  6 NonCon=     1 RMS=1.20D-06 Max=9.45D-06 NDo=     1
 LinEq1:  Iter=  7 NonCon=     1 RMS=4.03D-07 Max=4.25D-06 NDo=     1
 LinEq1:  Iter=  8 NonCon=     1 RMS=7.59D-08 Max=6.53D-07 NDo=     1
 LinEq1:  Iter=  9 NonCon=     1 RMS=1.14D-08 Max=8.31D-08 NDo=     1
 LinEq1:  Iter= 10 NonCon=     1 RMS=1.80D-09 Max=1.18D-08 NDo=     1
 LinEq1:  Iter= 11 NonCon=     1 RMS=3.10D-10 Max=2.09D-09 NDo=     1
 LinEq1:  Iter= 12 NonCon=     0 RMS=6.15D-11 Max=4.05D-10 NDo=     1
 Linear equations converged to 1.000D-10 1.000D-09 after    12 iterations.
 End of Minotr F.D. properties file   721 does not exist.
 End of Minotr F.D. properties file   722 does not exist.
 End of Minotr F.D. properties file   788 does not exist.
 Calling FoFJK, ICntrl=  10002127 FMM=F ISym2X=0 I1Cent= 0 IOpClX= 0 NMat=1 NMatS=1 NMatT=0.
 ***** Axes restored to original set *****
 -------------------------------------------------------------------
 Center     Atomic                   Forces (Hartrees/Bohr)
 Number     Number              X              Y              Z
 -------------------------------------------------------------------
      1        8           0.000857435    0.001216845    0.003157012
      2        1          -0.000630461   -0.003076931   -0.000335080
      3        6           0.000265933    0.000724725   -0.003471431
      4        1           0.001460106   -0.000148094   -0.000315813
      5        1          -0.000889767    0.000646452    0.000494957
      6        1          -0.001370207   -0.000638504    0.000280879
      7        7          -0.001777602    0.001971456   -0.000197548
      8        1           0.001405243   -0.000428882    0.000473672
      9        1           0.000337333   -0.000034024    0.000125889
     10        1           0.000341985   -0.000233043   -0.000212536
 -------------------------------------------------------------------
 Cartesian Forces:  Max     0.003471431 RMS     0.001299931

 GradGradGradGradGradGradGradGradGradGradGradGradGradGradGradGradGradGrad
 Berny optimization.
 Using GEDIIS/GDIIS optimizer.
 FormGI is forming the generalized inverse of G from B-inverse, IUseBI=4.
 Internal  Forces:  Max     0.002860299 RMS     0.001033976
 Search for a local minimum.
 Step number   5 out of a maximum of   40
 All quantities printed in internal units (Hartrees-Bohrs-Radians)
 Mixed Optimization -- RFO/linear search
 Update second derivatives using D2CorX and points    1    3    2    5    4
 DE=  2.07D-04 DEPred=-3.02D-04 R=-6.84D-01
 Trust test=-6.84D-01 RLast= 3.20D-01 DXMaxT set to 2.12D-01
 ITU= -1  1 -1  1  0
 Use linear search instead of GDIIS.
     Eigenvalues ---    0.00230   0.01139   0.01472   0.01501   0.02172
     Eigenvalues ---    0.07907   0.10376   0.10460   0.10494   0.14339
     Eigenvalues ---    0.16000   0.16000   0.16019   0.16344   0.17017
     Eigenvalues ---    0.17879   0.34494   0.34561   0.34716   0.43541
     Eigenvalues ---    0.43806   0.43963   0.45086   0.49713
 RFO step:  Lambda=-8.32231108D-05 EMin= 2.29905802D-03
 Quartic linear search produced a step of -0.64851.
 Iteration  1 RMS(Cart)=  0.09122273 RMS(Int)=  0.00474925
 Iteration  2 RMS(Cart)=  0.00672237 RMS(Int)=  0.00022157
 Iteration  3 RMS(Cart)=  0.00001759 RMS(Int)=  0.00022113
 Iteration  4 RMS(Cart)=  0.00000000 RMS(Int)=  0.00022113
 Variable       Old X    -DE/DX   Delta X   Delta X   Delta X     New X
                                 (Linear)    (Quad)   (Total)
    R1        1.84757  -0.00003   0.00467  -0.00371   0.00096   1.84853
    R2        2.68733   0.00286   0.00602  -0.00071   0.00531   2.69264
    R3        3.71322  -0.00009  -0.08198   0.04062  -0.04136   3.67187
    R4        2.08026  -0.00150  -0.00055  -0.00321  -0.00376   2.07650
    R5        2.09185  -0.00091  -0.00001  -0.00262  -0.00263   2.08922
    R6        2.09199  -0.00107  -0.00013  -0.00255  -0.00269   2.08931
    R7        1.92564   0.00071   0.00235  -0.00054   0.00181   1.92745
    R8        1.92620   0.00011   0.00216  -0.00098   0.00118   1.92737
    R9        1.92507   0.00037   0.00204  -0.00083   0.00121   1.92628
    A1        1.88209  -0.00026  -0.00101  -0.00391  -0.00492   1.87717
    A2        1.87825  -0.00084  -0.00218  -0.00391  -0.00609   1.87216
    A3        1.95237   0.00069   0.00360   0.00180   0.00538   1.95775
    A4        1.95137   0.00138   0.00437   0.00187   0.00623   1.95761
    A5        1.89516  -0.00067  -0.00365  -0.00134  -0.00498   1.89018
    A6        1.89530  -0.00077  -0.00372  -0.00125  -0.00497   1.89033
    A7        1.88995   0.00010   0.00103   0.00260   0.00361   1.89356
    A8        1.82699   0.00183   0.00184   0.00293   0.00445   1.83144
    A9        1.83431  -0.00011  -0.00023   0.00315   0.00332   1.83763
   A10        2.18288  -0.00006   0.02260  -0.01381   0.00888   2.19176
   A11        1.86730  -0.00085  -0.01061   0.00203  -0.00861   1.85869
   A12        1.86466  -0.00041  -0.00761   0.00374  -0.00427   1.86038
   A13        1.86854  -0.00055  -0.01080   0.00375  -0.00648   1.86206
[...]
 017588,0.00000606,0.00009476,-0.00003592,0.00001598,0.00002921,-0.0000
 4975,0.00002464,0.00005190,0.00000004,0.35037223,1.48102287,-0.0001175
 3,0.00003030,-0.00012319,-0.00005548,-0.00003159,-0.00068180,0.0000239
 7,-0.00000740,0.00000167,-0.00006016,0.00002862,-0.00008530,-0.0000587
 6,-0.00003310,0.00000348,-0.00003594,0.00005978,0.00001706,0.06536099,
 -0.00893136,1.50747519,-0.00036050,0.00019167,-0.00001064,0.00085752,-
 0.00025366,-0.00004802,0.00011016,-0.00000522,0.00022335,-0.00003171,-
 0.00000377,-0.00005129,0.00002384,-0.00003566,-0.00003491,0.00002722,0
 .00001604,-0.00003663,-0.27845973,-0.70523345,-0.55971145,0.24715824,-
 0.00045194,-0.00000382,-0.00010982,0.00130166,0.00038901,0.00001363,0.
 00018475,-0.00004782,0.00043224,-0.00003993,-0.00002121,-0.00003638,0.
 00002122,-0.00002901,-0.00004283,0.00004782,-0.00001431,-0.00003466,-0
 .66898190,-0.50355693,-0.63063062,0.69196325,0.50704114,-0.00037330,0.
 00004680,-0.00013884,0.00103562,0.00027621,0.00007291,0.00009255,-0.00
 005283,0.00036045,-0.00002408,-0.00001991,-0.00003198,0.00003609,-0.00
 003979,-0.00003211,0.00003926,0.00000982,-0.00003206,-0.53517823,-0.63
 604592,-0.22427655,0.54896087,0.64740617,0.21859468,-0.00018087,-0.000
 11014,0.00001791,0.00033508,0.00029681,0.00000636,0.00000655,-0.000022
 26,-0.00000191,-0.00001079,0.00000376,-0.00002975,-0.00000708,-0.00001
 677,-0.00001963,0.00001898,0.00001264,-0.00000824,0.22998226,0.3633613
 5,-0.15475080,0.01415500,-0.02069943,0.00579244,-0.25820878,0.00059226
 ,-0.00020893,0.00011526,-0.00140514,0.00099094,0.00010991,-0.00020683,
 0.00013362,-0.00053387,0.00003489,-0.00005424,0.00005312,-0.00005817,0
 .00001476,0.00005338,-0.00005484,-0.00003583,0.00005166,0.32321696,-1.
 25186796,0.64224047,0.00692750,-0.01313975,0.01592701,-0.33153856,1.25
 693259,-0.00025958,0.00010200,-0.00011170,0.00058643,-0.00052726,0.000
 00458,0.00005578,-0.00002999,0.00027100,-0.00000607,0.00002492,-0.0000
 1957,0.00002251,-0.00001843,-0.00002627,0.00004212,0.00001946,-0.00001
 933,-0.13700664,0.63806382,0.01717931,-0.00046358,-0.02269925,0.015232
 96,0.14230235,-0.65112784,-0.02751488,-0.00024456,0.00006267,-0.000155
 93,0.00058977,-0.00013130,0.00006633,-0.00005485,-0.00000816,0.0002162
 4,-0.00004401,0.00001704,-0.00006896,-0.00001445,-0.00000804,-0.000022
 84,-0.00000342,0.00001794,-0.00002146,0.04828681,-0.00844068,0.6494051
 6,0.01651994,-0.00334550,-0.02038123,0.01390964,0.00249191,-0.00527333
 ,-0.07894488,-0.00000264,-0.00003035,0.00002262,-0.00000462,0.00006924
 ,-0.00010453,0.00003050,-0.00002255,0.00000576,0.00000409,0.00000496,0
 .00000836,-0.00000370,0.00000195,0.00000392,0.00001689,0.00000050,0.00
 000187,-0.00453049,0.27550715,-0.00272512,0.00643329,0.00938270,-0.027
 50755,-0.01128743,0.00723478,0.03619256,0.00934411,-0.29214839,0.00056
 982,-0.00014016,0.00011684,-0.00127102,0.00020413,0.00101292,-0.000238
 94,0.00010352,-0.00060595,0.00008075,-0.00002529,0.00008611,-0.0000330
 2,0.00006051,0.00002493,-0.00005551,-0.00004326,0.00001586,0.60684834,
 0.00692600,-1.29950987,0.01117230,0.00570154,-0.00974946,0.00669125,-0
 .00688910,-0.00499609,-0.62376397,-0.00589790,1.31360472,5.79706207,-1
 .51362501,-0.98397931,-1.39300997,0.29573467,-1.02009008,-5.77921052,1
 .51480216,1.35769010,5.71840208,1.51235330,0.99356222,-0.28392129,-1.4
 9884403,-0.98303696,1.38752428,-0.29076485,0.98511284,-1.34572301,0.27
 971691,-0.95401096,-0.00434833,-0.00586476,0.03988278,0.01349191,0.001
 86124,-0.03562625,-0.01371030,-0.00322567,-0.01378584,-0.01349319,0.00
 013643,0.00798890,0.00998892,0.00362160,-0.00097321,0.00763958,-0.0060
 9377,0.03728646,-0.01458807,0.00515373,-0.01337106,-0.00540939,0.00410
 282,-0.03445293,-0.00150334,0.00090205,-0.00374639,0.00376555,-0.00088
 200,-0.00063731,0.00134001,0.00002218,0.00321433,-0.00024971,0.0008032
 4,0.00084655,0.00087834,-0.00168087,0.00003426,0.00038101,0.00045986,0
 .00257062,-0.00091330,-0.00044387,-0.00199758,-0.00252331,0.00059359,0
 .00087659,0.00908379,-0.00184250,-0.00318624,-0.00214453,0.00031868,0.
 00480028,0.00031401,0.00000265,-0.00304080,-0.00051816,-0.00126719,-0.
 00010117,0.00152421,0.00175123,0.00186510,0.00253756,-0.00090290,-0.00
 051167,-0.00036116,0.00010649,-0.00016802,-0.00274021,-0.00130117,0.00
 188121,-0.00083702,0.00159941,-0.00150088,-0.00149900,0.00046583,0.001
 47872,0.00291445,0.00007873,-0.00052170,-0.00045692,0.00042814,-0.0008
 9912,-0.00086434,-0.00044852,-0.00245103,0.00333195,0.00097836,0.00225
 716,0.00096891,-0.00021425,0.00366290,0.00013449,-0.00002548,-0.000127
 03,-0.00109737,-0.00027060,-0.00310457,0.00094923,0.00160982,0.0006580
 1,-0.00052929,-0.00253964,0.00186505,0.00256198,0.00070122,-0.00170347
 ,-0.00046941,-0.00013814,0.00001314,-0.00009931,-0.00000588,-0.0000780
 7,-0.00269415,0.00178026,0.00009854,0.00126453,-0.00253093,0.00071751,
 0.00019951,-0.00099541,0.00195802,-0.00271470,-0.00014108,-0.00047883,
 0.00042191,-0.00018883,-0.00050855,-0.00028725,0.00053948,-0.00118125,
 -0.00018728,0.00124300,-0.00212300,0.00211503,-0.00266807,0.00208136,0
 .00075876,-0.00048822,0.00318505,0.00009930,-0.00009838,-0.00005951,0.
 00003733,0.00027525,-0.00035709,-0.00076549,0.00105022,-0.00290112,-0.
 00828077,0.00253345,-0.00119506,0.03065906,-0.01141493,-0.00707998,-0.
 00203865,-0.00014216,0.00894417,-0.00207675,0.00073800,-0.00378981,-0.
 00024012,-0.00099039,-0.00185717,0.00024385,0.00119718,-0.00158367,0.0
 1102891,0.00234568,0.00181842,0.00032084,-0.01102546,-0.01943131,0.001
 59054,0.00046098,0.00060228,-0.00189870,0.00037447,-0.00036460,0.00078
 881,0.00006004,0.00007686,0.00017951,-0.00013942,-0.00044917,0.0005506
 5,0.00292940,0.02519468,0.00119020,-0.00022301,0.00176636,-0.01207509,
 0.00272678,-0.02108500,0.00157335,-0.00021423,-0.00122902,0.00062422,-
 0.00021985,0.00072660,0.00000663,-0.00008488,0.00016052,0.00002421,0.0
 0002159,0.00020306,0.00543468,-0.00194945,0.03229523,-0.00108424,0.000
 55338,-0.00001286,0.00103881,-0.00524091,-0.00381266,0.00021337,-0.000
 05699,0.00065345,-0.00009404,0.00000383,-0.00019962,-0.00001176,-0.000
 14574,-0.00021807,-0.00005155,0.00010077,-0.00007539,-0.00786461,0.007
 36048,0.00433290,0.00571409,0.00142318,-0.00051119,0.00002917,-0.00272
 700,0.00270999,0.00250280,-0.00013905,0.00007980,-0.00055579,0.0001069
 0,-0.00003548,0.00010193,0.00000016,0.00005099,0.00010859,-0.00000445,
 -0.00008190,0.00008985,0.00019230,-0.00536635,-0.00536763,-0.00074458,
 0.00216908,0.00127209,-0.00033321,-0.00017114,-0.00235025,0.00200725,0
 .00082039,-0.00008545,0.00004082,-0.00026216,0.00007828,-0.00002165,0.
 00005340,-0.00000412,0.00002929,0.00004923,-0.00000340,-0.00001918,0.0
 0003052,-0.00084942,-0.00430859,-0.00190452,0.00035968,0.00284544,0.00
 044191,-0.00179043,0.00005694,-0.00007036,0.00477966,0.00510594,-0.003
 53492,0.00023094,-0.00016203,0.00083438,-0.00012320,0.00007735,-0.0002
 2337,-0.00009086,-0.00007637,-0.00012484,0.00006658,0.00017899,-0.0002
 1922,-0.01062709,-0.00607761,0.00489314,0.00105500,0.00092928,0.000706
 56,0.00567501,-0.00103767,0.00020040,0.00000043,0.00239423,-0.00047351
 ,-0.00072374,0.00005883,-0.00001179,0.00026175,-0.00007500,0.00000116,
 -0.00001634,0.00001136,-0.00003321,-0.00005822,0.00000021,-0.00001124,
 -0.00001329,0.00188390,-0.00413467,0.00268290,-0.00132235,0.00049336,-
 0.00004492,-0.00066047,0.00319700,0.00106788,-0.00019419,-0.00016764,-
 0.00246962,-0.00079111,0.00029084,-0.00006752,0.00003281,-0.00018784,0
 .00006175,-0.00002002,0.00004285,0.00000392,0.00000500,0.00001895,-0.0
 0001611,-0.00002748,0.00003408,0.00110410,0.00366254,-0.00044550,0.000
 45192,-0.00021170,0.00042704,-0.00082564,-0.00231678,-0.00051773,-0.00
 127553,0.00029917,-0.00009507,0.00607853,-0.00215019,0.00515970,-0.000
 27849,0.00000831,0.00092668,-0.00022794,0.00007411,-0.00036227,-0.0000
 0019,-0.00005256,-0.00019549,0.00002206,0.00005958,-0.00017938,-0.0108
 0384,0.00371145,-0.00600424,0.00108492,0.00096326,0.00087603,0.0008243
 7,-0.00125305,0.00068930,0.00457611,0.00048387,-0.00013102,0.00002351,
 -0.00212394,-0.00057023,-0.00139211,0.00007088,0.00009249,-0.00025648,
 0.00005761,-0.00005441,0.00008817,0.00000150,-0.00002432,0.00003785,-0
 .00002320,-0.00006313,0.00005899,0.00307325,0.00205387,0.00262777,-0.0
 0050788,0.00049170,-0.00019525,0.00062798,0.00077249,-0.00013906,-0.00
 166007,-0.00256744,-0.00210914,0.00048629,-0.00003937,0.00498517,-0.00
 136006,0.00109068,0.00014933,-0.00007417,0.00056833,-0.00014267,0.0000
 3668,-0.00008613,-0.00003064,-0.00007556,-0.00010903,0.00000612,0.0000
 9085,-0.00009334,0.00087216,0.00106384,-0.01048772,-0.00147937,0.00045
 733,0.00051532,-0.00143571,0.00022819,0.00050496,-0.00081526,-0.000853
 38,0.00813629,0.00083898,-0.00011617,0.00024925,-0.00008370,0.00002282
 ,0.00016580,-0.00052416,0.00004868,0.00030667,0.00013721,0.00005051,-0
 .00022558,-0.00005917,0.00011263,0.00051647,0.00035849,-0.00008025,-0.
 00027168,-0.00059060,0.00014492,0.00036028,-0.00020712,0.00001656,-0.0
 0008655,0.00015964,-0.00004130,0.00004482,-0.00009063,0.00001160,-0.00
 012133,0.00000327,-0.00002776,-0.00000156,-0.00001273,-0.00002359,-0.0
 0010480,-0.00001766,-0.00000448,-0.00004577,-0.00008039,0.00000603,0.0
 0004622,0.00010439,-0.00001558,0.00001899,0.00000804,0.00000144,-0.000
 01049,0.00001485,-0.00001207,0.00000062,0.00006514,-0.00000496,-0.0000
 4979,-0.00002228,0.00000023,0.00002065,0.00000300,-0.00001587,-0.00003
 262,-0.00000318,-0.00000235,0.00003512,0.00001064,0.00000540,-0.000012
 21,0.00001294,-0.00000601,0.00002022,0.00005489,-0.00001529,0.00000403
 ,-0.00010340,0.00002632,0.00007911,0.00003784,-0.00000548,-0.00006597,
 0.00003154,-0.00000440,0.00002232,0.00000151,0.00000718,-0.00001573,-0
 .00001077,-0.00001545,-0.00001391,-0.00000909,0.00002143,0.00000922,0.
 00002054,-0.00001360,0.00000901,-0.00002396,-0.00000276,-0.00000868,0.
 00000848,-0.00000711,0.00010452,0.00001817,0.00001945,-0.00001600,-0.0
 0001109,0.00000526,-0.00006635,-0.00000279,0.00001164,0.00002119,0.000
 01404,0.00000826,0.00000168,0.00001519,0.00001268,-0.00004184,0.000017
 29,-0.00002856,-0.00001394,-0.00001699,0.00000682,0.00004256,0.0000384
 7,-0.00001355,0.00003740,-0.00000600,-0.00000775,-0.00001576,0.0000420
 4,0.00007328,-0.00003119,-0.00002837,-0.00001905,0.00000990,-0.0000102
 8,0.00000504,-0.00000381,-0.00002074,0.00000286,0.00000398,0.00001087,
 -0.00000544,-0.00000567,-0.00000175,0.00006170,0.00006685,-0.00000043,
 -0.00001920,-0.00000168,0.00000463,-0.00001582,-0.00003568,-0.00000866
 ,-0.00004753,-0.00003093,-0.00000376,-0.00000675,0.00002986,0.00001011
 ,-0.00001167,-0.00000428,-0.00000328,-0.00001127,-0.00004224,0.0000248
 3,0.00001702,-0.00000669,0.00000064,0.00000964,-0.00000205,-0.00001180
 ,-0.00000861,0.00002984,0.00035846,0.00023977,-0.00039275,-0.00021136,
 -0.00086552,0.00012804,0.00000914,-0.00004121,0.00038249,-0.00006790,0
 .00005333,-0.00008985,0.00000211,-0.00001428,-0.00000319,-0.00002741,0
 .00005253,-0.00002313,0.09929631,0.00023220,0.00124633,0.00017846,-0.0
 0079086,-0.00380832,-0.00031137,-0.00002465,-0.00002031,-0.00006676,0.
 00004398,0.00012124,0.00002955,0.00011350,0.00004325,0.00005925,-0.000
 07287,0.00008281,-0.00004366,0.57365276,2.65984155,-0.00029712,0.00014
 813,0.00081027,-0.00170049,0.00006848,-0.00111874,0.00013557,0.0000248
 8,-0.00074320,0.00005105,-0.00000404,0.00008943,0.00000244,0.00005964,
 0.00007711,-0.00004485,-0.00004788,0.00005808,1.24143598,0.02232576,0.
 27873492,-0.00045647,-0.00005793,0.00002548,0.00056559,0.00025919,0.00
 001968,0.00004152,0.00004033,0.00000948,0.00000807,-0.00002499,0.00001
 292,-0.00000508,-0.00001567,-0.00005111,0.00002058,-0.00001242,0.00000
 970,-0.47029613,-1.16640077,-0.97276215,0.46400715,0.00026057,-0.00049
 761,-0.00025749,0.00062996,0.00144557,0.00029998,0.00004068,-0.0000303
 2,0.00025250,0.00001024,-0.00004573,-0.00001155,-0.00002776,-0.0000435
 3,-0.00004586,0.00005239,-0.00001267,-0.00000292,-1.14885930,-0.739169
 19,-1.07454539,1.14980778,0.72106375,-0.00002961,-0.00054068,-0.000333
 32,0.00132439,0.00119192,0.00051808,-0.00005035,0.00002002,0.00032359,
 -0.00003669,-0.00003158,-0.00003563,-0.00001503,-0.00003551,-0.0000658
 1,0.00006670,-0.00002541,0.00001321,-0.95898474,-1.07551350,-0.3468582
 8,0.95645302,1.07200942,0.35957386,-0.00048816,0.00003125,0.00012383,0
 .00030865,0.00031846,-0.00005174,-0.00000735,-0.00002886,-0.00012729,0
 .00000374,-0.00000358,0.00001773,-0.00000294,0.00000791,0.00001151,0.0
 0000378,-0.00000680,-0.00002124,0.38259592,0.59590892,-0.26326091,-0.0
 0152204,-0.00238236,0.00170587,-0.38555356,-0.00028586,-0.00049519,0.0
 0013736,-0.00016183,0.00179004,-0.00001465,-0.00002564,0.00005605,-0.0
 0023436,-0.00003238,-0.00004724,-0.00000541,-0.00006952,0.00000628,-0.
 00001061,0.00000174,-0.00006032,0.00005701,0.57599436,-1.89991039,1.05
 085858,0.00845883,0.00896190,0.00536772,-0.58564215,1.87788643,0.00012
 375,0.00045535,-0.00021080,0.00065406,-0.00136278,0.00025709,-0.000062
 32,-0.00003598,0.00027050,-0.00002402,0.00003837,-0.00002818,0.0000570
 5,-0.00000739,0.00001258,0.00000395,0.00003775,-0.00005034,-0.25352371
 ,1.04628279,0.05915279,0.00104774,-0.00222761,-0.00438000,0.25060918,-
 1.05009056,-0.04609079,0.00040039,-0.00014566,0.00005779,-0.00044593,0
 .00017866,0.00012219,-0.00000163,0.00001662,-0.00017614,0.00002780,-0.
 00001455,0.00003782,-0.00001755,0.00001577,0.00001987,-0.00001209,-0.0
 0000989,0.00001794,-0.01165914,-0.00266221,-0.00355951,0.00763680,0.00
 046779,-0.00043357,0.00466195,0.00176246,0.00111431,-0.00059060,-0.000
 14234,-0.00018953,-0.00001515,0.00021324,0.00033033,-0.00002946,0.0000
 0569,0.00001577,0.00003428,-0.00001190,-0.00002155,-0.00000567,-0.0000
 1441,0.00000718,-0.00000495,0.00002831,-0.00000670,0.00000121,-0.00021
 244,-0.01842698,0.00111183,0.00794565,0.00832782,-0.00244239,-0.008202
 80,0.01181245,0.00691008,0.00039099,-0.00184880,-0.00006055,0.00000023
 ,-0.00018578,0.00000732,0.00002932,0.00020731,0.00000594,-0.00001160,0
 .00013463,-0.00001063,0.00000382,-0.00004238,-0.00003001,-0.00002480,-
 0.00003148,-0.00001052,0.00003949,-0.00002537,-0.02892915,0.00705949,0
 .00979762,0.01523524,0.00452891,-0.00875571,0.01099306,-0.00606508,-0.
 00893286,0.00279930,-0.00555977,0.00783404,0.00102214,-0.00016560,0.00
 020753,-0.00019082,0.00005384,0.00022271,-0.00087847,0.00013086,0.0001
 2341,0.00108830,0.00011707,-0.00027466,-0.00002726,-0.00008501,0.00064
 308,0.00006197,-0.00002261,-0.00027656,0.00003303,0.00000691,0.0004654
 9,-0.00006252,0.00002486,-0.00011856,-0.00001732,0.00001353,0.00017176
 ,-0.00018796,0.00002686,0.00003744,0.00002166,0.00002272,0.00004564,-0
 .00003399,-0.00000248,-0.00007837,-0.00017334,0.00004909,-0.00011201,-
 0.00004354,0.00000689,0.00008981,0.00021107,-0.00006487,0.00037352,0.0
 0001750,-0.00000357,0.00001424,-0.00001627,-0.00000556,0.00000533,0.00
 007966,-0.00002428,-0.00004878,-0.00003290,-0.00000571,0.00002006,0.00
 000004,-0.00000393,-0.00003836,-0.00000457,-0.00002076,-0.00001701,0.0
 0001480,0.00001616,0.00000544,0.00004757,-0.00001078,-0.00002039,0.000
 00545,-0.00000328,-0.00001035,-0.00009397,0.00002751,0.00001206,0.0000
 0375,-0.00000221,-0.00001263,-0.00002326,0.00002691,-0.00000462,-0.000
 00278,-0.00001264,0.00000207,0.00006310,0.00001110,0.00002507,-0.00001
 524,-0.00000688,0.00000478,-0.00002776,0.00001598,-0.00002925,0.000006
 14,-0.00000607,-0.00004191,-0.00000235,-0.00001983,0.00005182,-0.00008
 057,0.00000234,0.00000824,0.00000777,-0.00002031,-0.00002682,0.0000298
 3,0.00002373,0.00002314,0.00001175,-0.00000094,0.00001100,-0.00002809,
 -0.00005335,-0.00009415,0.00001358,-0.00001279,-0.00000468,-0.00002653
 ,0.00004865,0.00005622,-0.00003494,-0.00002031,0.00000055,-0.00000626,
 -0.00000754,-0.00000158,0.00008901,-0.00000944,0.00003031,-0.00000848,
 0.00001288,0.00000306,-0.00000318,0.00001048,-0.00000455,-0.00004084,-
 0.00000901,-0.00000622,-0.00000648,-0.00001508,-0.00003868,-0.00000259
 ,0.00002202,0.00002733,0.00006609,0.00000380,0.00000312,-0.00001082,-0
 .00000613,0.00000719,0.00000132,0.00001023,-0.00002926,0.00001462,-0.0
 0003686,0.00002452,0.00000791,-0.00001152,0.00000502,-0.00001384,0.000
 06397,-0.00006192,0.00001784,0.00000461,-0.00000272,-0.00000243,0.0000
 1078,-0.00000882,-0.00002852,-0.00003936,0.00002645,0.00041248,0.00000
 893,0.00017200,-0.00046636,-0.00032224,-0.00113130,0.00022508,-0.00007
 838,0.00044538,-0.00001927,0.00001564,-0.00003245,-0.00002620,-0.00000
 998,-0.00005233,-0.00002411,0.00004378,-0.00004408,-0.12175665,-0.0000
 2462,0.00050570,-0.00012984,-0.00034956,-0.00218295,0.00040879,-0.0000
 6560,0.00005854,-0.00003584,0.00001951,0.00003476,-0.00000679,0.000023
 86,0.00002311,-0.00001256,-0.00000811,0.00003267,0.00000510,0.13074370
 ,0.28303626,0.00064601,-0.00022824,0.00103615,0.00006610,0.00016434,-0
 .00352690,0.00025956,-0.00002335,-0.00028905,-0.00008631,0.00000562,0.
 00016023,0.00007622,0.00002325,0.00013445,0.00006016,-0.00007533,0.000
 13401,-1.17208198,-0.04497823,2.87949641,0.00010969,-0.00010429,-0.000
 10879,0.00001904,0.00017561,0.00032965,-0.00002626,-0.00001827,-0.0000
 9133,0.00001411,-0.00000486,0.00000858,-0.00000520,-0.00000686,-0.0000
 0068,0.00000753,0.00002037,0.00001249,-0.14310240,-0.35189615,-0.24667
 431,0.13690490,-0.00013444,-0.00024636,-0.00023863,0.00072944,0.000624
 95,0.00030994,0.00007730,-0.00001884,0.00023936,-0.00001268,-0.0000131
 0,-0.00003539,-0.00001991,-0.00003209,-0.00004922,0.00002922,0.0000114
 1,-0.00001686,-0.33136290,-0.25457255,-0.28436164,0.34932085,0.2656563
 1,0.00010551,0.00001153,-0.00011096,-0.00010342,-0.00006009,0.00023574
 ,-0.00005449,0.00005007,0.00003935,0.00001773,-0.00001324,-0.00001514,
 -0.00000598,-0.00002200,-0.00001085,-0.00000084,0.00001113,-0.00000239
 ,-0.23337050,-0.28824129,-0.05882427,0.24908121,0.28963074,0.03946585,
 0.00006429,-0.00007086,0.00001266,-0.00016840,0.00022131,0.00016520,-0
 .00003249,0.00005579,-0.00017604,0.00001445,-0.00001208,0.00002262,-0.
 00001315,-0.00001366,0.00001633,0.00000248,-0.00001211,0.00001756,0.13
 688290,0.22296112,-0.07949005,0.00738255,-0.01258619,-0.00046990,-0.14
 525622,-0.00007441,-0.00033199,0.00026245,-0.00033334,0.00103940,-0.00
 035071,-0.00004614,0.00003719,-0.00021447,-0.00000608,-0.00002370,0.00
 003126,-0.00001939,0.00003289,0.00001813,0.00000120,-0.00005457,0.0000
 4524,0.20048650,-0.74975538,0.34155417,0.00485885,-0.00629680,0.003353
 84,-0.20974671,0.76367311,0.00012173,-0.00008653,-0.00006967,-0.000150
 93,0.00019281,0.00019747,-0.00009482,-0.00002417,-0.00001142,0.0000234
 9,0.00000603,-0.00000744,-0.00000549,-0.00000193,0.00000284,0.00000515
 ,0.00001337,0.00000077,-0.06975680,0.34035853,0.05654032,-0.00129336,-
 0.00694474,0.00797739,0.08215967,-0.33971579,-0.07633490,-0.00062694,0
 .00017309,0.00009993,0.00044851,-0.00009454,0.00036386,-0.00013031,0.0
 0001637,-0.00017880,-0.00003356,0.00000954,0.00003060,0.00005367,0.000
 04792,0.00004070,0.00001880,-0.00005787,0.00001844,0.12787452,-0.00140
 414,1.49722460,-0.00130395,-0.00604068,-0.01519933,0.00112358,0.004879
 51,-0.01100864,-0.12742433,0.00025388,0.00011773,0.00005809,-0.0000900
 2,0.00022349,-0.00030880,0.00001710,-0.00014375,0.00001951,0.00001036,
 0.00002055,0.00000274,0.00002340,0.00000683,0.00003704,-0.00001862,0.0
 0004701,-0.00002511,0.00047495,0.72281984,-0.01208059,-0.00234524,-0.0
 0511293,-0.00472071,-0.00079661,-0.00832016,0.00620241,0.00247080,-0.7
 0965860,-0.00066309,0.00024683,-0.00071693,0.00005024,-0.00026786,0.00
 280927,-0.00023863,0.00003651,0.00005379,0.00003913,0.00000173,-0.0000
 9895,-0.00006310,0.00001027,-0.00010916,-0.00006372,0.00004265,-0.0001
 1491,1.47585205,-0.00736787,-2.87486136,-0.00126346,0.00146643,0.01124
 527,-0.00225807,-0.00498412,0.01170463,-1.47139135,0.01081541,2.850088
 35\\@


 LIFE IS SO UNCERTAIN - EAT DESSERT FIRST.
 Job cpu time:       0 days 19 hours 29 minutes 23.3 seconds.
 Elapsed time:       0 days  0 hours 42 minutes 38.5 seconds.
 File lengths (MBytes):  RWF=   1393 Int=      0 D2E=      0 Chk=     43 Scr=      1
 Normal termination of Gaussian 16 at Mon Jun  6 16:16:33 2022.
