 Entering Gaussian System, Link 0=g16
 Input=meoh_h2o_mp2_avtz_opt_anharm.gjf
 Output=meoh_h2o_mp2_avtz_opt_anharm.log
 Initial command:
 /sw/contrib/gaussian/g16/A03/g16/l1.exe "/gscratch/scrubbed/gds001/Gau-26604.inp" -scrdir="/gscratch/scrubbed/gds001/"
 Entering Link 1 = /sw/contrib/gaussian/g16/A03/g16/l1.exe PID=     26605.
  
 Copyright (c) 1988,1990,1992,1993,1995,1998,2003,2009,2016,
            Gaussian, Inc.  All Rights Reserved.
  
 This is part of the Gaussian(R) 16 program.  It is based on
 the Gaussian(R) 09 system (copyright 2009, Gaussian, Inc.),
 the Gaussian(R) 03 system (copyright 2003, Gaussian, Inc.),
 the Gaussian(R) 98 system (copyright 1998, Gaussian, Inc.),
 the Gaussian(R) 94 system (copyright 1995, Gaussian, Inc.),
 the Gaussian 92(TM) system (copyright 1992, Gaussian, Inc.),
 the Gaussian 90(TM) system (copyright 1990, Gaussian, Inc.),
 the Gaussian 88(TM) system (copyright 1988, Gaussian, Inc.),
 the Gaussian 86(TM) system (copyright 1986, Carnegie Mellon
 University), and the Gaussian 82(TM) system (copyright 1983,
 Carnegie Mellon University). Gaussian is a federally registered
 trademark of Gaussian, Inc.
  
 This software contains proprietary and confidential information,
 including trade secrets, belonging to Gaussian, Inc.
  
 This software is provided under written license and may be
 used, copied, transmitted, or stored only in accord with that
 written license.
  
 The following legend is applicable only to US Government
 contracts under FAR:
  
                    RESTRICTED RIGHTS LEGEND
  
 Use, reproduction and disclosure by the US Government is
 subject to restrictions as set forth in subparagraphs (a)
 and (c) of the Commercial Computer Software - Restricted
 Rights clause in FAR 52.227-19.
  
 Gaussian, Inc.
 340 Quinnipiac St., Bldg. 40, Wallingford CT 06492
  
  
 ---------------------------------------------------------------
 Warning -- This program may not be used in any manner that
 competes with the business of Gaussian, Inc. or will provide
 assistance to any competitor of Gaussian, Inc.  The licensee
 of this program is prohibited from giving any competitor of
 Gaussian, Inc. access to this program.  By using this program,
 the user acknowledges that Gaussian, Inc. is engaged in the
 business of creating and licensing software in the field of
 computational chemistry and represents and warrants to the
 licensee that it is not a competitor of Gaussian, Inc. and that
 it will not use this program in any manner prohibited above.
 ---------------------------------------------------------------
  

 Cite this work as:
 Gaussian 16, Revision A.03,
 M. J. Frisch, G. W. Trucks, H. B. Schlegel, G. E. Scuseria, 
 M. A. Robb, J. R. Cheeseman, G. Scalmani, V. Barone, 
 G. A. Petersson, H. Nakatsuji, X. Li, M. Caricato, A. V. Marenich, 
 J. Bloino, B. G. Janesko, R. Gomperts, B. Mennucci, H. P. Hratchian, 
 J. V. Ortiz, A. F. Izmaylov, J. L. Sonnenberg, D. Williams-Young, 
 F. Ding, F. Lipparini, F. Egidi, J. Goings, B. Peng, A. Petrone, 
 T. Henderson, D. Ranasinghe, V. G. Zakrzewski, J. Gao, N. Rega, 
 G. Zheng, W. Liang, M. Hada, M. Ehara, K. Toyota, R. Fukuda, 
 J. Hasegawa, M. Ishida, T. Nakajima, Y. Honda, O. Kitao, H. Nakai, 
 T. Vreven, K. Throssell, J. A. Montgomery, Jr., J. E. Peralta, 
 F. Ogliaro, M. J. Bearpark, J. J. Heyd, E. N. Brothers, K. N. Kudin, 
 V. N. Staroverov, T. A. Keith, R. Kobayashi, J. Normand, 
 K. Raghavachari, A. P. Rendell, J. C. Burant, S. S. Iyengar, 
 J. Tomasi, M. Cossi, J. M. Millam, M. Klene, C. Adamo, R. Cammi, 
 J. W. Ochterski, R. L. Martin, K. Morokuma, O. Farkas, 
 J. B. Foresman, and D. J. Fox, Gaussian, Inc., Wallingford CT, 2016.
 
 ******************************************
 Gaussian 16:  ES64L-G16RevA.03 25-Dec-2016
                20-Dec-2021 
 ******************************************
 %nprocshared=28
 Will use up to   28 processors via shared memory.
 %mem=41GB
 ----------------------------------------------
 # MP2/aug-cc-pVTZ opt freq=(vibrot,anharmonic)
 ----------------------------------------------
 1/18=20,19=15,38=1,80=1/1,3;
 2/9=110,12=2,17=6,18=5,40=1/2;
 3/5=16,6=1,7=10,11=9,25=1,30=1,71=1/1,2,3;
 4//1;
 5/5=2,38=5/2;
 8/6=4,10=1/1;
 9/15=2,16=-3/6;
 10/5=1/2;
 6/7=2,8=2,9=2,10=2/1;
 7/12=2/1,2,3,16;
 1/18=20,19=15,80=1/3(2);
 2/9=110/2;
 99//99;
 2/9=110/2;
 3/5=16,6=1,7=10,11=9,25=1,30=1,71=1/1,2,3;
 4/5=5,16=3,69=1/1;
 5/5=2,38=5/2;
 8/6=4,10=1/1;
 9/15=2,16=-3/6;
 10/5=1/2;
 7/12=2/1,2,3,16;
 1/18=20,19=15,80=1/3(-8);
 2/9=110/2;
 6/7=2,8=2,9=2,10=2/1;
 99//99;
 ----
 bleh
 ----
 Symbolic Z-matrix:
 Charge =  0 Multiplicity = 1
 O                    -2.01869  -0.22157  -0.00047 
 H                    -2.50772   0.11585   0.76204 
 H                    -2.49813   0.12812  -0.76357 
 O                     0.73996   0.7123    0.00097 
 C                     1.62683  -0.4087   -0.00052 
 H                    -0.16895   0.36843   0.0036 
 H                     2.64988  -0.0088   -0.00463 
 H                     1.49375  -1.03988  -0.89672 
 H                     1.49999  -1.03731   0.89839 
 
 Add virtual bond connecting atoms H6         and O1         Dist= 3.67D+00.

 GradGradGradGradGradGradGradGradGradGradGradGradGradGradGradGradGradGrad
 Berny optimization.
 Initialization pass.
                           ----------------------------
                           !    Initial Parameters    !
                           ! (Angstroms and Degrees)  !
 --------------------------                            --------------------------
 ! Name  Definition              Value          Derivative Info.                !
 --------------------------------------------------------------------------------
 ! R1    R(1,2)                  0.9667         estimate D2E/DX2                !
 ! R2    R(1,3)                  0.9667         estimate D2E/DX2                !
 ! R3    R(1,6)                  1.9416         estimate D2E/DX2                !
 ! R4    R(4,5)                  1.4294         estimate D2E/DX2                !
 ! R5    R(4,6)                  0.9718         estimate D2E/DX2                !
 ! R6    R(5,7)                  1.0984         estimate D2E/DX2                !
 ! R7    R(5,8)                  1.1042         estimate D2E/DX2                !
 ! R8    R(5,9)                  1.1042         estimate D2E/DX2                !
 ! A1    A(2,1,3)              104.2119         estimate D2E/DX2                !
 ! A2    A(2,1,6)              111.978          estimate D2E/DX2                !
 ! A3    A(3,1,6)              111.3612         estimate D2E/DX2                !
 ! A4    A(5,4,6)              107.6257         estimate D2E/DX2                !
 ! A5    A(4,5,7)              106.9989         estimate D2E/DX2                !
 ! A6    A(4,5,8)              111.9844         estimate D2E/DX2                !
 ! A7    A(4,5,9)              111.9836         estimate D2E/DX2                !
 ! A8    A(7,5,8)              108.5008         estimate D2E/DX2                !
 ! A9    A(7,5,9)              108.499          estimate D2E/DX2                !
 ! A10   A(8,5,9)              108.7517         estimate D2E/DX2                !
 ! A11   L(1,6,4,8,-1)         182.6152         estimate D2E/DX2                !
 ! A12   L(1,6,4,8,-2)         178.2331         estimate D2E/DX2                !
 ! D1    D(2,1,3,6)            120.9038         estimate D2E/DX2                !
 ! D2    D(2,1,4,5)            122.0639         estimate D2E/DX2                !
 ! D3    D(3,1,4,5)           -122.3691         estimate D2E/DX2                !
 ! D4    D(6,4,5,7)            179.9382         estimate D2E/DX2                !
 ! D5    D(6,4,5,8)             61.171          estimate D2E/DX2                !
 ! D6    D(6,4,5,9)            -61.2973         estimate D2E/DX2                !
 --------------------------------------------------------------------------------
 Trust Radius=3.00D-01 FncErr=1.00D-07 GrdErr=1.00D-07 EigMax=2.50D+02 EigMin=1.00D-04
 Number of steps in this run=     36 maximum allowed number of steps=    100.
 GradGradGradGradGradGradGradGradGradGradGradGradGradGradGradGradGradGrad

                          Input orientation:                          
 ---------------------------------------------------------------------
 Center     Atomic      Atomic             Coordinates (Angstroms)
 Number     Number       Type             X           Y           Z
 ---------------------------------------------------------------------
      1          8           0       -2.018686   -0.221568   -0.000470
      2          1           0       -2.507716    0.115848    0.762043
      3          1           0       -2.498134    0.128124   -0.763567
      4          8           0        0.739962    0.712297    0.000967
      5          6           0        1.626829   -0.408704   -0.000518
      6          1           0       -0.168954    0.368425    0.003600
      7          1           0        2.649882   -0.008801   -0.004625
      8          1           0        1.493750   -1.039885   -0.896719
      9          1           0        1.499985   -1.037314    0.898394
 ---------------------------------------------------------------------
                    Distance matrix (angstroms):
                    1          2          3          4          5
     1  O    0.000000
     2  H    0.966657   0.000000
     3  H    0.966681   1.525689   0.000000
     4  O    2.912429   3.388569   3.378023   0.000000
     5  C    3.650315   4.236876   4.229155   1.429398   0.000000
     6  H    1.941550   2.471606   2.464015   0.971794   1.956728
     7  H    4.673416   5.215758   5.205460   2.041521   1.098443
     8  H    3.716196   4.483184   4.161383   2.108122   1.104208
     9  H    3.722156   4.172534   4.483895   2.108115   1.104211
                    6          7          8          9
     6  H    0.000000
     7  H    2.843977   0.000000
     8  H    2.357646   1.787626   0.000000
     9  H    2.358414   1.787609   1.795126   0.000000
 Stoichiometry    CH6O2
 Framework group  C1[X(CH6O2)]
 Deg. of freedom    21
 Full point group                 C1      NOp   1
 Largest Abelian subgroup         C1      NOp   1
 Largest concise Abelian subgroup C1      NOp   1
                         Standard orientation:                         
 ---------------------------------------------------------------------
 Center     Atomic      Atomic             Coordinates (Angstroms)
 Number     Number       Type             X           Y           Z
 ---------------------------------------------------------------------
      1          8           0       -2.018686   -0.221568   -0.000470
      2          1           0       -2.507716    0.115848    0.762043
      3          1           0       -2.498134    0.128124   -0.763567
      4          8           0        0.739962    0.712297    0.000967
      5          6           0        1.626829   -0.408704   -0.000518
      6          1           0       -0.168954    0.368425    0.003600
      7          1           0        2.649882   -0.008801   -0.004625
      8          1           0        1.493750   -1.039885   -0.896719
      9          1           0        1.499985   -1.037314    0.898394
 ---------------------------------------------------------------------
 Rotational constants (GHZ):          31.8292454           3.8037928           3.5305086
 Standard basis: Aug-CC-pVTZ (5D, 7F)
 There are   315 symmetry adapted cartesian basis functions of A   symmetry.
 There are   276 symmetry adapted basis functions of A   symmetry.
   276 basis functions,   378 primitive gaussians,   315 cartesian basis functions
    14 alpha electrons       14 beta electrons
       nuclear repulsion energy        78.1821880588 Hartrees.
 NAtoms=    9 NActive=    9 NUniq=    9 SFac= 1.00D+00 NAtFMM=   60 NAOKFM=F Big=F
 Integral buffers will be    131072 words long.
 Raffenetti 1 integral format.
 Two-electron integral symmetry is turned on.
 One-electron integrals computed using PRISM.
 NBasis=   276 RedAO= T EigKep=  5.47D-05  NBF=   276
 NBsUse=   276 1.00D-06 EigRej= -1.00D+00 NBFU=   276
 ExpMin= 2.53D-02 ExpMax= 1.53D+04 ExpMxC= 5.22D+02 IAcc=3 IRadAn=         5 AccDes= 0.00D+00
 Harris functional with IExCor=  205 and IRadAn=       5 diagonalized for initial guess.
 HarFok:  IExCor=  205 AccDes= 0.00D+00 IRadAn=         5 IDoV= 1 UseB2=F ITyADJ=14
 ICtDFT=  3500011 ScaDFX=  1.000000  1.000000  1.000000  1.000000
 FoFCou: FMM=F IPFlag=           0 FMFlag=      100000 FMFlg1=           0
         NFxFlg=           0 DoJE=T BraDBF=F KetDBF=T FulRan=T
         wScrn=  0.000000 ICntrl=       500 IOpCl=  0 I1Cent=   200000004 NGrid=           0
         NMat0=    1 NMatS0=      1 NMatT0=    0 NMatD0=    1 NMtDS0=    0 NMtDT0=    0
 Petite list used in FoFCou.
 Keep R1 ints in memory in canonical form, NReq=746411103.
 Requested convergence on RMS density matrix=1.00D-08 within 128 cycles.
 Requested convergence on MAX density matrix=1.00D-06.
 Requested convergence on             energy=1.00D-06.
 No special actions if energy rises.
 SCF Done:  E(RHF) =  -191.155964424     A.U. after   11 cycles
            NFock= 11  Conv=0.36D-08     -V/T= 2.0020
 ExpMin= 2.53D-02 ExpMax= 1.53D+04 ExpMxC= 5.22D+02 IAcc=3 IRadAn=         5 AccDes= 0.00D+00
 HarFok:  IExCor=  205 AccDes= 0.00D+00 IRadAn=         5 IDoV=-2 UseB2=F ITyADJ=14
 ICtDFT= 12500011 ScaDFX=  1.000000  1.000000  1.000000  1.000000
 Range of M.O.s used for correlation:     4   276
 NBasis=   276 NAE=    14 NBE=    14 NFC=     3 NFV=     0
 NROrb=    273 NOA=    11 NOB=    11 NVA=   262 NVB=   262

 **** Warning!!: The largest alpha MO coefficient is  0.43113397D+02

 Fully direct method using O(ONN) memory.
 JobTyp=1 Pass  1:  I=   4 to  14 NPSUse= 28 ParTrn=T ParDer=T DoDerP=T.
 Spin components of T(2) and E(2):
     alpha-alpha T2 =       0.2223109025D-01 E2=     -0.8354512607D-01
     alpha-beta  T2 =       0.1355870833D+00 E2=     -0.5429349725D+00
     beta-beta   T2 =       0.2223109025D-01 E2=     -0.8354512607D-01
 ANorm=    0.1086300724D+01
 E2 =    -0.7100252246D+00 EUMP2 =    -0.19186598964815D+03
          IDoAtm=111111111
          Differentiating once with respect to electric field.
                with respect to dipole field.
          Differentiating once with respect to nuclear coordinates.
 Keep R1 ints in memory in canonical form, NReq=746412816.
          There are     1 degrees of freedom in the 1st order CPHF.  IDoFFX=0 NUNeed=     1.
 LinEq1:  Iter=  0 NonCon=     1 RMS=2.69D-03 Max=3.48D-02 NDo=     1
 AX will form     1 AO Fock derivatives at one time.
 LinEq1:  Iter=  1 NonCon=     1 RMS=5.45D-04 Max=5.27D-03 NDo=     1
 LinEq1:  Iter=  2 NonCon=     1 RMS=1.98D-04 Max=3.76D-03 NDo=     1
 LinEq1:  Iter=  3 NonCon=     1 RMS=4.96D-05 Max=4.73D-04 NDo=     1
 LinEq1:  Iter=  4 NonCon=     1 RMS=2.03D-05 Max=3.23D-04 NDo=     1
 LinEq1:  Iter=  5 NonCon=     1 RMS=3.51D-06 Max=5.09D-05 NDo=     1
 LinEq1:  Iter=  6 NonCon=     1 RMS=6.53D-07 Max=6.45D-06 NDo=     1
 LinEq1:  Iter=  7 NonCon=     1 RMS=1.09D-07 Max=1.10D-06 NDo=     1
 LinEq1:  Iter=  8 NonCon=     1 RMS=1.84D-08 Max=2.68D-07 NDo=     1
 LinEq1:  Iter=  9 NonCon=     1 RMS=3.73D-09 Max=4.06D-08 NDo=     1
 LinEq1:  Iter= 10 NonCon=     1 RMS=1.14D-09 Max=1.42D-08 NDo=     1
 LinEq1:  Iter= 11 NonCon=     1 RMS=4.11D-10 Max=3.48D-09 NDo=     1
 LinEq1:  Iter= 12 NonCon=     0 RMS=8.63D-11 Max=9.27D-10 NDo=     1
 Linear equations converged to 1.000D-10 1.000D-09 after    12 iterations.
 End of Minotr F.D. properties file   721 does not exist.
 End of Minotr F.D. properties file   722 does not exist.
 End of Minotr F.D. properties file   788 does not exist.

 **********************************************************************

            Population analysis using the SCF density.

 **********************************************************************

 Orbital symmetries:
       Occupied  (A) (A) (A) (A) (A) (A) (A) (A) (A) (A) (A) (A)
                 (A) (A)
       Virtual   (A) (A) (A) (A) (A) (A) (A) (A) (A) (A) (A) (A)
                 (A) (A) (A) (A) (A) (A) (A) (A) (A) (A) (A) (A)
                 (A) (A) (A) (A) (A) (A) (A) (A) (A) (A) (A) (A)
                 (A) (A) (A) (A) (A) (A) (A) (A) (A) (A) (A) (A)
                 (A) (A) (A) (A) (A) (A) (A) (A) (A) (A) (A) (A)
                 (A) (A) (A) (A) (A) (A) (A) (A) (A) (A) (A) (A)
                 (A) (A) (A) (A) (A) (A) (A) (A) (A) (A) (A) (A)
                 (A) (A) (A) (A) (A) (A) (A) (A) (A) (A) (A) (A)
                 (A) (A) (A) (A) (A) (A) (A) (A) (A) (A) (A) (A)
                 (A) (A) (A) (A) (A) (A) (A) (A) (A) (A) (A) (A)
                 (A) (A) (A) (A) (A) (A) (A) (A) (A) (A) (A) (A)
                 (A) (A) (A) (A) (A) (A) (A) (A) (A) (A) (A) (A)
                 (A) (A) (A) (A) (A) (A) (A) (A) (A) (A) (A) (A)
                 (A) (A) (A) (A) (A) (A) (A) (A) (A) (A) (A) (A)
                 (A) (A) (A) (A) (A) (A) (A) (A) (A) (A) (A) (A)
                 (A) (A) (A) (A) (A) (A) (A) (A) (A) (A) (A) (A)
                 (A) (A) (A) (A) (A) (A) (A) (A) (A) (A) (A) (A)
                 (A) (A) (A) (A) (A) (A) (A) (A) (A) (A) (A) (A)
                 (A) (A) (A) (A) (A) (A) (A) (A) (A) (A) (A) (A)
                 (A) (A) (A) (A) (A) (A) (A) (A) (A) (A) (A) (A)
                 (A) (A) (A) (A) (A) (A) (A) (A) (A) (A) (A) (A)
                 (A) (A) (A) (A) (A) (A) (A) (A) (A) (A)
 The electronic state is 1-A.
 Alpha  occ. eigenvalues --  -20.59429 -20.53076 -11.25810  -1.37745  -1.32600
 Alpha  occ. eigenvalues --   -0.90199  -0.73837  -0.67294  -0.60961  -0.59588
 Alpha  occ. eigenvalues --   -0.56909  -0.53809  -0.47832  -0.42752
 Alpha virt. eigenvalues --    0.02265   0.04131   0.04274   0.05570   0.06098
 Alpha virt. eigenvalues --    0.06829   0.10920   0.13252   0.13450   0.14051
 Alpha virt. eigenvalues --    0.15241   0.16716   0.17065   0.17903   0.19850
 Alpha virt. eigenvalues --    0.20875   0.21470   0.21716   0.24818   0.24935
 Alpha virt. eigenvalues --    0.27787   0.29061   0.29698   0.31068   0.31925
 Alpha virt. eigenvalues --    0.32740   0.34222   0.35253   0.35969   0.37517
 Alpha virt. eigenvalues --    0.38246   0.39249   0.40401   0.41034   0.41219
 Alpha virt. eigenvalues --    0.42257   0.43998   0.44407   0.45722   0.46481
 Alpha virt. eigenvalues --    0.47462   0.47819   0.48350   0.51228   0.52499
 Alpha virt. eigenvalues --    0.56136   0.56198   0.61296   0.63547   0.64128
 Alpha virt. eigenvalues --    0.67413   0.70254   0.73042   0.73560   0.75619
 Alpha virt. eigenvalues --    0.77547   0.79809   0.80463   0.81531   0.82153
 Alpha virt. eigenvalues --    0.82896   0.85167   0.85794   0.86622   0.90417
 Alpha virt. eigenvalues --    0.91356   0.92249   0.93412   0.94351   0.96189
 Alpha virt. eigenvalues --    0.96513   0.97408   0.99470   1.00164   1.01002
 Alpha virt. eigenvalues --    1.01987   1.02250   1.03686   1.05787   1.06582
 Alpha virt. eigenvalues --    1.08318   1.09091   1.09370   1.12711   1.13424
 Alpha virt. eigenvalues --    1.15334   1.16262   1.16915   1.19009   1.20369
 Alpha virt. eigenvalues --    1.21058   1.22825   1.24276   1.28399   1.29338
 Alpha virt. eigenvalues --    1.29483   1.33690   1.33849   1.34866   1.38038
 Alpha virt. eigenvalues --    1.39429   1.45077   1.48105   1.51276   1.51500
 Alpha virt. eigenvalues --    1.55072   1.59563   1.60432   1.63119   1.63960
 Alpha virt. eigenvalues --    1.66318   1.68065   1.68387   1.69500   1.69755
 Alpha virt. eigenvalues --    1.72698   1.74898   1.78883   1.81918   1.84475
 Alpha virt. eigenvalues --    1.85548   1.92103   1.93593   1.97286   1.99373
 Alpha virt. eigenvalues --    2.04270   2.07242   2.08215   2.10658   2.12658
 Alpha virt. eigenvalues --    2.15755   2.19947   2.21935   2.24779   2.36005
 Alpha virt. eigenvalues --    2.37315   2.39521   2.48077   2.48351   2.49834
 Alpha virt. eigenvalues --    2.53717   2.55659   2.61008   2.63583   2.64362
 Alpha virt. eigenvalues --    2.69025   2.73004   2.75708   2.80102   2.81044
 Alpha virt. eigenvalues --    2.82281   2.86796   2.88124   2.91625   2.92173
 Alpha virt. eigenvalues --    2.93368   3.02914   3.05738   3.12428   3.22359
 Alpha virt. eigenvalues --    3.32011   3.36048   3.39953   3.55949   3.56802
 Alpha virt. eigenvalues --    3.59629   3.65678   3.67679   3.74360   3.79505
 Alpha virt. eigenvalues --    3.81818   3.87272   3.89000   3.91780   3.95760
 Alpha virt. eigenvalues --    4.01066   4.04938   4.06941   4.09688   4.10138
 Alpha virt. eigenvalues --    4.17323   4.20652   4.20979   4.23321   4.23669
 Alpha virt. eigenvalues --    4.28218   4.28820   4.29362   4.33388   4.45922
 Alpha virt. eigenvalues --    4.46098   4.49630   4.51886   4.54874   4.56824
 Alpha virt. eigenvalues --    4.57928   4.60037   4.65197   4.66429   4.75021
 Alpha virt. eigenvalues --    4.77989   4.78203   4.80333   4.82966   4.88854
 Alpha virt. eigenvalues --    4.94928   5.01289   5.01554   5.04400   5.11408
 Alpha virt. eigenvalues --    5.13403   5.15471   5.20589   5.23733   5.26018
 Alpha virt. eigenvalues --    5.26654   5.31199   5.43831   5.51575   5.52350
 Alpha virt. eigenvalues --    5.57183   5.58399   5.65219   5.65829   5.71419
 Alpha virt. eigenvalues --    5.79626   6.07106   6.09892   6.16005   6.19339
 Alpha virt. eigenvalues --    6.38280   6.52249   6.61259   6.64820   6.65377
 Alpha virt. eigenvalues --    6.81501   6.93511   6.93632   6.97672   7.08068
 Alpha virt. eigenvalues --    7.15796   7.24757   7.27890   7.33635   7.35228
 Alpha virt. eigenvalues --    7.36748   7.41291   7.42448   7.51030   7.53546
 Alpha virt. eigenvalues --    7.57262   7.65412   7.80065   7.90902   7.92324
 Alpha virt. eigenvalues --    7.96245   8.19288   8.59887   8.85320  15.53091
 Alpha virt. eigenvalues --   16.64495  17.53645
          Condensed to atoms (all electrons):
               1          2          3          4          5          6
     1  O    7.919317   0.289529   0.289665  -0.020925   0.013430  -0.048712
     2  H    0.289529   0.473788   0.014220  -0.001283   0.000755   0.000353
     3  H    0.289665   0.014220   0.473291  -0.001261   0.000772   0.000466
     4  O   -0.020925  -0.001283  -0.001261   8.335521   0.086292   0.177546
     5  C    0.013430   0.000755   0.000772   0.086292   5.402471   0.013886
     6  H   -0.048712   0.000353   0.000466   0.177546   0.013886   0.522377
     7  H    0.000883   0.000013   0.000014   0.005184   0.395994  -0.009296
     8  H    0.001677   0.000116   0.000166  -0.000602   0.379370   0.006664
     9  H    0.001691   0.000146   0.000111  -0.000663   0.379453   0.006641
               7          8          9
     1  O    0.000883   0.001677   0.001691
     2  H    0.000013   0.000116   0.000146
     3  H    0.000014   0.000166   0.000111
     4  O    0.005184  -0.000602  -0.000663
     5  C    0.395994   0.379370   0.379453
     6  H   -0.009296   0.006664   0.006641
     7  H    0.266358   0.010591   0.010796
     8  H    0.010591   0.296327   0.003617
     9  H    0.010796   0.003617   0.295949
 Mulliken charges:
               1
     1  O   -0.446555
     2  H    0.222362
     3  H    0.222556
     4  O   -0.579808
     5  C   -0.672424
     6  H    0.330075
     7  H    0.319461
     8  H    0.302076
     9  H    0.302257
 Sum of Mulliken charges =  -0.00000
 Mulliken charges with hydrogens summed into heavy atoms:
               1
     1  O   -0.001637
     4  O   -0.249734
     5  C    0.251370
 Electronic spatial extent (au):  <R**2>=            350.8158
 Charge=             -0.0000 electrons
 Dipole moment (field-independent basis, Debye):
    X=             -2.7635    Y=             -0.6661    Z=              0.0017  Tot=              2.8426
 Quadrupole moment (field-independent basis, Debye-Ang):
   XX=            -10.8373   YY=            -22.8602   ZZ=            -18.0087
   XY=             -4.5853   XZ=             -0.0228   YZ=             -0.0280
 Traceless Quadrupole moment (field-independent basis, Debye-Ang):
   XX=              6.3981   YY=             -5.6248   ZZ=             -0.7733
   XY=             -4.5853   XZ=             -0.0228   YZ=             -0.0280
 Octapole moment (field-independent basis, Debye-Ang**2):
  XXX=            -29.6581  YYY=              0.5587  ZZZ=              0.0004  XYY=             -3.1211
  XXY=              7.3122  XXZ=              0.0807  XZZ=             -9.6727  YZZ=              0.0069
  YYZ=             -0.0048  XYZ=              0.0584
 Hexadecapole moment (field-independent basis, Debye-Ang**3):
 XXXX=           -262.2004 YYYY=            -57.3840 ZZZZ=            -26.1444 XXXY=            -12.7596
 XXXZ=             -0.3738 YYYX=             -0.4692 YYYZ=             -0.0153 ZZZX=              0.0059
 ZZZY=             -0.0373 XXYY=            -71.2068 XXZZ=            -47.1527 YYZZ=            -13.6390
 XXYZ=             -0.1741 YYXZ=              0.0035 ZZXY=             -1.0496
 N-N= 7.818218805879D+01 E-N=-6.082171850825D+02  KE= 1.907776745501D+02
 Calling FoFJK, ICntrl=  10002127 FMM=F ISym2X=0 I1Cent= 0 IOpClX= 0 NMat=1 NMatS=1 NMatT=0.
 ***** Axes restored to original set *****
 -------------------------------------------------------------------
 Center     Atomic                   Forces (Hartrees/Bohr)
 Number     Number              X              Y              Z
 -------------------------------------------------------------------
      1        8          -0.004251403    0.003178166   -0.000021711
      2        1           0.002218050   -0.001528221   -0.003099741
      3        1           0.002162231   -0.001590381    0.003112836
      4        8           0.000887094   -0.007031949    0.000003188
      5        6           0.000813863   -0.000157368   -0.000001352
      6        1           0.003803589    0.001013218   -0.000003066
      7        1          -0.007126667   -0.002798122    0.000028442
      8        1           0.000768533    0.004466423    0.006210148
      9        1           0.000724710    0.004448234   -0.006228745
 -------------------------------------------------------------------
 Cartesian Forces:  Max     0.007126667 RMS     0.003362012

 GradGradGradGradGradGradGradGradGradGradGradGradGradGradGradGradGradGrad
 Berny optimization.
 FormGI is forming the generalized inverse of G from B-inverse, IUseBI=4.
 Internal  Forces:  Max     0.007686230 RMS     0.003318805
 Search for a local minimum.
 Step number   1 out of a maximum of   36
 All quantities printed in internal units (Hartrees-Bohrs-Radians)
 Mixed Optimization -- RFO/linear search
 Second derivative matrix not updated -- first step.
 ITU=  0
     Eigenvalues ---    0.00230   0.01303   0.01373   0.01401   0.04751
     Eigenvalues ---    0.04832   0.09880   0.10463   0.12949   0.16000
     Eigenvalues ---    0.16000   0.16000   0.16000   0.16000   0.33221
     Eigenvalues ---    0.33221   0.33855   0.41076   0.53012   0.54061
     Eigenvalues ---    0.54066
 RFO step:  Lambda=-7.69085365D-04 EMin= 2.30000000D-03
 Linear search not attempted -- first point.
 Iteration  1 RMS(Cart)=  0.01291251 RMS(Int)=  0.00001198
 Iteration  2 RMS(Cart)=  0.00002529 RMS(Int)=  0.00000076
 Iteration  3 RMS(Cart)=  0.00000000 RMS(Int)=  0.00000076
 Variable       Old X    -DE/DX   Delta X   Delta X   Delta X     New X
                                 (Linear)    (Quad)   (Total)
    R1        1.82672  -0.00410   0.00000  -0.00757  -0.00757   1.81914
    R2        1.82676  -0.00410   0.00000  -0.00758  -0.00758   1.81918
    R3        3.66900  -0.00014   0.00000  -0.00292  -0.00292   3.66608
    R4        2.70117  -0.00766   0.00000  -0.01862  -0.01862   2.68255
    R5        1.83642  -0.00406   0.00000  -0.00764  -0.00764   1.82878
    R6        2.07576  -0.00766   0.00000  -0.02256  -0.02256   2.05319
    R7        2.08665  -0.00769   0.00000  -0.02308  -0.02308   2.06357
    R8        2.08666  -0.00769   0.00000  -0.02308  -0.02308   2.06357
    A1        1.81884   0.00025   0.00000   0.00236   0.00236   1.82120
    A2        1.95438  -0.00010   0.00000  -0.00022  -0.00023   1.95416
    A3        1.94362  -0.00005   0.00000   0.00011   0.00011   1.94373
    A4        1.87842  -0.00066   0.00000  -0.00410  -0.00410   1.87433
    A5        1.86748   0.00014   0.00000   0.00114   0.00114   1.86862
    A6        1.95450  -0.00023   0.00000  -0.00158  -0.00158   1.95292
    A7        1.95448  -0.00023   0.00000  -0.00157  -0.00157   1.95291
    A8        1.89370   0.00012   0.00000   0.00096   0.00096   1.89465
    A9        1.89366   0.00012   0.00000   0.00096   0.00096   1.89463
   A10        1.89808   0.00011   0.00000   0.00026   0.00026   1.89834
   A11        3.18724   0.00007   0.00000   0.00343   0.00343   3.19067
   A12        3.11075  -0.00003   0.00000  -0.00128  -0.00128   3.10947
    D1        2.11017   0.00001   0.00000   0.00122   0.00123   2.11139
    D2        2.13042  -0.00011   0.00000  -0.00107  -0.00107   2.12935
    D3       -2.13574   0.00011   0.00000   0.00106   0.00106  -2.13469
    D4        3.14051   0.00000   0.00000   0.00003   0.00003   3.14054
    D5        1.06764  -0.00010   0.00000  -0.00095  -0.00095   1.06669
    D6       -1.06984   0.00010   0.00000   0.00102   0.00102  -1.06882
         Item               Value     Threshold  Converged?
 Maximum Force            0.007686     0.000450     NO 
 RMS     Force            0.003319     0.000300     NO 
 Maximum Displacement     0.029938     0.001800     NO 
 RMS     Displacement     0.012903     0.001200     NO 
 Predicted change in Energy=-3.853722D-04
 GradGradGradGradGradGradGradGradGradGradGradGradGradGradGradGradGradGrad

                          Input orientation:                          
 ---------------------------------------------------------------------
 Center     Atomic      Atomic             Coordinates (Angstroms)
 Number     Number       Type             X           Y           Z
 ---------------------------------------------------------------------
      1          8           0       -2.011258   -0.222275   -0.000435
      2          1           0       -2.497049    0.113758    0.759685
      3          1           0       -2.487975    0.125602   -0.760996
      4          8           0        0.742540    0.708103    0.000901
      5          6           0        1.620765   -0.407165   -0.000506
      6          1           0       -0.161966    0.364009    0.003277
      7          1           0        2.634039   -0.015057   -0.004260
      8          1           0        1.486050   -1.030416   -0.886993
      9          1           0        1.491772   -1.028138    0.888431
 ---------------------------------------------------------------------
                    Distance matrix (angstroms):
                    1          2          3          4          5
     1  O    0.000000
     2  H    0.962649   0.000000
     3  H    0.962668   1.520754   0.000000
     4  O    2.906718   3.379932   3.369870   0.000000
     5  C    3.636726   4.219673   4.212354   1.419543   0.000000
     6  H    1.940006   2.467264   2.459933   0.967749   1.942383
     7  H    4.649918   5.189246   5.179524   2.025032   1.086503
     8  H    3.697329   4.459345   4.140667   2.088926   1.091994
     9  H    3.702799   4.151048   4.459834   2.088921   1.091996
                    6          7          8          9
     6  H    0.000000
     7  H    2.821594   0.000000
     8  H    2.335157   1.768630   0.000000
     9  H    2.335898   1.768616   1.775435   0.000000
 Stoichiometry    CH6O2
 Framework group  C1[X(CH6O2)]
 Deg. of freedom    21
 Full point group                 C1      NOp   1
 Largest Abelian subgroup         C1      NOp   1
 Largest concise Abelian subgroup C1      NOp   1
                         Standard orientation:                         
 ---------------------------------------------------------------------
 Center     Atomic      Atomic             Coordinates (Angstroms)
 Number     Number       Type             X           Y           Z
 ---------------------------------------------------------------------
      1          8           0       -2.012879   -0.219474   -0.000429
      2          1           0       -2.498361    0.117005    0.759691
      3          1           0       -2.489276    0.128841   -0.760990
      4          8           0        0.741774    0.708372    0.000907
      5          6           0        1.618972   -0.407703   -0.000500
      6          1           0       -0.163049    0.365109    0.003283
      7          1           0        2.632607   -0.016527   -0.004254
      8          1           0        1.483684   -1.030831   -0.886987
      9          1           0        1.489409   -1.028557    0.888437
 ---------------------------------------------------------------------
 Rotational constants (GHZ):          32.2232364           3.8305794           3.5562770
 Standard basis: Aug-CC-pVTZ (5D, 7F)
 There are   315 symmetry adapted cartesian basis functions of A   symmetry.
 There are   276 symmetry adapted basis functions of A   symmetry.
   276 basis functions,   378 primitive gaussians,   315 cartesian basis functions
    14 alpha electrons       14 beta electrons
       nuclear repulsion energy        78.6221801838 Hartrees.
 NAtoms=    9 NActive=    9 NUniq=    9 SFac= 1.00D+00 NAtFMM=   60 NAOKFM=F Big=F
 Integral buffers will be    131072 words long.
 Raffenetti 1 integral format.
 Two-electron integral symmetry is turned on.
 One-electron integrals computed using PRISM.
 NBasis=   276 RedAO= T EigKep=  5.18D-05  NBF=   276
 NBsUse=   276 1.00D-06 EigRej= -1.00D+00 NBFU=   276
 Initial guess from the checkpoint file:  "/gscratch/scrubbed/gds001/Gau-26605.chk"
 B after Tr=     0.000000   -0.000000   -0.000000
         Rot=    1.000000    0.000018   -0.000005    0.000536 Ang=   0.06 deg.
 ExpMin= 2.53D-02 ExpMax= 1.53D+04 ExpMxC= 5.22D+02 IAcc=3 IRadAn=         5 AccDes= 0.00D+00
 Harris functional with IExCor=  205 and IRadAn=       5 diagonalized for initial guess.
 HarFok:  IExCor=  205 AccDes= 0.00D+00 IRadAn=         5 IDoV= 1 UseB2=F ITyADJ=14
 ICtDFT=  3500011 ScaDFX=  1.000000  1.000000  1.000000  1.000000
 FoFCou: FMM=F IPFlag=           0 FMFlag=      100000 FMFlg1=           0
         NFxFlg=           0 DoJE=T BraDBF=F KetDBF=T FulRan=T
         wScrn=  0.000000 ICntrl=       500 IOpCl=  0 I1Cent=   200000004 NGrid=           0
         NMat0=    1 NMatS0=      1 NMatT0=    0 NMatD0=    1 NMtDS0=    0 NMtDT0=    0
 Petite list used in FoFCou.
 Keep R1 ints in memory in canonical form, NReq=746411103.
 Requested convergence on RMS density matrix=1.00D-08 within 128 cycles.
 Requested convergence on MAX density matrix=1.00D-06.
 Requested convergence on             energy=1.00D-06.
 No special actions if energy rises.
 SCF Done:  E(RHF) =  -191.157461924     A.U. after    8 cycles
            NFock=  8  Conv=0.92D-08     -V/T= 2.0015
 ExpMin= 2.53D-02 ExpMax= 1.53D+04 ExpMxC= 5.22D+02 IAcc=3 IRadAn=         5 AccDes= 0.00D+00
 HarFok:  IExCor=  205 AccDes= 0.00D+00 IRadAn=         5 IDoV=-2 UseB2=F ITyADJ=14
 ICtDFT= 12500011 ScaDFX=  1.000000  1.000000  1.000000  1.000000
 Range of M.O.s used for correlation:     4   276
 NBasis=   276 NAE=    14 NBE=    14 NFC=     3 NFV=     0
 NROrb=    273 NOA=    11 NOB=    11 NVA=   262 NVB=   262

 **** Warning!!: The largest alpha MO coefficient is  0.43568194D+02

 Fully direct method using O(ONN) memory.
 JobTyp=1 Pass  1:  I=   4 to  14 NPSUse= 28 ParTrn=T ParDer=T DoDerP=T.
 Spin components of T(2) and E(2):
     alpha-alpha T2 =       0.2208300058D-01 E2=     -0.8346127914D-01
     alpha-beta  T2 =       0.1344070446D+00 E2=     -0.5419851843D+00
     beta-beta   T2 =       0.2208300058D-01 E2=     -0.8346127914D-01
 ANorm=    0.1085621042D+01
 E2 =    -0.7089077426D+00 EUMP2 =    -0.19186636966710D+03
          IDoAtm=111111111
          Differentiating once with respect to electric field.
                with respect to dipole field.
          Differentiating once with respect to nuclear coordinates.
 Keep R1 ints in memory in canonical form, NReq=746412816.
          There are     1 degrees of freedom in the 1st order CPHF.  IDoFFX=0 NUNeed=     1.
 LinEq1:  Iter=  0 NonCon=     1 RMS=2.67D-03 Max=3.40D-02 NDo=     1
 AX will form     1 AO Fock derivatives at one time.
 LinEq1:  Iter=  1 NonCon=     1 RMS=5.29D-04 Max=5.11D-03 NDo=     1
 LinEq1:  Iter=  2 NonCon=     1 RMS=1.92D-04 Max=3.66D-03 NDo=     1
 LinEq1:  Iter=  3 NonCon=     1 RMS=4.77D-05 Max=4.31D-04 NDo=     1
 LinEq1:  Iter=  4 NonCon=     1 RMS=1.95D-05 Max=3.05D-04 NDo=     1
 LinEq1:  Iter=  5 NonCon=     1 RMS=3.38D-06 Max=4.93D-05 NDo=     1
 LinEq1:  Iter=  6 NonCon=     1 RMS=6.26D-07 Max=6.20D-06 NDo=     1
 LinEq1:  Iter=  7 NonCon=     1 RMS=1.04D-07 Max=1.06D-06 NDo=     1
 LinEq1:  Iter=  8 NonCon=     1 RMS=1.76D-08 Max=2.30D-07 NDo=     1
 LinEq1:  Iter=  9 NonCon=     1 RMS=3.68D-09 Max=4.48D-08 NDo=     1
 LinEq1:  Iter= 10 NonCon=     1 RMS=1.22D-09 Max=1.37D-08 NDo=     1
 LinEq1:  Iter= 11 NonCon=     1 RMS=4.02D-10 Max=3.79D-09 NDo=     1
 LinEq1:  Iter= 12 NonCon=     0 RMS=8.06D-11 Max=9.45D-10 NDo=     1
 Linear equations converged to 1.000D-10 1.000D-09 after    12 iterations.
 End of Minotr F.D. properties file   721 does not exist.
 End of Minotr F.D. properties file   722 does not exist.
 End of Minotr F.D. properties file   788 does not exist.
 Calling FoFJK, ICntrl=  10002127 FMM=F ISym2X=0 I1Cent= 0 IOpClX= 0 NMat=1 NMatS=1 NMatT=0.
 ***** Axes restored to original set *****
 -------------------------------------------------------------------
 Center     Atomic                   Forces (Hartrees/Bohr)
 Number     Number              X              Y              Z
 -------------------------------------------------------------------
      1        8          -0.000524448    0.000418252   -0.000017905
      2        1           0.000280806   -0.000204107   -0.000013966
      3        1           0.000261559   -0.000215076    0.000022021
      4        8          -0.000499811   -0.001029915    0.000000421
      5        6          -0.000332507    0.001053601    0.000000654
      6        1           0.000058849    0.000726705    0.000010451
      7        1           0.000420418   -0.000244574   -0.000000963
      8        1           0.000167489   -0.000252459   -0.000147390
      9        1           0.000167645   -0.000252428    0.000146677
 -------------------------------------------------------------------
 Cartesian Forces:  Max     0.001053601 RMS     0.000394988

 GradGradGradGradGradGradGradGradGradGradGradGradGradGradGradGradGradGrad
 Berny optimization.
 Using GEDIIS/GDIIS optimizer.
 FormGI is forming the generalized inverse of G from B-inverse, IUseBI=4.
 Internal  Forces:  Max     0.001136532 RMS     0.000303084
 Search for a local minimum.
 Step number   2 out of a maximum of   36
 All quantities printed in internal units (Hartrees-Bohrs-Radians)
 Mixed Optimization -- En-DIIS/RFO-DIIS
 Update second derivatives using D2CorX and points    1    2
 DE= -3.80D-04 DEPred=-3.85D-04 R= 9.86D-01
 TightC=F SS=  1.41D+00  RLast= 4.64D-02 DXNew= 5.0454D-01 1.3920D-01
 Trust test= 9.86D-01 RLast= 4.64D-02 DXMaxT set to 3.00D-01
 ITU=  1  0
 Use linear search instead of GDIIS.
     Eigenvalues ---    0.00230   0.01303   0.01374   0.01401   0.04751
     Eigenvalues ---    0.04814   0.09899   0.10461   0.12925   0.15945
     Eigenvalues ---    0.16000   0.16000   0.16000   0.16094   0.33221
     Eigenvalues ---    0.33533   0.34959   0.41039   0.52509   0.53727
     Eigenvalues ---    0.54063
 RFO step:  Lambda=-1.30981375D-05 EMin= 2.29999998D-03
 Quartic linear search produced a step of -0.02101.
 Iteration  1 RMS(Cart)=  0.00339868 RMS(Int)=  0.00000496
 Iteration  2 RMS(Cart)=  0.00000637 RMS(Int)=  0.00000091
 Iteration  3 RMS(Cart)=  0.00000000 RMS(Int)=  0.00000091
 Variable       Old X    -DE/DX   Delta X   Delta X   Delta X     New X
                                 (Linear)    (Quad)   (Total)
    R1        1.81914  -0.00022   0.00016  -0.00070  -0.00054   1.81861
    R2        1.81918  -0.00022   0.00016  -0.00070  -0.00054   1.81864
    R3        3.66608  -0.00002   0.00006  -0.00047  -0.00041   3.66567
    R4        2.68255   0.00002   0.00039  -0.00067  -0.00027   2.68227
    R5        1.82878  -0.00033   0.00016  -0.00090  -0.00074   1.82804
    R6        2.05319   0.00030   0.00047   0.00000   0.00048   2.05367
    R7        2.06357   0.00024   0.00049  -0.00018   0.00031   2.06387
    R8        2.06357   0.00024   0.00049  -0.00018   0.00031   2.06388
    A1        1.82120   0.00030  -0.00005   0.00294   0.00289   1.82409
    A2        1.95416  -0.00011   0.00000  -0.00016  -0.00016   1.95400
    A3        1.94373  -0.00005  -0.00000   0.00021   0.00021   1.94394
    A4        1.87433   0.00114   0.00009   0.00679   0.00688   1.88121
    A5        1.86862   0.00045  -0.00002   0.00279   0.00276   1.87138
    A6        1.95292   0.00020   0.00003   0.00114   0.00117   1.95409
    A7        1.95291   0.00020   0.00003   0.00113   0.00116   1.95407
    A8        1.89465  -0.00032  -0.00002  -0.00193  -0.00195   1.89270
    A9        1.89463  -0.00032  -0.00002  -0.00193  -0.00195   1.89268
   A10        1.89834  -0.00022  -0.00001  -0.00134  -0.00135   1.89699
   A11        3.19067  -0.00002  -0.00007  -0.00315  -0.00322   3.18745
   A12        3.10947   0.00001   0.00003   0.00132   0.00135   3.11082
    D1        2.11139   0.00002  -0.00003   0.00172   0.00169   2.11309
    D2        2.12935  -0.00014   0.00002  -0.00235  -0.00233   2.12702
    D3       -2.13469   0.00014  -0.00002   0.00209   0.00207  -2.13262
    D4        3.14054   0.00000  -0.00000   0.00005   0.00005   3.14059
    D5        1.06669   0.00000   0.00002   0.00001   0.00002   1.06671
    D6       -1.06882   0.00000  -0.00002   0.00009   0.00007  -1.06875
         Item               Value     Threshold  Converged?
 Maximum Force            0.001137     0.000450     NO 
 RMS     Force            0.000303     0.000300     NO 
 Maximum Displacement     0.008103     0.001800     NO 
 RMS     Displacement     0.003395     0.001200     NO 
 Predicted change in Energy=-6.731489D-06
 GradGradGradGradGradGradGradGradGradGradGradGradGradGradGradGradGradGrad

                          Input orientation:                          
 ---------------------------------------------------------------------
 Center     Atomic      Atomic             Coordinates (Angstroms)
 Number     Number       Type             X           Y           Z
 ---------------------------------------------------------------------
      1          8           0       -2.014047   -0.220357   -0.000550
      2          1           0       -2.499070    0.114369    0.760276
      3          1           0       -2.490149    0.126371   -0.761660
      4          8           0        0.740764    0.705485    0.000924
      5          6           0        1.622233   -0.407034   -0.000501
      6          1           0       -0.164704    0.365046    0.003450
      7          1           0        2.635652   -0.014603   -0.004376
      8          1           0        1.490180   -1.031627   -0.886645
      9          1           0        1.496060   -1.029228    0.888186
 ---------------------------------------------------------------------
                    Distance matrix (angstroms):
                    1          2          3          4          5
     1  O    0.000000
     2  H    0.962364   0.000000
     3  H    0.962383   1.522009   0.000000
     4  O    2.906229   3.379727   3.369822   0.000000
     5  C    3.641069   4.223243   4.216108   1.419398   0.000000
     6  H    1.939789   2.466757   2.459685   0.967356   1.946604
     7  H    4.654251   5.192947   5.183357   2.027106   1.086755
     8  H    3.704448   4.465397   4.147240   2.089728   1.092155
     9  H    3.710118   4.157552   4.466235   2.089722   1.092158
                    6          7          8          9
     6  H    0.000000
     7  H    2.825985   0.000000
     8  H    2.341283   1.767722   0.000000
     9  H    2.341985   1.767711   1.774842   0.000000
 Stoichiometry    CH6O2
 Framework group  C1[X(CH6O2)]
 Deg. of freedom    21
 Full point group                 C1      NOp   1
 Largest Abelian subgroup         C1      NOp   1
 Largest concise Abelian subgroup C1      NOp   1
                         Standard orientation:                         
 ---------------------------------------------------------------------
 Center     Atomic      Atomic             Coordinates (Angstroms)
 Number     Number       Type             X           Y           Z
 ---------------------------------------------------------------------
      1          8           0       -2.014565   -0.219453   -0.000522
      2          1           0       -2.499621    0.115226    0.760304
      3          1           0       -2.490700    0.127228   -0.761632
      4          8           0        0.740155    0.706660    0.000952
      5          6           0        1.621733   -0.405774   -0.000473
      6          1           0       -0.165280    0.366131    0.003478
      7          1           0        2.635114   -0.013242   -0.004348
      8          1           0        1.489742   -1.030379   -0.886617
      9          1           0        1.495622   -1.027979    0.888214
 ---------------------------------------------------------------------
 Rotational constants (GHZ):          32.3438248           3.8235634           3.5517311
 Standard basis: Aug-CC-pVTZ (5D, 7F)
 There are   315 symmetry adapted cartesian basis functions of A   symmetry.
 There are   276 symmetry adapted basis functions of A   symmetry.
   276 basis functions,   378 primitive gaussians,   315 cartesian basis functions
    14 alpha electrons       14 beta electrons
       nuclear repulsion energy        78.6048055084 Hartrees.
 NAtoms=    9 NActive=    9 NUniq=    9 SFac= 1.00D+00 NAtFMM=   60 NAOKFM=F Big=F
 Integral buffers will be    131072 words long.
 Raffenetti 1 integral format.
 Two-electron integral symmetry is turned on.
 One-electron integrals computed using PRISM.
 NBasis=   276 RedAO= T EigKep=  5.21D-05  NBF=   276
 NBsUse=   276 1.00D-06 EigRej= -1.00D+00 NBFU=   276
 Initial guess from the checkpoint file:  "/gscratch/scrubbed/gds001/Gau-26605.chk"
 B after Tr=    -0.000000    0.000000   -0.000000
         Rot=    1.000000   -0.000015    0.000011   -0.000318 Ang=  -0.04 deg.
 Keep R1 ints in memory in canonical form, NReq=746411103.
 Requested convergence on RMS density matrix=1.00D-08 within 128 cycles.
 Requested convergence on MAX density matrix=1.00D-06.
 Requested convergence on             energy=1.00D-06.
 No special actions if energy rises.
 SCF Done:  E(RHF) =  -191.157556058     A.U. after    7 cycles
            NFock=  7  Conv=0.83D-08     -V/T= 2.0015
 ExpMin= 2.53D-02 ExpMax= 1.53D+04 ExpMxC= 5.22D+02 IAcc=3 IRadAn=         5 AccDes= 0.00D+00
 HarFok:  IExCor=  205 AccDes= 0.00D+00 IRadAn=         5 IDoV=-2 UseB2=F ITyADJ=14
 ICtDFT= 12500011 ScaDFX=  1.000000  1.000000  1.000000  1.000000
 Range of M.O.s used for correlation:     4   276
 NBasis=   276 NAE=    14 NBE=    14 NFC=     3 NFV=     0
 NROrb=    273 NOA=    11 NOB=    11 NVA=   262 NVB=   262

 **** Warning!!: The largest alpha MO coefficient is  0.42919598D+02

 Fully direct method using O(ONN) memory.
 JobTyp=1 Pass  1:  I=   4 to  14 NPSUse= 28 ParTrn=T ParDer=T DoDerP=T.
 Spin components of T(2) and E(2):
     alpha-alpha T2 =       0.2207641689D-01 E2=     -0.8344931998D-01
     alpha-beta  T2 =       0.1343724469D+00 E2=     -0.5419215474D+00
     beta-beta   T2 =       0.2207641689D-01 E2=     -0.8344931998D-01
 ANorm=    0.1085599042D+01
 E2 =    -0.7088201874D+00 EUMP2 =    -0.19186637624520D+03
          IDoAtm=111111111
          Differentiating once with respect to electric field.
                with respect to dipole field.
          Differentiating once with respect to nuclear coordinates.
 Keep R1 ints in memory in canonical form, NReq=746412816.
          There are     1 degrees of freedom in the 1st order CPHF.  IDoFFX=0 NUNeed=     1.
 LinEq1:  Iter=  0 NonCon=     1 RMS=2.67D-03 Max=3.40D-02 NDo=     1
 AX will form     1 AO Fock derivatives at one time.
 LinEq1:  Iter=  1 NonCon=     1 RMS=5.28D-04 Max=5.15D-03 NDo=     1
 LinEq1:  Iter=  2 NonCon=     1 RMS=1.92D-04 Max=3.65D-03 NDo=     1
 LinEq1:  Iter=  3 NonCon=     1 RMS=4.75D-05 Max=4.27D-04 NDo=     1
 LinEq1:  Iter=  4 NonCon=     1 RMS=1.94D-05 Max=3.05D-04 NDo=     1
 LinEq1:  Iter=  5 NonCon=     1 RMS=3.38D-06 Max=4.91D-05 NDo=     1
 LinEq1:  Iter=  6 NonCon=     1 RMS=6.26D-07 Max=6.20D-06 NDo=     1
 LinEq1:  Iter=  7 NonCon=     1 RMS=1.04D-07 Max=1.06D-06 NDo=     1
 LinEq1:  Iter=  8 NonCon=     1 RMS=1.76D-08 Max=2.29D-07 NDo=     1
 LinEq1:  Iter=  9 NonCon=     1 RMS=3.60D-09 Max=4.19D-08 NDo=     1
 LinEq1:  Iter= 10 NonCon=     1 RMS=1.14D-09 Max=1.32D-08 NDo=     1
 LinEq1:  Iter= 11 NonCon=     1 RMS=3.93D-10 Max=3.65D-09 NDo=     1
 LinEq1:  Iter= 12 NonCon=     0 RMS=8.03D-11 Max=9.34D-10 NDo=     1
 Linear equations converged to 1.000D-10 1.000D-09 after    12 iterations.
 End of Minotr F.D. properties file   721 does not exist.
 End of Minotr F.D. properties file   722 does not exist.
 End of Minotr F.D. properties file   788 does not exist.
 Calling FoFJK, ICntrl=  10002127 FMM=F ISym2X=0 I1Cent= 0 IOpClX= 0 NMat=1 NMatS=1 NMatT=0.
 ***** Axes restored to original set *****
 -------------------------------------------------------------------
 Center     Atomic                   Forces (Hartrees/Bohr)
 Number     Number              X              Y              Z
 -------------------------------------------------------------------
      1        8          -0.000017710    0.000102810   -0.000013514
      2        1           0.000024422   -0.000033524   -0.000001434
      3        1           0.000008152   -0.000043209    0.000007950
      4        8           0.000369772   -0.000318009    0.000000879
      5        6          -0.000574041    0.000489446    0.000001831
      6        1           0.000053627   -0.000065191    0.000004716
      7        1           0.000104884    0.000116071   -0.000000215
      8        1           0.000014879   -0.000124235   -0.000137323
      9        1           0.000016015   -0.000124160    0.000137109
 -------------------------------------------------------------------
 Cartesian Forces:  Max     0.000574041 RMS     0.000184826

 GradGradGradGradGradGradGradGradGradGradGradGradGradGradGradGradGradGrad
 Berny optimization.
 Using GEDIIS/GDIIS optimizer.
 FormGI is forming the generalized inverse of G from B-inverse, IUseBI=4.
 Internal  Forces:  Max     0.000552113 RMS     0.000130234
 Search for a local minimum.
 Step number   3 out of a maximum of   36
 All quantities printed in internal units (Hartrees-Bohrs-Radians)
 Mixed Optimization -- En-DIIS/RFO-DIIS
 Swapping is turned off.
 Update second derivatives using D2CorX and points    1    2    3
 DE= -6.58D-06 DEPred=-6.73D-06 R= 9.77D-01
 TightC=F SS=  1.41D+00  RLast= 1.01D-02 DXNew= 5.0454D-01 3.0313D-02
 Trust test= 9.77D-01 RLast= 1.01D-02 DXMaxT set to 3.00D-01
 ITU=  1  1  0
     Eigenvalues ---    0.00230   0.01303   0.01391   0.01402   0.04633
     Eigenvalues ---    0.04757   0.09824   0.10440   0.12551   0.14900
     Eigenvalues ---    0.16000   0.16000   0.16000   0.17660   0.33221
     Eigenvalues ---    0.33574   0.34371   0.43793   0.52579   0.53777
     Eigenvalues ---    0.54063
 En-DIIS/RFO-DIIS/Sim-DIIS IScMMF=       -3 using points:     3    2
 RFO step:  Lambda=-1.35620043D-06.
 DidBck=F Rises=F RFO-DIIS coefs:    1.03393   -0.03393
 Iteration  1 RMS(Cart)=  0.00112427 RMS(Int)=  0.00000077
 Iteration  2 RMS(Cart)=  0.00000104 RMS(Int)=  0.00000016
 Iteration  3 RMS(Cart)=  0.00000000 RMS(Int)=  0.00000016
 Variable       Old X    -DE/DX   Delta X   Delta X   Delta X     New X
                                 (Linear)    (Quad)   (Total)
    R1        1.81861  -0.00003  -0.00002  -0.00009  -0.00011   1.81849
    R2        1.81864  -0.00003  -0.00002  -0.00009  -0.00011   1.81853
    R3        3.66567  -0.00002  -0.00001  -0.00049  -0.00050   3.66517
    R4        2.68227  -0.00055  -0.00001  -0.00136  -0.00137   2.68090
    R5        1.82804  -0.00005  -0.00003  -0.00016  -0.00018   1.82786
    R6        2.05367   0.00014   0.00002   0.00040   0.00042   2.05409
    R7        2.06387   0.00018   0.00001   0.00052   0.00053   2.06441
    R8        2.06388   0.00018   0.00001   0.00052   0.00053   2.06441
    A1        1.82409   0.00003   0.00010   0.00059   0.00069   1.82478
    A2        1.95400  -0.00001  -0.00001   0.00010   0.00009   1.95409
    A3        1.94394   0.00004   0.00001   0.00038   0.00039   1.94433
    A4        1.88121  -0.00009   0.00023  -0.00006   0.00018   1.88138
    A5        1.87138  -0.00014   0.00009  -0.00077  -0.00067   1.87071
    A6        1.95409   0.00008   0.00004   0.00059   0.00063   1.95472
    A7        1.95407   0.00008   0.00004   0.00060   0.00064   1.95471
    A8        1.89270   0.00000  -0.00007  -0.00020  -0.00027   1.89243
    A9        1.89268   0.00000  -0.00007  -0.00020  -0.00027   1.89241
   A10        1.89699  -0.00002  -0.00005  -0.00007  -0.00011   1.89688
   A11        3.18745   0.00003  -0.00011   0.00157   0.00147   3.18891
   A12        3.11082  -0.00001   0.00005  -0.00033  -0.00028   3.11054
    D1        2.11309   0.00002   0.00006   0.00068   0.00074   2.11383
    D2        2.12702  -0.00002  -0.00008  -0.00030  -0.00038   2.12664
    D3       -2.13262   0.00002   0.00007   0.00040   0.00047  -2.13215
    D4        3.14059   0.00000   0.00000   0.00003   0.00003   3.14062
    D5        1.06671   0.00004   0.00000   0.00042   0.00042   1.06713
    D6       -1.06875  -0.00004   0.00000  -0.00036  -0.00036  -1.06911
         Item               Value     Threshold  Converged?
 Maximum Force            0.000552     0.000450     NO 
 RMS     Force            0.000130     0.000300     YES
 Maximum Displacement     0.002625     0.001800     NO 
 RMS     Displacement     0.001124     0.001200     YES
 Predicted change in Energy=-6.781571D-07
 GradGradGradGradGradGradGradGradGradGradGradGradGradGradGradGradGradGrad

                          Input orientation:                          
 ---------------------------------------------------------------------
 Center     Atomic      Atomic             Coordinates (Angstroms)
 Number     Number       Type             X           Y           Z
 ---------------------------------------------------------------------
      1          8           0       -2.014521   -0.219733   -0.000495
      2          1           0       -2.499008    0.115144    0.760531
      3          1           0       -2.490512    0.126722   -0.761722
      4          8           0        0.740414    0.704456    0.000872
      5          6           0        1.622070   -0.406990   -0.000490
      6          1           0       -0.164830    0.363690    0.003153
      7          1           0        2.635207   -0.013213   -0.004059
      8          1           0        1.491328   -1.031901   -0.886949
      9          1           0        1.496770   -1.029753    0.888266
 ---------------------------------------------------------------------
                    Distance matrix (angstroms):
                    1          2          3          4          5
     1  O    0.000000
     2  H    0.962305   0.000000
     3  H    0.962323   1.522321   0.000000
     4  O    2.905821   3.379087   3.369600   0.000000
     5  C    3.641409   4.223158   4.216355   1.418671   0.000000
     6  H    1.939524   2.466533   2.459671   0.967261   1.946014
     7  H    4.654314   5.192422   5.183303   2.026157   1.086978
     8  H    3.706264   4.466843   4.148872   2.089744   1.092436
     9  H    3.711494   4.158527   4.467472   2.089742   1.092439
                    6          7          8          9
     6  H    0.000000
     7  H    2.825300   0.000000
     8  H    2.341541   1.767959   0.000000
     9  H    2.342226   1.767947   1.775225   0.000000
 Stoichiometry    CH6O2
 Framework group  C1[X(CH6O2)]
 Deg. of freedom    21
 Full point group                 C1      NOp   1
 Largest Abelian subgroup         C1      NOp   1
 Largest concise Abelian subgroup C1      NOp   1
                         Standard orientation:                         
 ---------------------------------------------------------------------
 Center     Atomic      Atomic             Coordinates (Angstroms)
 Number     Number       Type             X           Y           Z
 ---------------------------------------------------------------------
      1          8           0       -2.014745   -0.219279   -0.000470
      2          1           0       -2.499355    0.115420    0.760557
      3          1           0       -2.490863    0.127002   -0.761697
      4          8           0        0.739850    0.705923    0.000897
      5          6           0        1.621914   -0.405198   -0.000465
      6          1           0       -0.165268    0.364825    0.003178
      7          1           0        2.634907   -0.011049   -0.004033
      8          1           0        1.491403   -1.030157   -0.886924
      9          1           0        1.496844   -1.028007    0.888292
 ---------------------------------------------------------------------
 Rotational constants (GHZ):          32.3923666           3.8230040           3.5518912
 Standard basis: Aug-CC-pVTZ (5D, 7F)
 There are   315 symmetry adapted cartesian basis functions of A   symmetry.
 There are   276 symmetry adapted basis functions of A   symmetry.
   276 basis functions,   378 primitive gaussians,   315 cartesian basis functions
    14 alpha electrons       14 beta electrons
       nuclear repulsion energy        78.6145312710 Hartrees.
 NAtoms=    9 NActive=    9 NUniq=    9 SFac= 1.00D+00 NAtFMM=   60 NAOKFM=F Big=F
 Integral buffers will be    131072 words long.
 Raffenetti 1 integral format.
 Two-electron integral symmetry is turned on.
 One-electron integrals computed using PRISM.
 NBasis=   276 RedAO= T EigKep=  5.21D-05  NBF=   276
 NBsUse=   276 1.00D-06 EigRej= -1.00D+00 NBFU=   276
 Initial guess from the checkpoint file:  "/gscratch/scrubbed/gds001/Gau-26605.chk"
 B after Tr=     0.000000    0.000000    0.000000
         Rot=    1.000000    0.000017   -0.000006   -0.000057 Ang=   0.01 deg.
 Keep R1 ints in memory in canonical form, NReq=746411103.
 Requested convergence on RMS density matrix=1.00D-08 within 128 cycles.
 Requested convergence on MAX density matrix=1.00D-06.
 Requested convergence on             energy=1.00D-06.
 No special actions if energy rises.
 SCF Done:  E(RHF) =  -191.157580383     A.U. after    7 cycles
            NFock=  7  Conv=0.36D-08     -V/T= 2.0015
 ExpMin= 2.53D-02 ExpMax= 1.53D+04 ExpMxC= 5.22D+02 IAcc=3 IRadAn=         5 AccDes= 0.00D+00
 HarFok:  IExCor=  205 AccDes= 0.00D+00 IRadAn=         5 IDoV=-2 UseB2=F ITyADJ=14
 ICtDFT= 12500011 ScaDFX=  1.000000  1.000000  1.000000  1.000000
 Range of M.O.s used for correlation:     4   276
 NBasis=   276 NAE=    14 NBE=    14 NFC=     3 NFV=     0
 NROrb=    273 NOA=    11 NOB=    11 NVA=   262 NVB=   262

 **** Warning!!: The largest alpha MO coefficient is  0.42943384D+02

 Fully direct method using O(ONN) memory.
 JobTyp=1 Pass  1:  I=   4 to  14 NPSUse= 28 ParTrn=T ParDer=T DoDerP=T.
 Spin components of T(2) and E(2):
     alpha-alpha T2 =       0.2207324835D-01 E2=     -0.8344749990D-01
     alpha-beta  T2 =       0.1343563000D+00 E2=     -0.5419016538D+00
     beta-beta   T2 =       0.2207324835D-01 E2=     -0.8344749990D-01
 ANorm=    0.1085588687D+01
 E2 =    -0.7087966536D+00 EUMP2 =    -0.19186637703639D+03
          IDoAtm=111111111
          Differentiating once with respect to electric field.
                with respect to dipole field.
          Differentiating once with respect to nuclear coordinates.
 Keep R1 ints in memory in canonical form, NReq=746412816.
          There are     1 degrees of freedom in the 1st order CPHF.  IDoFFX=0 NUNeed=     1.
 LinEq1:  Iter=  0 NonCon=     1 RMS=2.67D-03 Max=3.40D-02 NDo=     1
 AX will form     1 AO Fock derivatives at one time.
 LinEq1:  Iter=  1 NonCon=     1 RMS=5.28D-04 Max=5.15D-03 NDo=     1
 LinEq1:  Iter=  2 NonCon=     1 RMS=1.92D-04 Max=3.65D-03 NDo=     1
 LinEq1:  Iter=  3 NonCon=     1 RMS=4.74D-05 Max=4.26D-04 NDo=     1
 LinEq1:  Iter=  4 NonCon=     1 RMS=1.94D-05 Max=3.05D-04 NDo=     1
 LinEq1:  Iter=  5 NonCon=     1 RMS=3.38D-06 Max=4.91D-05 NDo=     1
 LinEq1:  Iter=  6 NonCon=     1 RMS=6.26D-07 Max=6.19D-06 NDo=     1
 LinEq1:  Iter=  7 NonCon=     1 RMS=1.04D-07 Max=1.06D-06 NDo=     1
 LinEq1:  Iter=  8 NonCon=     1 RMS=1.77D-08 Max=2.29D-07 NDo=     1
 LinEq1:  Iter=  9 NonCon=     1 RMS=3.75D-09 Max=4.69D-08 NDo=     1
 LinEq1:  Iter= 10 NonCon=     1 RMS=1.28D-09 Max=1.40D-08 NDo=     1
 LinEq1:  Iter= 11 NonCon=     1 RMS=4.06D-10 Max=3.87D-09 NDo=     1
 LinEq1:  Iter= 12 NonCon=     0 RMS=8.04D-11 Max=9.44D-10 NDo=     1
 Linear equations converged to 1.000D-10 1.000D-09 after    12 iterations.
 End of Minotr F.D. properties file   721 does not exist.
 End of Minotr F.D. properties file   722 does not exist.
 End of Minotr F.D. properties file   788 does not exist.
 Calling FoFJK, ICntrl=  10002127 FMM=F ISym2X=0 I1Cent= 0 IOpClX= 0 NMat=1 NMatS=1 NMatT=0.
 ***** Axes restored to original set *****
 -------------------------------------------------------------------
 Center     Atomic                   Forces (Hartrees/Bohr)
 Number     Number              X              Y              Z
 -------------------------------------------------------------------
      1        8           0.000086458    0.000018181   -0.000014863
      2        1          -0.000028056    0.000005915   -0.000005564
      3        1          -0.000045373   -0.000003933    0.000012096
      4        8           0.000110170   -0.000066377   -0.000000140
      5        6          -0.000096556    0.000164537    0.000000022
      6        1          -0.000055577   -0.000051078    0.000008384
      7        1           0.000026569   -0.000015886    0.000000094
      8        1           0.000001478   -0.000025623   -0.000007798
      9        1           0.000000887   -0.000025735    0.000007769
 -------------------------------------------------------------------
 Cartesian Forces:  Max     0.000164537 RMS     0.000051714

 GradGradGradGradGradGradGradGradGradGradGradGradGradGradGradGradGradGrad
 Berny optimization.
 Using GEDIIS/GDIIS optimizer.
 FormGI is forming the generalized inverse of G from B-inverse, IUseBI=4.
 Internal  Forces:  Max     0.000118256 RMS     0.000031736
 Search for a local minimum.
 Step number   4 out of a maximum of   36
 All quantities printed in internal units (Hartrees-Bohrs-Radians)
 Mixed Optimization -- En-DIIS/RFO-DIIS
 Swapping is turned off.
 Update second derivatives using D2CorX and points    1    2    3    4
 DE= -7.91D-07 DEPred=-6.78D-07 R= 1.17D+00
 Trust test= 1.17D+00 RLast= 2.91D-03 DXMaxT set to 3.00D-01
 ITU=  0  1  1  0
     Eigenvalues ---    0.00230   0.01303   0.01368   0.01401   0.04366
     Eigenvalues ---    0.04778   0.10186   0.10442   0.12751   0.13753
     Eigenvalues ---    0.16000   0.16000   0.16898   0.17648   0.33221
     Eigenvalues ---    0.33356   0.33706   0.39798   0.53424   0.53764
     Eigenvalues ---    0.54063
 En-DIIS/RFO-DIIS/Sim-DIIS IScMMF=       -3 using points:     4    3    2
 RFO step:  Lambda=-1.47508715D-07.
 DidBck=F Rises=F RFO-DIIS coefs:    1.33972   -0.34125    0.00153
 Iteration  1 RMS(Cart)=  0.00052147 RMS(Int)=  0.00000016
 Iteration  2 RMS(Cart)=  0.00000029 RMS(Int)=  0.00000006
 Variable       Old X    -DE/DX   Delta X   Delta X   Delta X     New X
                                 (Linear)    (Quad)   (Total)
    R1        1.81849   0.00001  -0.00004   0.00004  -0.00000   1.81849
    R2        1.81853   0.00001  -0.00004   0.00004  -0.00000   1.81853
    R3        3.66517  -0.00002  -0.00017  -0.00034  -0.00051   3.66466
    R4        2.68090  -0.00012  -0.00047  -0.00000  -0.00047   2.68043
    R5        1.82786   0.00005  -0.00006   0.00014   0.00008   1.82793
    R6        2.05409   0.00002   0.00014  -0.00004   0.00010   2.05419
    R7        2.06441   0.00002   0.00018  -0.00006   0.00012   2.06452
    R8        2.06441   0.00002   0.00018  -0.00006   0.00012   2.06453
    A1        1.82478  -0.00004   0.00023  -0.00034  -0.00011   1.82467
    A2        1.95409   0.00001   0.00003   0.00012   0.00015   1.95424
    A3        1.94433   0.00006   0.00013   0.00035   0.00048   1.94481
    A4        1.88138  -0.00001   0.00005   0.00003   0.00008   1.88146
    A5        1.87071   0.00004  -0.00023   0.00054   0.00031   1.87101
    A6        1.95472   0.00001   0.00021  -0.00008   0.00013   1.95485
    A7        1.95471   0.00001   0.00021  -0.00009   0.00013   1.95484
    A8        1.89243  -0.00001  -0.00009  -0.00006  -0.00014   1.89228
    A9        1.89241  -0.00001  -0.00009  -0.00005  -0.00014   1.89226
   A10        1.89688  -0.00003  -0.00004  -0.00024  -0.00028   1.89660
   A11        3.18891   0.00001   0.00050   0.00039   0.00090   3.18981
   A12        3.11054  -0.00000  -0.00010  -0.00013  -0.00022   3.11031
    D1        2.11383   0.00002   0.00025   0.00012   0.00037   2.11420
    D2        2.12664   0.00000  -0.00013   0.00010  -0.00003   2.12661
    D3       -2.13215  -0.00000   0.00016  -0.00013   0.00003  -2.13212
    D4        3.14062   0.00000   0.00001   0.00003   0.00004   3.14067
    D5        1.06713  -0.00001   0.00014  -0.00019  -0.00005   1.06709
    D6       -1.06911   0.00001  -0.00012   0.00026   0.00013  -1.06897
         Item               Value     Threshold  Converged?
 Maximum Force            0.000118     0.000450     YES
 RMS     Force            0.000032     0.000300     YES
 Maximum Displacement     0.001462     0.001800     YES
 RMS     Displacement     0.000521     0.001200     YES
 Predicted change in Energy=-7.375637D-08
 Optimization completed.
    -- Stationary point found.
                           ----------------------------
                           !   Optimized Parameters   !
                           ! (Angstroms and Degrees)  !
 --------------------------                            --------------------------
 ! Name  Definition              Value          Derivative Info.                !
 --------------------------------------------------------------------------------
 ! R1    R(1,2)                  0.9623         -DE/DX =    0.0                 !
 ! R2    R(1,3)                  0.9623         -DE/DX =    0.0                 !
 ! R3    R(1,6)                  1.9395         -DE/DX =    0.0                 !
 ! R4    R(4,5)                  1.4187         -DE/DX =   -0.0001              !
 ! R5    R(4,6)                  0.9673         -DE/DX =    0.0001              !
 ! R6    R(5,7)                  1.087          -DE/DX =    0.0                 !
 ! R7    R(5,8)                  1.0924         -DE/DX =    0.0                 !
 ! R8    R(5,9)                  1.0924         -DE/DX =    0.0                 !
 ! A1    A(2,1,3)              104.5523         -DE/DX =    0.0                 !
 ! A2    A(2,1,6)              111.9612         -DE/DX =    0.0                 !
 ! A3    A(3,1,6)              111.4019         -DE/DX =    0.0001              !
 ! A4    A(5,4,6)              107.7953         -DE/DX =    0.0                 !
 ! A5    A(4,5,7)              107.1837         -DE/DX =    0.0                 !
 ! A6    A(4,5,8)              111.997          -DE/DX =    0.0                 !
 ! A7    A(4,5,9)              111.9966         -DE/DX =    0.0                 !
 ! A8    A(7,5,8)              108.4281         -DE/DX =    0.0                 !
 ! A9    A(7,5,9)              108.4268         -DE/DX =    0.0                 !
 ! A10   A(8,5,9)              108.6831         -DE/DX =    0.0                 !
 ! A11   L(1,6,4,8,-1)         182.7113         -DE/DX =    0.0                 !
 ! A12   L(1,6,4,8,-2)         178.2206         -DE/DX =    0.0                 !
 ! D1    D(2,1,3,6)            121.1134         -DE/DX =    0.0                 !
 ! D2    D(2,1,4,5)            121.8475         -DE/DX =    0.0                 !
 ! D3    D(3,1,4,5)           -122.1633         -DE/DX =    0.0                 !
 ! D4    D(6,4,5,7)            179.9444         -DE/DX =    0.0                 !
 ! D5    D(6,4,5,8)             61.1423         -DE/DX =    0.0                 !
 ! D6    D(6,4,5,9)            -61.2554         -DE/DX =    0.0                 !
 --------------------------------------------------------------------------------
 GradGradGradGradGradGradGradGradGradGradGradGradGradGradGradGradGradGrad

                          Input orientation:                          
 ---------------------------------------------------------------------
 Center     Atomic      Atomic             Coordinates (Angstroms)
 Number     Number       Type             X           Y           Z
 ---------------------------------------------------------------------
      1          8           0       -2.014521   -0.219733   -0.000495
      2          1           0       -2.499008    0.115144    0.760531
      3          1           0       -2.490512    0.126722   -0.761722
      4          8           0        0.740414    0.704456    0.000872
      5          6           0        1.622070   -0.406990   -0.000490
      6          1           0       -0.164830    0.363690    0.003153
      7          1           0        2.635207   -0.013213   -0.004059
      8          1           0        1.491328   -1.031901   -0.886949
      9          1           0        1.496770   -1.029753    0.888266
 ---------------------------------------------------------------------
                    Distance matrix (angstroms):
                    1          2          3          4          5
     1  O    0.000000
     2  H    0.962305   0.000000
     3  H    0.962323   1.522321   0.000000
     4  O    2.905821   3.379087   3.369600   0.000000
     5  C    3.641409   4.223158   4.216355   1.418671   0.000000
     6  H    1.939524   2.466533   2.459671   0.967261   1.946014
     7  H    4.654314   5.192422   5.183303   2.026157   1.086978
     8  H    3.706264   4.466843   4.148872   2.089744   1.092436
     9  H    3.711494   4.158527   4.467472   2.089742   1.092439
                    6          7          8          9
     6  H    0.000000
     7  H    2.825300   0.000000
     8  H    2.341541   1.767959   0.000000
     9  H    2.342226   1.767947   1.775225   0.000000
 Stoichiometry    CH6O2
 Framework group  C1[X(CH6O2)]
 Deg. of freedom    21
 Full point group                 C1      NOp   1
 Largest Abelian subgroup         C1      NOp   1
 Largest concise Abelian subgroup C1      NOp   1
                         Standard orientation:                         
 ---------------------------------------------------------------------
 Center     Atomic      Atomic             Coordinates (Angstroms)
 Number     Number       Type             X           Y           Z
 ---------------------------------------------------------------------
      1          8           0       -2.014745   -0.219279   -0.000470
      2          1           0       -2.499355    0.115420    0.760557
      3          1           0       -2.490863    0.127002   -0.761697
      4          8           0        0.739850    0.705923    0.000897
      5          6           0        1.621914   -0.405198   -0.000465
      6          1           0       -0.165268    0.364825    0.003178
      7          1           0        2.634907   -0.011049   -0.004033
      8          1           0        1.491403   -1.030157   -0.886924
      9          1           0        1.496844   -1.028007    0.888292
 ---------------------------------------------------------------------
 Rotational constants (GHZ):          32.3923666           3.8230040           3.5518912

 **********************************************************************

            Population analysis using the SCF density.

 **********************************************************************

 Orbital symmetries:
       Occupied  (A) (A) (A) (A) (A) (A) (A) (A) (A) (A) (A) (A)
                 (A) (A)
       Virtual   (A) (A) (A) (A) (A) (A) (A) (A) (A) (A) (A) (A)
                 (A) (A) (A) (A) (A) (A) (A) (A) (A) (A) (A) (A)
                 (A) (A) (A) (A) (A) (A) (A) (A) (A) (A) (A) (A)
                 (A) (A) (A) (A) (A) (A) (A) (A) (A) (A) (A) (A)
                 (A) (A) (A) (A) (A) (A) (A) (A) (A) (A) (A) (A)
                 (A) (A) (A) (A) (A) (A) (A) (A) (A) (A) (A) (A)
                 (A) (A) (A) (A) (A) (A) (A) (A) (A) (A) (A) (A)
                 (A) (A) (A) (A) (A) (A) (A) (A) (A) (A) (A) (A)
                 (A) (A) (A) (A) (A) (A) (A) (A) (A) (A) (A) (A)
                 (A) (A) (A) (A) (A) (A) (A) (A) (A) (A) (A) (A)
                 (A) (A) (A) (A) (A) (A) (A) (A) (A) (A) (A) (A)
                 (A) (A) (A) (A) (A) (A) (A) (A) (A) (A) (A) (A)
                 (A) (A) (A) (A) (A) (A) (A) (A) (A) (A) (A) (A)
                 (A) (A) (A) (A) (A) (A) (A) (A) (A) (A) (A) (A)
                 (A) (A) (A) (A) (A) (A) (A) (A) (A) (A) (A) (A)
                 (A) (A) (A) (A) (A) (A) (A) (A) (A) (A) (A) (A)
                 (A) (A) (A) (A) (A) (A) (A) (A) (A) (A) (A) (A)
                 (A) (A) (A) (A) (A) (A) (A) (A) (A) (A) (A) (A)
                 (A) (A) (A) (A) (A) (A) (A) (A) (A) (A) (A) (A)
                 (A) (A) (A) (A) (A) (A) (A) (A) (A) (A) (A) (A)
                 (A) (A) (A) (A) (A) (A) (A) (A) (A) (A) (A) (A)
                 (A) (A) (A) (A) (A) (A) (A) (A) (A) (A)
 The electronic state is 1-A.
 Alpha  occ. eigenvalues --  -20.59341 -20.52951 -11.25258  -1.37947  -1.33021
 Alpha  occ. eigenvalues --   -0.90572  -0.74142  -0.67635  -0.61025  -0.59968
 Alpha  occ. eigenvalues --   -0.57273  -0.53861  -0.47876  -0.42730
 Alpha virt. eigenvalues --    0.02275   0.04137   0.04272   0.05565   0.06099
 Alpha virt. eigenvalues --    0.06824   0.10940   0.13262   0.13450   0.14074
 Alpha virt. eigenvalues --    0.15249   0.16725   0.17063   0.17898   0.19864
 Alpha virt. eigenvalues --    0.20920   0.21509   0.21738   0.24906   0.24968
 Alpha virt. eigenvalues --    0.27868   0.29163   0.29743   0.31168   0.31970
 Alpha virt. eigenvalues --    0.32821   0.34287   0.35286   0.36025   0.37562
 Alpha virt. eigenvalues --    0.38319   0.39272   0.40486   0.41096   0.41252
 Alpha virt. eigenvalues --    0.42380   0.44154   0.44559   0.45831   0.46560
 Alpha virt. eigenvalues --    0.47530   0.47983   0.48586   0.51475   0.52801
 Alpha virt. eigenvalues --    0.56268   0.56376   0.61342   0.63626   0.64168
 Alpha virt. eigenvalues --    0.67637   0.70391   0.73213   0.73556   0.75872
 Alpha virt. eigenvalues --    0.77825   0.79871   0.80754   0.81404   0.82017
 Alpha virt. eigenvalues --    0.82939   0.85297   0.85894   0.86771   0.90577
 Alpha virt. eigenvalues --    0.91515   0.92334   0.93623   0.94476   0.96121
 Alpha virt. eigenvalues --    0.96661   0.97538   0.99552   1.00408   1.01273
 Alpha virt. eigenvalues --    1.02158   1.02435   1.03825   1.05918   1.06759
 Alpha virt. eigenvalues --    1.08522   1.09256   1.09544   1.12916   1.13655
 Alpha virt. eigenvalues --    1.15552   1.16466   1.17055   1.19288   1.20771
 Alpha virt. eigenvalues --    1.21373   1.23258   1.24725   1.28694   1.29527
 Alpha virt. eigenvalues --    1.29656   1.33825   1.34238   1.35069   1.38175
 Alpha virt. eigenvalues --    1.39463   1.45165   1.48041   1.51464   1.51737
 Alpha virt. eigenvalues --    1.55370   1.59894   1.60632   1.63298   1.64206
 Alpha virt. eigenvalues --    1.66809   1.68234   1.68945   1.70118   1.70385
 Alpha virt. eigenvalues --    1.72751   1.75379   1.79205   1.82251   1.85038
 Alpha virt. eigenvalues --    1.86002   1.92536   1.94258   1.98098   1.99959
 Alpha virt. eigenvalues --    2.04513   2.07696   2.08783   2.11127   2.13179
 Alpha virt. eigenvalues --    2.16027   2.20613   2.22450   2.25281   2.36328
 Alpha virt. eigenvalues --    2.37616   2.40145   2.48177   2.48480   2.49952
 Alpha virt. eigenvalues --    2.53934   2.56013   2.60943   2.64100   2.64680
 Alpha virt. eigenvalues --    2.69033   2.73441   2.76071   2.80466   2.81644
 Alpha virt. eigenvalues --    2.82482   2.87130   2.87957   2.91804   2.92635
 Alpha virt. eigenvalues --    2.93793   3.03806   3.06197   3.12632   3.23029
 Alpha virt. eigenvalues --    3.32649   3.36232   3.40235   3.57010   3.57080
 Alpha virt. eigenvalues --    3.60798   3.65848   3.68380   3.74406   3.80390
 Alpha virt. eigenvalues --    3.82650   3.88377   3.89974   3.93034   3.96834
 Alpha virt. eigenvalues --    4.02175   4.05502   4.08142   4.10987   4.11553
 Alpha virt. eigenvalues --    4.18162   4.21461   4.21582   4.23886   4.25366
 Alpha virt. eigenvalues --    4.29068   4.30481   4.30965   4.34229   4.46468
 Alpha virt. eigenvalues --    4.46638   4.50556   4.52401   4.56787   4.59011
 Alpha virt. eigenvalues --    4.59049   4.61445   4.65702   4.68741   4.75709
 Alpha virt. eigenvalues --    4.79454   4.79656   4.82002   4.84517   4.89331
 Alpha virt. eigenvalues --    4.96372   5.03621   5.03762   5.06776   5.13321
 Alpha virt. eigenvalues --    5.14729   5.16726   5.23191   5.25782   5.26893
 Alpha virt. eigenvalues --    5.29179   5.32998   5.45365   5.54514   5.54542
 Alpha virt. eigenvalues --    5.61640   5.62500   5.67759   5.67800   5.73812
 Alpha virt. eigenvalues --    5.80922   6.12469   6.15260   6.18561   6.22368
 Alpha virt. eigenvalues --    6.39040   6.52288   6.62158   6.65360   6.65866
 Alpha virt. eigenvalues --    6.81873   6.93791   6.94094   6.98182   7.09416
 Alpha virt. eigenvalues --    7.16668   7.25783   7.29336   7.35377   7.35486
 Alpha virt. eigenvalues --    7.37112   7.41767   7.43706   7.52539   7.54013
 Alpha virt. eigenvalues --    7.58472   7.66705   7.81685   7.92179   7.93320
 Alpha virt. eigenvalues --    7.97324   8.20641   8.62303   8.87461  15.68708
 Alpha virt. eigenvalues --   16.80872  17.80302
          Condensed to atoms (all electrons):
               1          2          3          4          5          6
     1  O    7.906855   0.290862   0.290984  -0.020601   0.013583  -0.048627
     2  H    0.290862   0.478301   0.012567  -0.001301   0.000756   0.000466
     3  H    0.290984   0.012567   0.477851  -0.001282   0.000772   0.000568
     4  O   -0.020601  -0.001301  -0.001282   8.341363   0.082064   0.174849
     5  C    0.013583   0.000756   0.000772   0.082064   5.430254   0.012131
     6  H   -0.048627   0.000466   0.000568   0.174849   0.012131   0.527654
     7  H    0.000965   0.000005   0.000006   0.006145   0.395285  -0.010139
     8  H    0.001678   0.000131   0.000167  -0.001011   0.377899   0.007270
     9  H    0.001691   0.000149   0.000127  -0.001073   0.377973   0.007254
               7          8          9
     1  O    0.000965   0.001678   0.001691
     2  H    0.000005   0.000131   0.000149
     3  H    0.000006   0.000167   0.000127
     4  O    0.006145  -0.001011  -0.001073
     5  C    0.395285   0.377899   0.377973
     6  H   -0.010139   0.007270   0.007254
     7  H    0.261512   0.010534   0.010727
     8  H    0.010534   0.291970   0.002738
     9  H    0.010727   0.002738   0.291616
 Mulliken charges:
               1
     1  O   -0.437390
     2  H    0.218063
     3  H    0.218240
     4  O   -0.579152
     5  C   -0.690718
     6  H    0.328574
     7  H    0.324958
     8  H    0.308625
     9  H    0.308800
 Sum of Mulliken charges =  -0.00000
 Mulliken charges with hydrogens summed into heavy atoms:
               1
     1  O   -0.001087
     4  O   -0.250578
[...]
 187486,0.00004045,0.00001287,-0.00251680,0.00003385,0.00015949,0.00009
 575,-0.00004175,-0.00001019,0.00000015,0.00001861,-0.00003328,-0.00001
 512,0.00219961,0.00542606,0.00313646,0.29999211,-0.12546220,-0.1839691
 9,-0.00015067,-0.00120817,-0.00009163,-0.00412556,-0.00656619,-0.00343
 182,-0.29403439,0.00027716,0.00018404,-0.00019598,0.00003087,-0.000059
 72,0.00010506,-0.00012570,-0.00002331,0.00002142,0.00084846,-0.0009807
 0,-0.00084282,-0.13074667,-0.34522468,-0.92979304,-0.00129869,-0.00013
 089,0.00079308,0.00328502,0.00584796,0.00366726,0.13008897,0.35272231,
 -0.00011508,-0.00019624,0.00005429,0.00004539,0.00004408,-0.00000423,0
 .00006683,0.00002745,-0.00002007,-0.00710726,0.01019625,0.00436650,-0.
 18122441,-0.92931820,-0.90800816,-0.00026991,0.00091286,-0.00006955,0.
 00603544,0.00319957,0.00900864,0.18337633,0.92065247,0.88575394,0.0000
 3481,0.00016101,-0.00009378,0.00002006,-0.00003280,0.00001470,-0.00004
 367,-0.00001226,-0.00000084,0.00223151,0.00534551,-0.00313581,0.302057
 60,-0.11923176,0.17670796,-0.00014919,-0.00121219,0.00009395,-0.004151
 91,-0.00656385,0.00350853,-0.00389172,-0.00235942,-0.00080733,-0.29610
 747,0.00027781,0.00018564,0.00019370,-0.00012386,-0.00002383,-0.000020
 76,0.00002928,-0.00006006,-0.00010453,0.00086844,-0.00100079,0.0008443
 4,-0.12450636,-0.34050799,0.92867888,-0.00130067,-0.00014330,-0.000779
 71,0.00324419,0.00583000,-0.00368060,-0.00239452,-0.01233502,-0.005518
 27,0.12390573,0.34805534,0.00011468,0.00019405,0.00005352,-0.00006412,
 -0.00002690,-0.00001954,-0.00004884,-0.00004443,-0.00000515,0.00711721
 ,-0.01021245,0.00435972,0.17395489,0.92816145,-0.91415800,0.00027440,-
 0.00090088,-0.00006523,-0.00595992,-0.00315032,0.00903014,0.00089905,0
 .00559255,0.00891855,-0.17628736,-0.91961308,0.89188595,-0.00042660,-0
 .00013113,0.00003500,0.00000177,-0.00001615,0.00028024,-0.00013453,-0.
 00010433,-0.00016894,0.00011958,-0.00006368,0.00006047,-0.00003922,0.0
 0007161,-0.00008783,-0.00006918,0.00002333,0.00006018,0.00004918,-0.00
 000951,-0.00003589,-0.00015823,-0.00012324,0.00016106,0.00004567,-0.00
 000790,-0.00003736,0.00014630,-0.00004822,0.00007400,0.00005405,-0.000
 02632,0.00000394,-0.00002798,0.00007315,-0.00010174,0.00006248,-0.0000
 0916,0.00005174,0.00002249,0.00000741,-0.00006464,-0.00002483,0.000015
 34,-0.00002365,-0.00133066,-0.00043227,0.00000002,-0.00000385,-0.00001
 934,-0.00013966,-0.00000175,-0.00002022,0.00014120,-0.01552519,0.00056
 726,0.00003237,-0.00000253,0.00003004,0.00001829,0.00005996,0.00002937
 ,0.00001770,-0.00005683,0.01577113,-0.02063383,0.00000350,0.00000241,-
 0.00009882,0.00006199,0.00002376,0.00000692,-0.00006169,-0.00002307,0.
 00000716,0.00002024,-0.00001510,-0.00108084,0.00106801,0.00046370,-0.0
 0000071,-0.00003145,-0.00004235,0.00010348,-0.00003813,-0.00004362,-0.
 00010308,0.00889930,-0.01139556,-0.00003291,2.37987418,-0.00083484,-0.
 00025968,0.00000233,-0.00001305,-0.00000211,-0.00009702,-0.00001299,-0
 .00000283,0.00009483,-0.04218145,0.00906227,0.00010718,1.18941917,-0.0
 9423535,-0.00000512,-0.00000186,0.00003561,0.00000297,-0.00001566,0.00
 002066,-0.00000197,0.00001560,0.00002169,0.00001943,0.00000613,-0.0072
 5173,-0.00971142,-0.00355016,-0.33425611,0.00151556,0.00052691,0.00000
 451,0.00000882,0.00003604,0.00013060,0.00000802,0.00003854,-0.00013339
 ,-0.00055140,-0.00505291,0.00002723,-0.00181477,0.00096842,-0.00001003
 ,-0.00049758,0.00049633,-0.00000057,0.00000288,0.00003363,0.00000404,0
 .00004247,0.00003136,0.00000528,-0.00004370,0.00129865,0.00658449,-0.0
 0001717,0.00039557,0.00258964,-0.00000018,0.00105278,-0.00483941,0.000
 00400,0.00000100,-0.00029894,0.00003078,0.00002880,0.00002982,-0.00003
 432,-0.00002955,0.00002455,0.00001730,0.00000118,0.00624374,-0.0000093
 9,0.00000169,-0.00300589,-0.00001618,-0.00000302,-0.00513915,-0.000234
 99,-0.00011338,0.00000146,-0.00000847,0.00001666,-0.00000023,-0.000006
 18,0.00001772,-0.00000122,0.01028676,-0.00258559,-0.00002382,-2.462766
 95,-1.14873231,0.01078531,0.00062814,-0.00252633,0.00000461,2.43058845
 ,0.00025978,0.00020529,0.00000015,-0.00002218,-0.00003359,0.00003494,-
 0.00002339,-0.00003383,-0.00003523,0.02461557,-0.00158815,-0.00006609,
 -1.15655398,0.15225127,0.00409407,0.00113322,-0.00348336,-0.00000378,1
 .13095108,-0.14740395,0.00000120,0.00000044,0.00007769,-0.00003691,0.0
 0001942,-0.00004428,0.00003750,-0.00001965,-0.00004414,-0.00006251,0.0
 0001051,0.00048875,0.01079509,0.00407041,0.60624751,-0.00000357,0.0000
 1187,0.00073961,-0.01063423,-0.00401345,-0.59521832,-0.00014895,-0.000
 04338,0.00006597,-0.00001302,0.00000541,-0.00002186,0.00001708,0.00000
 391,0.00001482,-0.00088885,0.00132087,0.00070403,0.03742777,0.00035636
 ,0.00118796,0.00034777,-0.00039184,-0.00204994,0.01076738,-0.00018480,
 -0.00455632,-0.05311370,-0.00012277,-0.00007367,0.00000250,0.00001690,
 0.00001420,-0.00000884,0.00001507,0.00002287,0.00001770,0.00048648,0.0
 0325226,-0.00000314,-0.01147268,-0.03502893,-0.10389637,0.00064454,-0.
 00042811,-0.00079399,0.01147488,0.00003405,-0.00655866,-0.00152767,0.0
 2958891,0.00003975,-0.00002207,-0.00005427,0.00001425,0.00000275,0.000
 01405,-0.00002326,0.00001828,0.00001361,-0.00004574,0.00087835,0.00084
 198,-0.01763566,-0.10607152,-0.13080080,-0.00038249,-0.00010667,0.0007
 1105,0.00891807,-0.00066421,-0.00612880,0.00689444,0.10859918,0.133129
 51,-0.00014961,-0.00004286,-0.00006511,0.00001725,0.00000355,-0.000014
 99,-0.00001280,0.00000506,0.00002153,-0.00088431,0.00131539,-0.0006985
 8,0.03738203,0.00103071,-0.00226716,0.00035539,-0.00039015,0.00205315,
 0.01074580,-0.00017530,0.00445977,0.00560457,0.00048524,0.00222066,-0.
 05305831,-0.00012274,-0.00007324,-0.00000402,0.00001369,0.00002259,-0.
 00001735,0.00001856,0.00001461,0.00000964,0.00048144,0.00325458,-0.000
 00879,-0.01077020,-0.03437423,0.10334844,0.00065249,-0.00043200,0.0007
 9768,0.01149724,0.00005232,0.00647911,0.00046115,0.00261836,-0.0026341
 2,-0.00223163,0.02891698,-0.00003842,0.00002206,-0.00005342,0.00002420
 ,-0.00001774,0.00001319,-0.00001512,-0.00000301,0.00001368,0.00004973,
 -0.00088169,0.00084282,0.01659467,0.10544223,-0.13101087,0.00038333,0.
 00011352,0.00069522,-0.00904997,0.00065361,-0.00611799,-0.00223912,0.0
 0264162,0.00227360,-0.00570928,-0.10797060,0.13334374,0.01013284,-0.01
 247051,0.00320365,-0.00015976,-0.00068823,0.08055302,-0.01030062,0.006
 44424,0.02156002,0.00602160,0.00757281,0.00280804,-0.02320189,-0.00983
 288,-0.00435343,0.02181694,-0.02121243,-0.03382513,-0.02575680,0.02034
 884,0.03359604,-0.00987153,0.00657018,-0.02129430,0.00181409,-0.000063
 70,-0.00079992,0.00559644,0.00782468,0.00216291,0.02393063,-0.00010311
 ,0.00097387,-0.00071270,-0.01005744,-0.00375468,-0.02163158,0.02188675
 ,-0.03379118,0.00081544,0.00069969,-0.00057319,0.02548577,-0.02106801,
 0.03367138,-0.01037948,0.00117750,0.00004324,-0.00145755,-0.00149287,-
 0.00193795,-0.00147951,-0.00150865,0.00190550,5.46106933,-0.00063111,0
 .00232014,0.00002551,-0.00053981,-0.00052426,-0.00041593,-0.00054222,-
 0.00052837,0.00040962,2.63386618,-0.32704405,0.00004641,0.00000542,0.0
 0255418,-0.00066453,-0.00030647,-0.00016967,0.00068916,0.00031391,-0.0
 0018163,-0.01711935,-0.00660462,-1.35648661,-0.00040923,-0.00124007,0.
 00000140,0.00002599,0.00008699,0.00018828,0.00003418,0.00009385,-0.000
 18386,0.00508150,-0.05116423,-0.00001696,-0.01391344,-0.00840940,-0.00
 151637,-0.00001392,-0.00079664,-0.00033958,-0.00045019,-0.00079964,-0.
 00034360,0.00044017,-0.01934209,0.02107065,0.00001977,0.00713517,-0.02
 409678,0.00000928,0.00000815,0.00033346,-0.00005903,0.00001406,0.00004
 339,0.00006090,-0.00001446,0.00004596,-0.00001298,0.00010635,-0.015490
 69,0.00001853,-0.00001047,0.00048102,0.02327166,-0.00012873,-0.0001502
 2,0.00412902,0.00390701,0.00674887,0.00413936,0.00392892,-0.00664447,-
 5.45208190,-2.58350817,0.01705799,0.00470869,0.02378880,-0.00003140,5.
 41022965,0.00077983,-0.00982147,-0.00005593,0.00422334,0.00122831,0.00
 218268,0.00429330,0.00128226,-0.00211463,-2.61405383,0.30487485,0.0065
 7045,0.04332527,-0.00260735,-0.00009389,2.56426082,-0.29395696,-0.0000
 8339,0.00000227,-0.01547025,0.00401281,0.00242664,0.00096253,-0.004050
 41,-0.00243127,0.00086470,0.01712051,0.00648948,1.36721862,-0.00001385
 ,0.00000886,0.01042775,-0.01697682,-0.00650073,-1.36177978,-0.00217672
 ,-0.00045808,-0.00000037,-0.00015752,-0.00011898,-0.00019855,-0.000155
 57,-0.00011892,0.00019451,-0.00142760,0.00025801,0.,0.00041835,-0.0027
 0574,0.00000901,0.00459877,0.00225982,0.00000056,-0.00050990,0.0025647
 4,0.00055980,0.00000272,0.00030988,0.00008810,0.00010054,0.00030680,0.
 00008794,-0.00009873,0.00132546,0.00429011,-0.00000496,0.00253147,0.00
 362827,-0.00000356,-0.00778344,-0.00508709,0.00000876,0.00103170,-0.00
 333077,0.00000236,-0.00000122,-0.00012535,0.00002922,-0.00000361,-0.00
 001027,-0.00002930,0.00000462,-0.00001207,-0.00000030,-0.00001089,0.00
 022330,0.00000734,0.00001376,0.00222004,0.00000033,0.00000126,-0.00035
 509,-0.00000721,-0.00000353,-0.00130246,-0.00013060,0.00005273,-0.0000
 5540,-0.00003488,-0.00003057,-0.00002256,-0.00004006,-0.00002806,0.000
 03705,0.00034045,0.00113577,0.00167784,0.00202173,0.00057235,0.0009228
 9,0.00049503,-0.00255329,-0.00258821,-0.00029556,-0.00014394,-0.000114
 11,-0.00241848,0.00138771,0.00014232,-0.00019505,0.00018532,0.00007373
 ,0.00007096,0.00010999,0.00004604,-0.00008597,0.00001759,-0.00223439,-
 0.00124717,-0.00038755,0.00209283,0.00004460,-0.00223720,0.00204711,0.
 00184540,-0.00007217,-0.00011830,0.00022687,0.00094034,-0.00164847,0.0
 0079296,0.00000459,-0.00011410,0.00014888,0.00003864,0.00002945,0.0000
 8680,0.00001612,-0.00005115,0.00087055,-0.00023951,0.00116035,-0.00083
 936,0.00173269,0.00096919,-0.00106847,-0.00099663,-0.00092811,-0.00006
 196,-0.00024974,-0.00031906,0.00010744,-0.00048481,-0.00044017,-0.0001
 3632,0.00005274,0.00005539,-0.00004012,-0.00002780,-0.00003830,-0.0000
 3738,-0.00003126,0.00002162,0.00033483,0.00112559,-0.00167056,0.002032
 26,0.00055717,-0.00091719,0.00050965,-0.00253525,0.00257882,-0.0002944
 0,-0.00014268,0.00011169,0.00006247,0.00005594,-0.00003683,-0.00243097
 ,0.00138126,0.00014098,0.00019616,0.00010966,0.00004522,0.00008822,0.0
 0018275,0.00007363,-0.00006891,0.00001068,-0.00222468,0.00125365,-0.00
 038088,0.00211192,-0.00005076,-0.00222800,0.00204034,-0.00184941,-0.00
 007564,-0.00011801,-0.00022728,0.00005467,-0.00040089,0.00017864,0.000
 94555,-0.00166849,-0.00079321,-0.00000531,-0.00011465,-0.00008600,-0.0
 0001590,-0.00005313,-0.00014869,-0.00003886,0.00002717,-0.00086922,0.0
 0023996,0.00117213,0.00083853,-0.00174071,0.00096997,0.00106417,0.0010
 0741,-0.00094036,0.00006398,0.00024852,-0.00031897,0.00003506,-0.00017
 483,-0.00030648,-0.00010463,0.00047970,-0.00043573,0.64377190,-1.39980
 990,-0.32942346,-0.02114813,-0.04204013,3.59916298,-0.33865701,0.69234
 759,1.57100282,0.30729320,0.69330378,0.18110327,-1.09093212,-0.6946116
 8,-0.21457771,1.50080048,-1.03974138,-1.79521926,-1.53614717,1.0646344
 9,1.83631252,-0.30578725,0.70701192,-1.54985276,0.03207159,0.00161629,
 0.03597480,0.27443851,0.70637461,0.14873676,1.13297506,0.00242049,0.03
 307518,-0.02490842,-0.70846704,-0.18221272,-1.47965499,1.08177410,-1.8
 0308943,-0.03503973,0.02598258,-0.04188889,1.51406132,-1.10774063,1.84
 418820,0.00122690,0.00026228,-0.00000586,0.00000463,0.00013051,0.00059
 555,0.00001598,0.00013754,-0.00058952,0.09276585,0.00096221,0.00060360
 ,-0.00000139,-0.00017677,-0.00030386,-0.00006760,-0.00017797,-0.000308
 33,0.00007107,0.04541864,-0.00455435,-0.00000123,0.00000026,0.00001257
 ,-0.00004399,-0.00004179,-0.00015796,0.00004509,0.00004433,-0.00015024
 ,-0.00030155,-0.00011934,-0.02320973,-0.00015814,-0.00018896,-0.000000
 30,0.00001505,0.00003733,-0.00020365,0.00001322,0.00003527,0.00020457,
 0.00002668,-0.00069630,0.00000005,0.00033751,-0.00035452,-0.00013689,0
 .00000421,0.00023813,0.00014506,0.00035555,0.00023918,0.00015282,-0.00
 036103,0.00015344,-0.00017438,0.00000735,-0.00008262,0.00031473,-0.000
 00434,0.00000017,-0.00000217,-0.00002572,0.00000886,0.00002273,0.00003
 170,-0.00000869,0.00002606,0.00001367,-0.00000026,-0.00007725,-0.00002
 028,-0.00000092,-0.00008282,-0.00034895,0.00039274,0.00000280,-0.00075
 483,-0.00051995,-0.00110765,-0.00078069,-0.00054683,0.00110726,-0.0941
 5547,-0.04523797,0.00030423,0.00015508,-0.00024936,-0.00001077,0.09594
 723,-0.00064647,-0.00092088,0.00000041,-0.00010975,0.00061498,-0.00014
 998,-0.00011489,0.00061650,0.00014541,-0.04583752,0.00454655,0.0001057
 5,0.00084327,-0.00011661,0.00000524,0.04598258,-0.00477662,0.00000568,
 0.00000772,-0.00089170,0.00023201,0.00036461,0.00097021,-0.00023445,-0
 .00037815,0.00095519,0.00029247,0.00011378,0.02356144,0.00000362,0.000
 00045,0.00017436,-0.00029818,-0.00010750,-0.02471534,-0.00005077,-0.00
 001361,0.00000424,0.00004063,0.00002392,0.00008045,0.00004120,0.000027
 31,-0.00008486,0.00012441,-0.00014924,-0.00000048,-0.00025228,0.000010
 38,0.00000468,-0.00006556,-0.00000961,0.00000055,0.00010463,0.00011801
 ,0.00003099,-0.00000432,-0.00006022,-0.00003142,-0.00001551,-0.0000593
 2,-0.00003381,0.00002017,-0.00010510,0.00015498,0.00000307,-0.00004264
 ,-0.00004157,0.00000030,0.00007213,-0.00006856,-0.00000329,0.00007790,
 -0.00001798,0.00000083,-0.00000078,0.00002392,0.00000286,-0.00000856,-
 0.00002218,-0.00000420,0.00000906,-0.00002244,-0.00000067,-0.00000057,
 -0.00003648,0.00000784,0.00000287,0.00008233,0.00000051,-0.00000006,0.
 00001170,-0.00000641,-0.00000188,-0.00004578,0.00000260,-0.00000140,-0
 .00001029,-0.00001099,0.00002350,0.00002945,-0.00000262,-0.00000380,0.
 00002366,-0.00001030,0.00003192,0.00005287,-0.00007418,0.00002267,0.00
 004310,0.00000398,-0.00005434,-0.00006778,0.00003019,0.00000005,0.0000
 0638,0.00005576,0.00002657,0.00000376,-0.00000860,-0.00000888,-0.00000
 941,-0.00005809,-0.00003966,-0.00001718,0.00005034,-0.00007521,0.00001
 776,-0.00003353,0.00004597,-0.00008584,0.00000180,0.00004972,0.0000536
 4,0.00002767,0.00001808,0.00000326,-0.00000077,-0.00001528,0.00001957,
 0.00004418,-0.00000590,0.00000282,-0.00000117,-0.00002275,0.00000681,-
 0.00002083,-0.00001448,-0.00002580,-0.00004619,0.00007820,0.00002831,-
 0.00000319,-0.00007179,-0.00006994,0.00006537,0.00001184,-0.00003227,0
 .00000871,0.00000731,0.00000388,-0.00006362,0.00001682,0.00006217,0.00
 000070,-0.00000068,0.00000749,-0.00000228,-0.00000370,-0.00002225,-0.0
 0000995,0.00002246,-0.00002772,0.00000138,0.00002549,-0.00005500,-0.00
 006296,0.00002273,-0.00003205,-0.00000084,-0.00005324,0.00006610,0.000
 02749,-0.00000091,-0.00000714,0.00000563,-0.00000132,0.00001673,0.0000
 4083,0.00002569,0.00000282,0.00000688,-0.00003891,-0.00001610,-0.00004
 906,-0.00000850,-0.00000923,0.00005798,-0.00008460,0.00001805,0.000033
 91,0.00004875,-0.00005728,-0.00000651,0.00005695,0.00005099,-0.0000252
 8,0.00001481,0.00000412,0.00000069,-0.00000333,0.00001440,0.00000077,-
 0.00001083,-0.00000777,-0.00004249,0.00000595,0.00000026,0.00002009,0.
 00001468,-0.00002398,-0.00000066,0.00002192,0.00000736,0.00004212,-0.0
 0007389,0.00002933,0.00001139,0.00006327,-0.00007325,-0.00006358,-0.00
 001111,-0.00003357,-0.00000691,-0.00000583,0.00000509,-0.00001380,0.00
 000436,0.00002396,0.00005385,-0.00001935,0.00006479,0.75161813,-1.6020
 1379,-0.36661368,-0.03454636,-0.03424296,3.57231654,-0.39526164,0.7958
 1381,1.67467514,0.39253905,0.79629579,0.20180793,-1.16133114,-0.790566
 67,-0.20126819,1.67859008,-1.16326736,-1.78861423,-1.67632222,1.162148
 96,1.78421266,-0.35676072,0.80472413,-1.64013997,0.00283381,-0.0051348
 7,-0.00199141,0.35402684,0.80531729,0.16517573,1.19557727,-0.00519406,
 -0.00073705,0.00115885,-0.79953547,-0.16464134,-1.64405125,1.19750681,
 -1.78256799,0.00178281,-0.00123983,0.00382353,1.64199126,-1.19631122,1
 .77817685,0.00062845,-0.00065974,-0.00001219,-0.00035866,0.00023710,0.
 00009796,-0.00033173,0.00025161,-0.00008477,-0.00028596,0.00041159,0.0
 0107033,0.00000221,-0.00024013,-0.00045601,-0.00009897,-0.00023367,-0.
 00046277,0.00009720,0.00006624,-0.00015621,-0.00000770,-0.00000331,0.0
 0050691,0.00013804,-0.00036422,-0.00020132,-0.00012836,0.00036812,-0.0
 0019307,-0.00000855,-0.00000654,-0.00025178,0.00021991,0.00027847,-0.0
 0000185,-0.00003462,-0.00010495,-0.00004777,-0.00002748,-0.00010743,0.
 00004990,0.00008611,-0.00022883,0.00000380,-0.00044624,-0.00021348,-0.
 00089070,-0.00000003,0.00006400,0.00034382,0.00017777,0.00006438,0.000
 35623,-0.00017784,-0.00026692,0.00023205,0.00000923,0.00024913,-0.0005
 0846,0.00000891,0.00000723,-0.00018993,-0.00006757,0.00001158,0.000071
 63,0.00006270,-0.00001575,0.00007053,0.00001184,0.00000136,0.00012953,
 -0.00002370,-0.00000394,-0.00008989,-0.00034816,0.00207321,0.00002515,
 0.00025022,-0.00080908,-0.00034615,0.00023252,-0.00081699,0.00033162,0
 .00038524,0.00015592,0.00000814,-0.00013566,0.00022709,-0.00000826,-0.
 00044723,0.00016317,-0.00096533,-0.00000414,0.00015507,0.00047064,-0.0
 0006016,0.00014609,0.00047593,0.00006495,0.00016067,-0.00014068,-0.000
 00425,0.00001073,0.00025617,-0.00000007,-0.00068419,0.00003568,0.00000
 881,-0.00000079,-0.00158411,-0.00024606,0.00080714,0.00075956,0.000248
 10,-0.00080766,0.00073975,-0.00000371,-0.00000152,0.00001007,0.0000038
 4,0.00000172,-0.00001583,-0.00001015,0.00000353,0.00009869,-0.00004930
 ,-0.00014539,0.00000474,0.00001636,0.00006435,0.00002200,0.00000636,0.
 00006449,-0.00002761,-0.00012242,0.00005494,-0.00000115,0.00021010,-0.
 00005750,0.00000647,0.00004348,0.00002892,0.00000271,-0.00006240,0.000
 02342,0.00016974,-0.00000678,-0.00002939,-0.00006803,-0.00001896,-0.00
 000178,-0.00006216,0.00002821,0.00004539,0.00000599,0.00000421,0.00002
 982,0.00001690,-0.00000435,-0.00004971,-0.00004051,-0.00000615,-0.0000
 0421,-0.00001786,-0.00000199,-0.00000088,0.00007608,0.00001442,-0.0000
 1487,-0.00003340,-0.00001425,0.00001485,-0.00003189,0.00000140,-0.0000
 0060,0.00000844,0.00000705,0.00000324,0.00000399,-0.00000047,0.0000002
 3,0.00000593,-0.00000558,0.00000097,-0.00005029,-0.00002497,-0.0000379
 7,-0.00008212,-0.00003058,0.00005813,0.00003968,0.00005116,-0.00003610
 ,0.00004406,-0.00000657,0.00000681,-0.00000403,0.00006216,-0.00003159,
 -0.00002553,0.00001138,0.00001223,-0.00000853,-0.00001923,-0.00000758,
 0.00002156,-0.00002866,0.00001010,0.00012463,0.00003850,0.00002541,-0.
 00006731,-0.00003208,-0.00004274,-0.00003269,0.00000342,0.00008532,-0.
 00004471,-0.00000558,-0.00006523,0.00008326,-0.00003270,-0.00005041,-0
 .00004591,0.00001169,-0.00000216,-0.00000299,0.00000007,0.00002690,0.0
 0000363,-0.00000406,0.00008730,0.00003321,0.00001412,-0.00004045,-0.00
 002333,-0.00002915,-0.00003036,-0.00000108,0.00007452,-0.00008515,-0.0
 0000621,-0.00001934,0.00002979,0.00001908,-0.00001779,-0.00000570,-0.0
 0000515,-0.00002025,0.00003292,0.00000846,0.00000540,0.00001289,-0.000
 03686,-0.00002170,-0.00003274,0.00007748,0.00004605,-0.00003978,-0.000
 04218,-0.00003078,0.00005667,-0.00003602,0.00000559,0.00000713,-0.0000
 0020,0.00006577,-0.00003511,0.00003515,0.00000817,0.00000731,0.0000050
 1,-0.00002306,-0.00000599,-0.00002211,-0.00001463,0.00001281,-0.000003
 47,-0.00003544,0.00000591,0.00012135,-0.00003292,-0.00002803,-0.000025
 78,-0.00000806,0.00001394,-0.00007189,0.00002831,0.00008034,-0.0000480
 0,0.00000234,-0.00006164,0.00011073,0.00003662,-0.00004586,-0.00004599
 ,-0.00000795,-0.00000347,-0.00000106,-0.00000301,0.00000915,-0.0000179
 2,-0.00000122,0.00002969,-0.00002143,0.00000356,-0.00008604,0.00002352
 ,0.00001135,0.00002284,0.00000492,0.00000107,0.00004590,-0.00001665,-0
 .00007649,0.00009200,-0.00000258,0.00002810,-0.00003999,0.00000097,0.0
 0001790,0.00000564,-0.00000891,0.00001865,-0.00003005,0.00001273,0.000
 00948,0.00000381,0.00001186,-0.00001363,-0.00001411,-0.00002595\\@


 ALL THINGS ARE POSSIBLE EXCEPT SKIING THROUGH A REVOLVING DOOR.
 Job cpu time:      12 days  2 hours 37 minutes 58.8 seconds.
 Elapsed time:       0 days 10 hours 33 minutes 43.4 seconds.
 File lengths (MBytes):  RWF=  13804 Int=      0 D2E=      0 Chk=     56 Scr=      8
 Normal termination of Gaussian 16 at Mon Dec 20 22:51:51 2021.
