 Entering Gaussian System, Link 0=g16
 Input=nmeh2_nh3_mp2_avtz_opt_anharm.gjf
 Output=nmeh2_nh3_mp2_avtz_opt_anharm.log
 Initial command:
 /sw/contrib/gaussian/g16/A03/g16/l1.exe "/gscratch/scrubbed/gds001/Gau-8702.inp" -scrdir="/gscratch/scrubbed/gds001/"
 Entering Link 1 = /sw/contrib/gaussian/g16/A03/g16/l1.exe PID=      8703.
  
 Copyright (c) 1988,1990,1992,1993,1995,1998,2003,2009,2016,
            Gaussian, Inc.  All Rights Reserved.
  
 This is part of the Gaussian(R) 16 program.  It is based on
 the Gaussian(R) 09 system (copyright 2009, Gaussian, Inc.),
 the Gaussian(R) 03 system (copyright 2003, Gaussian, Inc.),
 the Gaussian(R) 98 system (copyright 1998, Gaussian, Inc.),
 the Gaussian(R) 94 system (copyright 1995, Gaussian, Inc.),
 the Gaussian 92(TM) system (copyright 1992, Gaussian, Inc.),
 the Gaussian 90(TM) system (copyright 1990, Gaussian, Inc.),
 the Gaussian 88(TM) system (copyright 1988, Gaussian, Inc.),
 the Gaussian 86(TM) system (copyright 1986, Carnegie Mellon
 University), and the Gaussian 82(TM) system (copyright 1983,
 Carnegie Mellon University). Gaussian is a federally registered
 trademark of Gaussian, Inc.
  
 This software contains proprietary and confidential information,
 including trade secrets, belonging to Gaussian, Inc.
  
 This software is provided under written license and may be
 used, copied, transmitted, or stored only in accord with that
 written license.
  
 The following legend is applicable only to US Government
 contracts under FAR:
  
                    RESTRICTED RIGHTS LEGEND
  
 Use, reproduction and disclosure by the US Government is
 subject to restrictions as set forth in subparagraphs (a)
 and (c) of the Commercial Computer Software - Restricted
 Rights clause in FAR 52.227-19.
  
 Gaussian, Inc.
 340 Quinnipiac St., Bldg. 40, Wallingford CT 06492
  
  
 ---------------------------------------------------------------
 Warning -- This program may not be used in any manner that
 competes with the business of Gaussian, Inc. or will provide
 assistance to any competitor of Gaussian, Inc.  The licensee
 of this program is prohibited from giving any competitor of
 Gaussian, Inc. access to this program.  By using this program,
 the user acknowledges that Gaussian, Inc. is engaged in the
 business of creating and licensing software in the field of
 computational chemistry and represents and warrants to the
 licensee that it is not a competitor of Gaussian, Inc. and that
 it will not use this program in any manner prohibited above.
 ---------------------------------------------------------------
  

 Cite this work as:
 Gaussian 16, Revision A.03,
 M. J. Frisch, G. W. Trucks, H. B. Schlegel, G. E. Scuseria, 
 M. A. Robb, J. R. Cheeseman, G. Scalmani, V. Barone, 
 G. A. Petersson, H. Nakatsuji, X. Li, M. Caricato, A. V. Marenich, 
 J. Bloino, B. G. Janesko, R. Gomperts, B. Mennucci, H. P. Hratchian, 
 J. V. Ortiz, A. F. Izmaylov, J. L. Sonnenberg, D. Williams-Young, 
 F. Ding, F. Lipparini, F. Egidi, J. Goings, B. Peng, A. Petrone, 
 T. Henderson, D. Ranasinghe, V. G. Zakrzewski, J. Gao, N. Rega, 
 G. Zheng, W. Liang, M. Hada, M. Ehara, K. Toyota, R. Fukuda, 
 J. Hasegawa, M. Ishida, T. Nakajima, Y. Honda, O. Kitao, H. Nakai, 
 T. Vreven, K. Throssell, J. A. Montgomery, Jr., J. E. Peralta, 
 F. Ogliaro, M. J. Bearpark, J. J. Heyd, E. N. Brothers, K. N. Kudin, 
 V. N. Staroverov, T. A. Keith, R. Kobayashi, J. Normand, 
 K. Raghavachari, A. P. Rendell, J. C. Burant, S. S. Iyengar, 
 J. Tomasi, M. Cossi, J. M. Millam, M. Klene, C. Adamo, R. Cammi, 
 J. W. Ochterski, R. L. Martin, K. Morokuma, O. Farkas, 
 J. B. Foresman, and D. J. Fox, Gaussian, Inc., Wallingford CT, 2016.
 
 ******************************************
 Gaussian 16:  ES64L-G16RevA.03 25-Dec-2016
                20-Dec-2021 
 ******************************************
 %nprocshared=28
 Will use up to   28 processors via shared memory.
 %mem=41GB
 ----------------------------------------------
 # MP2/aug-cc-pVTZ opt freq=(vibrot,anharmonic)
 ----------------------------------------------
 1/18=20,19=15,38=1,80=1/1,3;
 2/9=110,12=2,17=6,18=5,40=1/2;
 3/5=16,6=1,7=10,11=9,25=1,30=1,71=1/1,2,3;
 4//1;
 5/5=2,38=5/2;
 8/6=4,10=1/1;
 9/15=2,16=-3/6;
 10/5=1/2;
 6/7=2,8=2,9=2,10=2/1;
 7/12=2/1,2,3,16;
 1/18=20,19=15,80=1/3(2);
 2/9=110/2;
 99//99;
 2/9=110/2;
 3/5=16,6=1,7=10,11=9,25=1,30=1,71=1/1,2,3;
 4/5=5,16=3,69=1/1;
 5/5=2,38=5/2;
 8/6=4,10=1/1;
 9/15=2,16=-3/6;
 10/5=1/2;
 7/12=2/1,2,3,16;
 1/18=20,19=15,80=1/3(-8);
 2/9=110/2;
 6/7=2,8=2,9=2,10=2/1;
 99//99;
 ----
 bleh
 ----
 Symbolic Z-matrix:
 Charge =  0 Multiplicity = 1
 N                     0.89903   0.71897  -0.12273 
 C                     1.68742  -0.51411   0.0229 
 H                     1.25889   1.43497   0.50803 
 H                    -0.06773   0.54013   0.1608 
 N                    -2.22748  -0.11432   0.04263 
 H                    -2.46801  -1.10405   0.09947 
 H                    -2.27199   0.13448  -0.94618 
 H                    -2.98758   0.39049   0.49868 
 H                     2.72572  -0.32533  -0.28978 
 H                     1.27679  -1.28     -0.6526 
 H                     1.70852  -0.93851   1.04492 
 
 Add virtual bond connecting atoms N5         and H4         Dist= 4.27D+00.

 GradGradGradGradGradGradGradGradGradGradGradGradGradGradGradGradGradGrad
 Berny optimization.
 Initialization pass.
                           ----------------------------
                           !    Initial Parameters    !
                           ! (Angstroms and Degrees)  !
 --------------------------                            --------------------------
 ! Name  Definition              Value          Derivative Info.                !
 --------------------------------------------------------------------------------
 ! R1    R(1,2)                  1.4708         estimate D2E/DX2                !
 ! R2    R(1,3)                  1.0198         estimate D2E/DX2                !
 ! R3    R(1,4)                  1.0232         estimate D2E/DX2                !
 ! R4    R(2,9)                  1.1007         estimate D2E/DX2                !
 ! R5    R(2,10)                 1.1007         estimate D2E/DX2                !
 ! R6    R(2,11)                 1.1068         estimate D2E/DX2                !
 ! R7    R(4,5)                  2.2598         estimate D2E/DX2                !
 ! R8    R(5,6)                  1.0201         estimate D2E/DX2                !
 ! R9    R(5,7)                  1.0206         estimate D2E/DX2                !
 ! R10   R(5,8)                  1.0201         estimate D2E/DX2                !
 ! A1    A(2,1,3)              109.7684         estimate D2E/DX2                !
 ! A2    A(2,1,4)              109.4196         estimate D2E/DX2                !
 ! A3    A(3,1,4)              106.5419         estimate D2E/DX2                !
 ! A4    A(1,2,9)              109.4955         estimate D2E/DX2                !
 ! A5    A(1,2,10)             108.8213         estimate D2E/DX2                !
 ! A6    A(1,2,11)             115.0306         estimate D2E/DX2                !
 ! A7    A(9,2,10)             107.2738         estimate D2E/DX2                !
 ! A8    A(9,2,11)             108.0653         estimate D2E/DX2                !
 ! A9    A(10,2,11)            107.8777         estimate D2E/DX2                !
 ! A10   A(1,4,5)              159.9006         estimate D2E/DX2                !
 ! A11   A(4,5,6)              120.2259         estimate D2E/DX2                !
 ! A12   A(4,5,7)               91.2462         estimate D2E/DX2                !
 ! A13   A(4,5,8)              123.0554         estimate D2E/DX2                !
 ! A14   A(6,5,7)              106.2734         estimate D2E/DX2                !
 ! A15   A(6,5,8)              106.2312         estimate D2E/DX2                !
 ! A16   A(7,5,8)              106.2603         estimate D2E/DX2                !
 ! D1    D(3,1,2,9)            -63.8863         estimate D2E/DX2                !
 ! D2    D(3,1,2,10)           179.1478         estimate D2E/DX2                !
 ! D3    D(3,1,2,11)            58.0095         estimate D2E/DX2                !
 ! D4    D(4,1,2,9)            179.5304         estimate D2E/DX2                !
 ! D5    D(4,1,2,10)            62.5644         estimate D2E/DX2                !
 ! D6    D(4,1,2,11)           -58.5738         estimate D2E/DX2                !
 ! D7    D(2,1,4,5)            -83.3457         estimate D2E/DX2                !
 ! D8    D(3,1,4,5)            158.0465         estimate D2E/DX2                !
 ! D9    D(1,4,5,6)             77.3626         estimate D2E/DX2                !
 ! D10   D(1,4,5,7)            -32.3354         estimate D2E/DX2                !
 ! D11   D(1,4,5,8)           -142.7194         estimate D2E/DX2                !
 --------------------------------------------------------------------------------
 Trust Radius=3.00D-01 FncErr=1.00D-07 GrdErr=1.00D-07 EigMax=2.50D+02 EigMin=1.00D-04
 Number of steps in this run=     47 maximum allowed number of steps=    100.
 GradGradGradGradGradGradGradGradGradGradGradGradGradGradGradGradGradGrad

                          Input orientation:                          
 ---------------------------------------------------------------------
 Center     Atomic      Atomic             Coordinates (Angstroms)
 Number     Number       Type             X           Y           Z
 ---------------------------------------------------------------------
      1          7           0        0.899025    0.718966   -0.122734
      2          6           0        1.687424   -0.514113    0.022899
      3          1           0        1.258887    1.434966    0.508030
      4          1           0       -0.067732    0.540128    0.160803
      5          7           0       -2.227475   -0.114323    0.042628
      6          1           0       -2.468009   -1.104045    0.099471
      7          1           0       -2.271988    0.134480   -0.946176
      8          1           0       -2.987583    0.390485    0.498675
      9          1           0        2.725724   -0.325326   -0.289777
     10          1           0        1.276793   -1.279996   -0.652597
     11          1           0        1.708515   -0.938514    1.044924
 ---------------------------------------------------------------------
                    Distance matrix (angstroms):
                    1          2          3          4          5
     1  N    0.000000
     2  C    1.470804   0.000000
     3  H    1.019814   2.053754   0.000000
     4  H    1.023228   2.052076   1.637443   0.000000
     5  N    3.239864   3.935309   3.843386   2.259814   0.000000
     6  H    3.835318   4.197798   4.528052   2.910051   1.020116
     7  H    3.327913   4.127556   4.033988   2.499739   1.020597
     8  H    3.949654   4.785431   4.373046   2.943141   1.020085
     9  H    2.110753   1.100670   2.426259   2.958957   4.968822
    10  H    2.102216   1.100677   2.952693   2.404624   3.757928
    11  H    2.183103   1.106841   2.474637   2.474491   4.144382
                    6          7          8          9         10
     6  H    0.000000
     7  H    1.632711   0.000000
     8  H    1.631852   1.632547   0.000000
     9  H    5.266192   5.061562   5.811705   0.000000
    10  H    3.823625   3.831550   4.722376   1.772691   0.000000
    11  H    4.285398   4.578231   4.911004   1.786656   1.784537
                   11
    11  H    0.000000
 Stoichiometry    CH8N2
 Framework group  C1[X(CH8N2)]
 Deg. of freedom    27
 Full point group                 C1      NOp   1
 Largest Abelian subgroup         C1      NOp   1
 Largest concise Abelian subgroup C1      NOp   1
                         Standard orientation:                         
 ---------------------------------------------------------------------
 Center     Atomic      Atomic             Coordinates (Angstroms)
 Number     Number       Type             X           Y           Z
 ---------------------------------------------------------------------
      1          7           0        0.899025    0.718966   -0.122734
      2          6           0        1.687424   -0.514113    0.022899
      3          1           0        1.258887    1.434966    0.508030
      4          1           0       -0.067732    0.540128    0.160803
      5          7           0       -2.227475   -0.114323    0.042628
      6          1           0       -2.468009   -1.104045    0.099471
      7          1           0       -2.271988    0.134480   -0.946176
      8          1           0       -2.987583    0.390485    0.498675
      9          1           0        2.725724   -0.325326   -0.289777
     10          1           0        1.276793   -1.279996   -0.652597
     11          1           0        1.708515   -0.938514    1.044924
 ---------------------------------------------------------------------
 Rotational constants (GHZ):          24.9386014           3.3196706           3.0446611
 Standard basis: Aug-CC-pVTZ (5D, 7F)
 There are   365 symmetry adapted cartesian basis functions of A   symmetry.
 There are   322 symmetry adapted basis functions of A   symmetry.
   322 basis functions,   432 primitive gaussians,   365 cartesian basis functions
    14 alpha electrons       14 beta electrons
       nuclear repulsion energy        79.6699764605 Hartrees.
 NAtoms=   11 NActive=   11 NUniq=   11 SFac= 1.00D+00 NAtFMM=   60 NAOKFM=F Big=F
 Integral buffers will be    131072 words long.
 Raffenetti 1 integral format.
 Two-electron integral symmetry is turned on.
 One-electron integrals computed using PRISM.
 NBasis=   322 RedAO= T EigKep=  3.92D-05  NBF=   322
 NBsUse=   322 1.00D-06 EigRej= -1.00D+00 NBFU=   322
 ExpMin= 2.53D-02 ExpMax= 1.14D+04 ExpMxC= 3.89D+02 IAcc=3 IRadAn=         5 AccDes= 0.00D+00
 Harris functional with IExCor=  205 and IRadAn=       5 diagonalized for initial guess.
 HarFok:  IExCor=  205 AccDes= 0.00D+00 IRadAn=         5 IDoV= 1 UseB2=F ITyADJ=14
 ICtDFT=  3500011 ScaDFX=  1.000000  1.000000  1.000000  1.000000
 FoFCou: FMM=F IPFlag=           0 FMFlag=      100000 FMFlg1=           0
         NFxFlg=           0 DoJE=T BraDBF=F KetDBF=T FulRan=T
         wScrn=  0.000000 ICntrl=       500 IOpCl=  0 I1Cent=   200000004 NGrid=           0
         NMat0=    1 NMatS0=      1 NMatT0=    0 NMatD0=    1 NMtDS0=    0 NMtDT0=    0
 Petite list used in FoFCou.
 Keep R1 ints in memory in canonical form, NReq=1376697355.
 Requested convergence on RMS density matrix=1.00D-08 within 128 cycles.
 Requested convergence on MAX density matrix=1.00D-06.
 Requested convergence on             energy=1.00D-06.
 No special actions if energy rises.
 SCF Done:  E(RHF) =  -151.476107611     A.U. after   11 cycles
            NFock= 11  Conv=0.44D-08     -V/T= 2.0023
 ExpMin= 2.53D-02 ExpMax= 1.14D+04 ExpMxC= 3.89D+02 IAcc=3 IRadAn=         5 AccDes= 0.00D+00
 HarFok:  IExCor=  205 AccDes= 0.00D+00 IRadAn=         5 IDoV=-2 UseB2=F ITyADJ=14
 ICtDFT= 12500011 ScaDFX=  1.000000  1.000000  1.000000  1.000000
 Range of M.O.s used for correlation:     4   322
 NBasis=   322 NAE=    14 NBE=    14 NFC=     3 NFV=     0
 NROrb=    319 NOA=    11 NOB=    11 NVA=   308 NVB=   308

 **** Warning!!: The largest alpha MO coefficient is  0.47022445D+02

 Disk-based method using ON**2 memory for 11 occupieds at a time.
 Estimated scratch disk usage=   958521432 words.
 Actual    scratch disk usage=   902422616 words.
 JobTyp=1 Pass  1:  I=   4 to  14 NPSUse= 28 ParTrn=T ParDer=T DoDerP=T.
 (rs|ai) integrals will be sorted in core.
 Spin components of T(2) and E(2):
     alpha-alpha T2 =       0.2227540027D-01 E2=     -0.7238109324D-01
     alpha-beta  T2 =       0.1442960918D+00 E2=     -0.5117921959D+00
     beta-beta   T2 =       0.2227540027D-01 E2=     -0.7238109324D-01
 ANorm=    0.1090342557D+01
 E2 =    -0.6565543823D+00 EUMP2 =    -0.15213266199285D+03
          IDoAtm=11111111111
          Differentiating once with respect to electric field.
                with respect to dipole field.
          Differentiating once with respect to nuclear coordinates.
 Keep R1 ints in memory in canonical form, NReq=1376699358.
          There are     1 degrees of freedom in the 1st order CPHF.  IDoFFX=0 NUNeed=     1.
 LinEq1:  Iter=  0 NonCon=     1 RMS=2.13D-03 Max=2.16D-02 NDo=     1
 AX will form     1 AO Fock derivatives at one time.
 LinEq1:  Iter=  1 NonCon=     1 RMS=6.27D-04 Max=6.05D-03 NDo=     1
 LinEq1:  Iter=  2 NonCon=     1 RMS=2.17D-04 Max=2.54D-03 NDo=     1
 LinEq1:  Iter=  3 NonCon=     1 RMS=4.45D-05 Max=3.51D-04 NDo=     1
 LinEq1:  Iter=  4 NonCon=     1 RMS=1.42D-05 Max=1.10D-04 NDo=     1
 LinEq1:  Iter=  5 NonCon=     1 RMS=3.24D-06 Max=3.05D-05 NDo=     1
 LinEq1:  Iter=  6 NonCon=     1 RMS=7.01D-07 Max=9.92D-06 NDo=     1
 LinEq1:  Iter=  7 NonCon=     1 RMS=2.09D-07 Max=2.16D-06 NDo=     1
 LinEq1:  Iter=  8 NonCon=     1 RMS=7.31D-08 Max=1.03D-06 NDo=     1
 LinEq1:  Iter=  9 NonCon=     1 RMS=1.50D-08 Max=1.55D-07 NDo=     1
 LinEq1:  Iter= 10 NonCon=     1 RMS=3.38D-09 Max=4.42D-08 NDo=     1
 LinEq1:  Iter= 11 NonCon=     1 RMS=5.77D-10 Max=5.91D-09 NDo=     1
 LinEq1:  Iter= 12 NonCon=     1 RMS=1.04D-10 Max=1.10D-09 NDo=     1
 LinEq1:  Iter= 13 NonCon=     0 RMS=1.82D-11 Max=1.55D-10 NDo=     1
 Linear equations converged to 1.000D-10 1.000D-09 after    13 iterations.
 End of Minotr F.D. properties file   721 does not exist.
 End of Minotr F.D. properties file   722 does not exist.
 End of Minotr F.D. properties file   788 does not exist.

 **********************************************************************

            Population analysis using the SCF density.

 **********************************************************************

 Orbital symmetries:
       Occupied  (A) (A) (A) (A) (A) (A) (A) (A) (A) (A) (A) (A)
                 (A) (A)
       Virtual   (A) (A) (A) (A) (A) (A) (A) (A) (A) (A) (A) (A)
                 (A) (A) (A) (A) (A) (A) (A) (A) (A) (A) (A) (A)
                 (A) (A) (A) (A) (A) (A) (A) (A) (A) (A) (A) (A)
                 (A) (A) (A) (A) (A) (A) (A) (A) (A) (A) (A) (A)
                 (A) (A) (A) (A) (A) (A) (A) (A) (A) (A) (A) (A)
                 (A) (A) (A) (A) (A) (A) (A) (A) (A) (A) (A) (A)
                 (A) (A) (A) (A) (A) (A) (A) (A) (A) (A) (A) (A)
                 (A) (A) (A) (A) (A) (A) (A) (A) (A) (A) (A) (A)
                 (A) (A) (A) (A) (A) (A) (A) (A) (A) (A) (A) (A)
                 (A) (A) (A) (A) (A) (A) (A) (A) (A) (A) (A) (A)
                 (A) (A) (A) (A) (A) (A) (A) (A) (A) (A) (A) (A)
                 (A) (A) (A) (A) (A) (A) (A) (A) (A) (A) (A) (A)
                 (A) (A) (A) (A) (A) (A) (A) (A) (A) (A) (A) (A)
                 (A) (A) (A) (A) (A) (A) (A) (A) (A) (A) (A) (A)
                 (A) (A) (A) (A) (A) (A) (A) (A) (A) (A) (A) (A)
                 (A) (A) (A) (A) (A) (A) (A) (A) (A) (A) (A) (A)
                 (A) (A) (A) (A) (A) (A) (A) (A) (A) (A) (A) (A)
                 (A) (A) (A) (A) (A) (A) (A) (A) (A) (A) (A) (A)
                 (A) (A) (A) (A) (A) (A) (A) (A) (A) (A) (A) (A)
                 (A) (A) (A) (A) (A) (A) (A) (A) (A) (A) (A) (A)
                 (A) (A) (A) (A) (A) (A) (A) (A) (A) (A) (A) (A)
                 (A) (A) (A) (A) (A) (A) (A) (A) (A) (A) (A) (A)
                 (A) (A) (A) (A) (A) (A) (A) (A) (A) (A) (A) (A)
                 (A) (A) (A) (A) (A) (A) (A) (A) (A) (A) (A) (A)
                 (A) (A) (A) (A) (A) (A) (A) (A) (A) (A) (A) (A)
                 (A) (A) (A) (A) (A) (A) (A) (A)
 The electronic state is 1-A.
 Alpha  occ. eigenvalues --  -15.55429 -15.51804 -11.23149  -1.15140  -1.14339
 Alpha  occ. eigenvalues --   -0.87506  -0.64327  -0.63525  -0.63113  -0.58314
 Alpha  occ. eigenvalues --   -0.53569  -0.50036  -0.44086  -0.37183
 Alpha virt. eigenvalues --    0.02577   0.04081   0.04255   0.04656   0.05822
 Alpha virt. eigenvalues --    0.06110   0.06484   0.08644   0.10960   0.13430
 Alpha virt. eigenvalues --    0.13575   0.14420   0.14864   0.15328   0.15952
 Alpha virt. eigenvalues --    0.16551   0.17946   0.18419   0.20197   0.21414
 Alpha virt. eigenvalues --    0.22212   0.23646   0.25003   0.25520   0.26621
 Alpha virt. eigenvalues --    0.28122   0.29299   0.29834   0.32761   0.32986
 Alpha virt. eigenvalues --    0.33437   0.35111   0.35621   0.36520   0.36952
 Alpha virt. eigenvalues --    0.37959   0.38758   0.39086   0.39225   0.40182
 Alpha virt. eigenvalues --    0.41059   0.42231   0.42577   0.43054   0.44055
 Alpha virt. eigenvalues --    0.45228   0.45504   0.46262   0.46662   0.46890
 Alpha virt. eigenvalues --    0.47488   0.48273   0.50288   0.51964   0.52531
 Alpha virt. eigenvalues --    0.53773   0.54529   0.55282   0.56475   0.60486
 Alpha virt. eigenvalues --    0.60926   0.62856   0.63549   0.65550   0.66304
 Alpha virt. eigenvalues --    0.68442   0.71601   0.73717   0.80130   0.80589
 Alpha virt. eigenvalues --    0.82233   0.82728   0.83272   0.84618   0.85547
 Alpha virt. eigenvalues --    0.87856   0.88242   0.89378   0.90664   0.90986
 Alpha virt. eigenvalues --    0.91428   0.93280   0.93521   0.94260   0.95019
 Alpha virt. eigenvalues --    0.96137   0.96874   0.97808   0.99298   0.99421
 Alpha virt. eigenvalues --    1.02345   1.02849   1.04126   1.04406   1.05477
 Alpha virt. eigenvalues --    1.05615   1.07014   1.07800   1.09724   1.10240
 Alpha virt. eigenvalues --    1.11227   1.12208   1.13342   1.14607   1.15586
 Alpha virt. eigenvalues --    1.16186   1.17398   1.18061   1.20415   1.21168
 Alpha virt. eigenvalues --    1.22479   1.24385   1.24797   1.25821   1.27193
 Alpha virt. eigenvalues --    1.27496   1.29811   1.32008   1.32838   1.34424
 Alpha virt. eigenvalues --    1.35311   1.36184   1.38358   1.40590   1.41245
 Alpha virt. eigenvalues --    1.44575   1.47947   1.48644   1.49985   1.51113
 Alpha virt. eigenvalues --    1.53185   1.53660   1.57179   1.63381   1.63849
 Alpha virt. eigenvalues --    1.66105   1.67346   1.68762   1.69507   1.72920
 Alpha virt. eigenvalues --    1.74502   1.75848   1.76481   1.77765   1.79774
 Alpha virt. eigenvalues --    1.82050   1.86559   1.87820   1.90361   1.92159
 Alpha virt. eigenvalues --    1.94213   1.96026   1.97735   2.02849   2.02981
 Alpha virt. eigenvalues --    2.03858   2.05194   2.05645   2.06972   2.08669
 Alpha virt. eigenvalues --    2.09403   2.11903   2.13748   2.16966   2.20104
 Alpha virt. eigenvalues --    2.22099   2.26550   2.29969   2.30390   2.32268
 Alpha virt. eigenvalues --    2.35273   2.36105   2.37457   2.44099   2.45500
 Alpha virt. eigenvalues --    2.45843   2.47617   2.47895   2.50643   2.52714
 Alpha virt. eigenvalues --    2.56640   2.58014   2.62992   2.65516   2.68050
 Alpha virt. eigenvalues --    2.75254   2.86582   2.98904   3.16982   3.39969
 Alpha virt. eigenvalues --    3.40408   3.43309   3.45149   3.60628   3.62659
 Alpha virt. eigenvalues --    3.63312   3.64900   3.67200   3.69210   3.71341
 Alpha virt. eigenvalues --    3.76868   3.78276   3.87648   3.90238   3.92247
 Alpha virt. eigenvalues --    3.94042   3.96522   3.98071   4.00550   4.03810
 Alpha virt. eigenvalues --    4.09605   4.10879   4.11589   4.13972   4.15007
 Alpha virt. eigenvalues --    4.18307   4.19791   4.20439   4.23014   4.24659
 Alpha virt. eigenvalues --    4.26806   4.28293   4.29184   4.32084   4.34050
 Alpha virt. eigenvalues --    4.34569   4.39389   4.41442   4.44548   4.46513
 Alpha virt. eigenvalues --    4.48341   4.50931   4.53648   4.54023   4.59600
 Alpha virt. eigenvalues --    4.60647   4.62266   4.64700   4.67771   4.69800
 Alpha virt. eigenvalues --    4.72307   4.73930   4.76351   4.78058   4.78997
 Alpha virt. eigenvalues --    4.79407   4.82284   4.85901   4.90423   4.91567
 Alpha virt. eigenvalues --    4.93528   4.95613   4.98055   5.00163   5.02980
 Alpha virt. eigenvalues --    5.06189   5.07255   5.10108   5.11605   5.13131
 Alpha virt. eigenvalues --    5.13866   5.19159   5.20776   5.23928   5.27220
 Alpha virt. eigenvalues --    5.31444   5.37249   5.39643   5.49508   5.53346
 Alpha virt. eigenvalues --    5.57124   5.57618   5.68754   5.69459   5.78780
 Alpha virt. eigenvalues --    5.81763   5.82021   5.89014   5.89830   5.91598
 Alpha virt. eigenvalues --    5.96047   6.00123   6.03202   6.07757   6.09142
 Alpha virt. eigenvalues --    6.11870   6.16190   6.26203   6.31227   6.34352
 Alpha virt. eigenvalues --    6.37680   6.39978   6.54809   6.61846   6.63610
 Alpha virt. eigenvalues --    6.71317   6.75260   6.83978   6.91757   6.93671
 Alpha virt. eigenvalues --    7.03619   7.12391   7.72549   7.77750   7.81718
 Alpha virt. eigenvalues --   16.98664  17.34394  17.99721
          Condensed to atoms (all electrons):
               1          2          3          4          5          6
     1  N    6.931135   0.103735   0.307467   0.242572   0.001914  -0.000246
     2  C    0.103735   5.471434  -0.002136  -0.003876   0.005883   0.000215
     3  H    0.307467  -0.002136   0.595248  -0.019265  -0.001404  -0.000086
     4  H    0.242572  -0.003876  -0.019265   0.521948  -0.033456   0.001072
     5  N    0.001914   0.005883  -0.001404  -0.033456   6.472001   0.354095
     6  H   -0.000246   0.000215  -0.000086   0.001072   0.354095   0.474229
     7  H   -0.000301   0.000095  -0.000225   0.005975   0.365729   0.002797
     8  H   -0.000128  -0.000374  -0.000209  -0.000602   0.364388  -0.007630
     9  H   -0.002170   0.397214   0.000701  -0.004594  -0.000518   0.000054
    10  H   -0.017392   0.396528  -0.001987   0.002900   0.001268   0.000058
    11  H   -0.017206   0.395335   0.006719   0.004862   0.001153  -0.000091
               7          8          9         10         11
     1  N   -0.000301  -0.000128  -0.002170  -0.017392  -0.017206
     2  C    0.000095  -0.000374   0.397214   0.396528   0.395335
     3  H   -0.000225  -0.000209   0.000701  -0.001987   0.006719
     4  H    0.005975  -0.000602  -0.004594   0.002900   0.004862
     5  N    0.365729   0.364388  -0.000518   0.001268   0.001153
     6  H    0.002797  -0.007630   0.000054   0.000058  -0.000091
     7  H    0.458567  -0.001473  -0.000077   0.000348   0.000203
     8  H   -0.001473   0.474195  -0.000031  -0.000138   0.000067
     9  H   -0.000077  -0.000031   0.264790   0.013646   0.014842
    10  H    0.000348  -0.000138   0.013646   0.271584   0.015630
    11  H    0.000203   0.000067   0.014842   0.015630   0.281166
 Mulliken charges:
               1
     1  N   -0.549380
     2  C   -0.764054
     3  H    0.115177
     4  H    0.282465
     5  N   -0.531054
     6  H    0.175533
     7  H    0.168362
     8  H    0.171935
     9  H    0.316142
    10  H    0.317554
    11  H    0.297320
 Sum of Mulliken charges =  -0.00000
 Mulliken charges with hydrogens summed into heavy atoms:
               1
     1  N   -0.151738
     2  C    0.166962
     5  N   -0.015224
 Electronic spatial extent (au):  <R**2>=            421.6479
 Charge=              0.0000 electrons
 Dipole moment (field-independent basis, Debye):
    X=             -2.0659    Y=             -0.7584    Z=              0.7280  Tot=              2.3180
 Quadrupole moment (field-independent basis, Debye-Ang):
   XX=            -14.9606   YY=            -20.7065   ZZ=            -22.1206
   XY=              0.3136   XZ=              1.7542   YZ=              2.0049
 Traceless Quadrupole moment (field-independent basis, Debye-Ang):
   XX=              4.3020   YY=             -1.4439   ZZ=             -2.8580
   XY=              0.3136   XZ=              1.7542   YZ=              2.0049
 Octapole moment (field-independent basis, Debye-Ang**2):
  XXX=            -22.0016  YYY=              0.3669  ZZZ=              0.1776  XYY=             -5.1943
  XXY=              1.6614  XXZ=              2.3448  XZZ=             -5.0447  YZZ=             -0.3942
  YYZ=              2.7363  XYZ=              2.3340
 Hexadecapole moment (field-independent basis, Debye-Ang**3):
 XXXX=           -384.7251 YYYY=            -71.1640 ZZZZ=            -36.0202 XXXY=              1.6154
 XXXZ=            -10.8640 YYYX=              9.3168 YYYZ=              5.2256 ZZZX=              4.4476
 ZZZY=              1.7941 XXYY=            -76.7190 XXZZ=            -74.9600 YYZZ=            -19.0075
 XXYZ=              2.9140 YYXZ=              2.1501 ZZXY=             -0.9890
 N-N= 7.966997646050D+01 E-N=-5.137939643410D+02  KE= 1.511322114293D+02
 Calling FoFJK, ICntrl=  10002127 FMM=F ISym2X=0 I1Cent= 0 IOpClX= 0 NMat=1 NMatS=1 NMatT=0.
 ***** Axes restored to original set *****
 -------------------------------------------------------------------
 Center     Atomic                   Forces (Hartrees/Bohr)
 Number     Number              X              Y              Z
 -------------------------------------------------------------------
      1        7          -0.000567302   -0.000997288    0.006091948
      2        6           0.001659549   -0.002323276   -0.000682619
      3        1          -0.001855590   -0.004482519   -0.003778346
      4        1           0.005298363    0.000709901   -0.001785992
      5        7          -0.006262176   -0.001364575   -0.002860512
      6        1           0.001461913    0.005634110   -0.000238553
      7        1           0.000477224   -0.001373917    0.005661802
      8        1           0.004399312   -0.002860998   -0.002495699
      9        1          -0.007141788   -0.001244640    0.002234733
     10        1           0.002793517    0.005264012    0.004763700
     11        1          -0.000263024    0.003039190   -0.006910463
 -------------------------------------------------------------------
 Cartesian Forces:  Max     0.007141788 RMS     0.003653870

 GradGradGradGradGradGradGradGradGradGradGradGradGradGradGradGradGradGrad
 Berny optimization.
 FormGI is forming the generalized inverse of G from B-inverse, IUseBI=4.
 Internal  Forces:  Max     0.007628562 RMS     0.003190609
 Search for a local minimum.
 Step number   1 out of a maximum of   47
 All quantities printed in internal units (Hartrees-Bohrs-Radians)
 Mixed Optimization -- RFO/linear search
 Second derivative matrix not updated -- first step.
 ITU=  0
     Eigenvalues ---    0.00230   0.00721   0.00755   0.02882   0.03859
     Eigenvalues ---    0.06723   0.06805   0.07562   0.10739   0.12631
     Eigenvalues ---    0.16000   0.16000   0.16000   0.16000   0.16000
     Eigenvalues ---    0.16000   0.16000   0.25000   0.32937   0.33607
     Eigenvalues ---    0.33608   0.35644   0.43827   0.44243   0.44320
     Eigenvalues ---    0.44324   0.44368
 RFO step:  Lambda=-9.96698805D-04 EMin= 2.30000000D-03
 Linear search not attempted -- first point.
 Iteration  1 RMS(Cart)=  0.01195999 RMS(Int)=  0.00001093
 Iteration  2 RMS(Cart)=  0.00001494 RMS(Int)=  0.00000075
 Iteration  3 RMS(Cart)=  0.00000000 RMS(Int)=  0.00000075
 Variable       Old X    -DE/DX   Delta X   Delta X   Delta X     New X
                                 (Linear)    (Quad)   (Total)
    R1        2.77942  -0.00561   0.00000  -0.01570  -0.01570   2.76372
    R2        1.92717  -0.00614   0.00000  -0.01381  -0.01381   1.91336
    R3        1.93362  -0.00568   0.00000  -0.01294  -0.01294   1.92068
    R4        2.07996  -0.00759   0.00000  -0.02250  -0.02250   2.05746
    R5        2.07998  -0.00763   0.00000  -0.02263  -0.02263   2.05735
    R6        2.09163  -0.00755   0.00000  -0.02286  -0.02286   2.06877
    R7        4.27043  -0.00009   0.00000  -0.00290  -0.00290   4.26753
    R8        1.92774  -0.00582   0.00000  -0.01311  -0.01311   1.91463
    R9        1.92865  -0.00584   0.00000  -0.01317  -0.01317   1.91548
   R10        1.92768  -0.00581   0.00000  -0.01308  -0.01308   1.91460
    A1        1.91582  -0.00034   0.00000  -0.00298  -0.00298   1.91284
    A2        1.90973  -0.00017   0.00000  -0.00125  -0.00125   1.90848
    A3        1.85951   0.00029   0.00000   0.00187   0.00186   1.86137
    A4        1.91106   0.00002   0.00000   0.00029   0.00029   1.91135
    A5        1.89929   0.00011   0.00000   0.00089   0.00089   1.90018
    A6        2.00766  -0.00033   0.00000  -0.00247  -0.00247   2.00519
    A7        1.87228   0.00009   0.00000   0.00138   0.00137   1.87366
    A8        1.88610   0.00009   0.00000   0.00015   0.00015   1.88624
    A9        1.88282   0.00005   0.00000   0.00001   0.00001   1.88283
   A10        2.79079   0.00012   0.00000   0.00049   0.00049   2.79128
   A11        2.09834  -0.00008   0.00000  -0.00060  -0.00060   2.09774
   A12        1.59255  -0.00024   0.00000  -0.00136  -0.00136   1.59119
   A13        2.14772  -0.00006   0.00000  -0.00045  -0.00045   2.14727
   A14        1.85482   0.00016   0.00000   0.00111   0.00111   1.85593
   A15        1.85409   0.00009   0.00000   0.00043   0.00043   1.85451
   A16        1.85459   0.00019   0.00000   0.00135   0.00135   1.85594
    D1       -1.11503   0.00012   0.00000   0.00084   0.00084  -1.11419
    D2        3.12672  -0.00006   0.00000  -0.00149  -0.00149   3.12523
    D3        1.01246   0.00002   0.00000  -0.00049  -0.00049   1.01197
    D4        3.13340   0.00006   0.00000   0.00101   0.00101   3.13441
    D5        1.09196  -0.00011   0.00000  -0.00131  -0.00132   1.09064
    D6       -1.02231  -0.00004   0.00000  -0.00031  -0.00031  -1.02262
    D7       -1.45466  -0.00016   0.00000  -0.00063  -0.00063  -1.45529
    D8        2.75843   0.00017   0.00000   0.00251   0.00251   2.76094
    D9        1.35023   0.00004   0.00000   0.00323   0.00323   1.35346
   D10       -0.56436   0.00002   0.00000   0.00291   0.00291  -0.56145
   D11       -2.49092  -0.00003   0.00000   0.00234   0.00234  -2.48859
         Item               Value     Threshold  Converged?
 Maximum Force            0.007629     0.000450     NO 
 RMS     Force            0.003191     0.000300     NO 
 Maximum Displacement     0.033623     0.001800     NO 
 RMS     Displacement     0.011955     0.001200     NO 
 Predicted change in Energy=-4.997175D-04
 GradGradGradGradGradGradGradGradGradGradGradGradGradGradGradGradGradGrad

                          Input orientation:                          
 ---------------------------------------------------------------------
 Center     Atomic      Atomic             Coordinates (Angstroms)
 Number     Number       Type             X           Y           Z
 ---------------------------------------------------------------------
      1          7           0        0.897833    0.715439   -0.121585
      2          6           0        1.680246   -0.511774    0.022205
      3          1           0        1.257827    1.423273    0.506545
      4          1           0       -0.062440    0.537489    0.159907
      5          7           0       -2.221039   -0.115499    0.042066
      6          1           0       -2.459904   -1.098421    0.099840
      7          1           0       -2.263607    0.131007   -0.940207
      8          1           0       -2.975454    0.386793    0.494906
      9          1           0        2.707932   -0.326016   -0.285623
     10          1           0        1.273153   -1.269217   -0.645496
     11          1           0        1.699032   -0.930366    1.033588
 ---------------------------------------------------------------------
                    Distance matrix (angstroms):
                    1          2          3          4          5
     1  N    0.000000
     2  C    1.462497   0.000000
     3  H    1.012508   2.038979   0.000000
     4  H    1.016380   2.038840   1.627230   0.000000
     5  N    3.231811   3.921410   3.832241   2.258281   0.000000
     6  H    3.822763   4.182227   4.510640   2.903040   1.013178
     7  H    3.317590   4.110156   4.020391   2.494116   1.013626
     8  H    3.935788   4.765125   4.358336   2.936083   1.013165
     9  H    2.094753   1.088761   2.406314   2.935829   4.944335
    10  H    2.086674   1.088700   2.928641   2.386770   3.743419
    11  H    2.164491   1.094745   2.451949   2.453712   4.124813
                    6          7          8          9         10
     6  H    0.000000
     7  H    1.622258   0.000000
     8  H    1.621027   1.622253   0.000000
     9  H    5.239438   5.035230   5.780847   0.000000
    10  H    3.810566   3.815253   4.700378   1.754345   0.000000
    11  H    4.265780   4.552460   4.886298   1.767324   1.765082
                   11
    11  H    0.000000
 Stoichiometry    CH8N2
 Framework group  C1[X(CH8N2)]
 Deg. of freedom    27
 Full point group                 C1      NOp   1
 Largest Abelian subgroup         C1      NOp   1
 Largest concise Abelian subgroup C1      NOp   1
                         Standard orientation:                         
 ---------------------------------------------------------------------
 Center     Atomic      Atomic             Coordinates (Angstroms)
 Number     Number       Type             X           Y           Z
 ---------------------------------------------------------------------
      1          7           0        0.898569    0.715222   -0.122065
      2          6           0        1.679988   -0.512541    0.022445
      3          1           0        1.259168    1.423148    0.505616
      4          1           0       -0.061836    0.538228    0.159578
      5          7           0       -2.220972   -0.113072    0.042230
      6          1           0       -2.460636   -1.095763    0.100617
      7          1           0       -2.263382    0.132866   -0.940193
      8          1           0       -2.974958    0.390112    0.494794
      9          1           0        2.707811   -0.327809   -0.285542
     10          1           0        1.272248   -1.270060   -0.644775
     11          1           0        1.698477   -0.930527    1.034083
 ---------------------------------------------------------------------
 Rotational constants (GHZ):          25.2481395           3.3431457           3.0669434
 Standard basis: Aug-CC-pVTZ (5D, 7F)
 There are   365 symmetry adapted cartesian basis functions of A   symmetry.
 There are   322 symmetry adapted basis functions of A   symmetry.
   322 basis functions,   432 primitive gaussians,   365 cartesian basis functions
    14 alpha electrons       14 beta electrons
       nuclear repulsion energy        80.1484964583 Hartrees.
 NAtoms=   11 NActive=   11 NUniq=   11 SFac= 1.00D+00 NAtFMM=   60 NAOKFM=F Big=F
 Integral buffers will be    131072 words long.
 Raffenetti 1 integral format.
 Two-electron integral symmetry is turned on.
 One-electron integrals computed using PRISM.
 NBasis=   322 RedAO= T EigKep=  3.72D-05  NBF=   322
 NBsUse=   322 1.00D-06 EigRej= -1.00D+00 NBFU=   322
 Initial guess from the checkpoint file:  "/gscratch/scrubbed/gds001/Gau-8703.chk"
 B after Tr=    -0.000000   -0.000000    0.000000
         Rot=    1.000000    0.000152    0.000011    0.000371 Ang=   0.05 deg.
 ExpMin= 2.53D-02 ExpMax= 1.14D+04 ExpMxC= 3.89D+02 IAcc=3 IRadAn=         5 AccDes= 0.00D+00
 Harris functional with IExCor=  205 and IRadAn=       5 diagonalized for initial guess.
 HarFok:  IExCor=  205 AccDes= 0.00D+00 IRadAn=         5 IDoV= 1 UseB2=F ITyADJ=14
 ICtDFT=  3500011 ScaDFX=  1.000000  1.000000  1.000000  1.000000
 FoFCou: FMM=F IPFlag=           0 FMFlag=      100000 FMFlg1=           0
         NFxFlg=           0 DoJE=T BraDBF=F KetDBF=T FulRan=T
         wScrn=  0.000000 ICntrl=       500 IOpCl=  0 I1Cent=   200000004 NGrid=           0
         NMat0=    1 NMatS0=      1 NMatT0=    0 NMatD0=    1 NMtDS0=    0 NMtDT0=    0
 Petite list used in FoFCou.
 Keep R1 ints in memory in canonical form, NReq=1376697355.
 Requested convergence on RMS density matrix=1.00D-08 within 128 cycles.
 Requested convergence on MAX density matrix=1.00D-06.
 Requested convergence on             energy=1.00D-06.
 No special actions if energy rises.
 SCF Done:  E(RHF) =  -151.477775953     A.U. after    8 cycles
            NFock=  8  Conv=0.71D-08     -V/T= 2.0014
 ExpMin= 2.53D-02 ExpMax= 1.14D+04 ExpMxC= 3.89D+02 IAcc=3 IRadAn=         5 AccDes= 0.00D+00
 HarFok:  IExCor=  205 AccDes= 0.00D+00 IRadAn=         5 IDoV=-2 UseB2=F ITyADJ=14
 ICtDFT= 12500011 ScaDFX=  1.000000  1.000000  1.000000  1.000000
 Range of M.O.s used for correlation:     4   322
 NBasis=   322 NAE=    14 NBE=    14 NFC=     3 NFV=     0
 NROrb=    319 NOA=    11 NOB=    11 NVA=   308 NVB=   308

 **** Warning!!: The largest alpha MO coefficient is  0.41262734D+02

 Disk-based method using ON**2 memory for 11 occupieds at a time.
 Estimated scratch disk usage=   959415704 words.
 Actual    scratch disk usage=   903316888 words.
 JobTyp=1 Pass  1:  I=   4 to  14 NPSUse= 28 ParTrn=T ParDer=T DoDerP=T.
 (rs|ai) integrals will be sorted in core.
 Spin components of T(2) and E(2):
     alpha-alpha T2 =       0.2209864903D-01 E2=     -0.7231730976D-01
     alpha-beta  T2 =       0.1428142381D+00 E2=     -0.5107479740D+00
     beta-beta   T2 =       0.2209864903D-01 E2=     -0.7231730976D-01
 ANorm=    0.1089500590D+01
 E2 =    -0.6553825935D+00 EUMP2 =    -0.15213315854673D+03
          IDoAtm=11111111111
          Differentiating once with respect to electric field.
                with respect to dipole field.
          Differentiating once with respect to nuclear coordinates.
 Keep R1 ints in memory in canonical form, NReq=1376699358.
          There are     1 degrees of freedom in the 1st order CPHF.  IDoFFX=0 NUNeed=     1.
 LinEq1:  Iter=  0 NonCon=     1 RMS=2.10D-03 Max=2.14D-02 NDo=     1
 AX will form     1 AO Fock derivatives at one time.
 LinEq1:  Iter=  1 NonCon=     1 RMS=6.09D-04 Max=5.90D-03 NDo=     1
 LinEq1:  Iter=  2 NonCon=     1 RMS=2.12D-04 Max=2.49D-03 NDo=     1
 LinEq1:  Iter=  3 NonCon=     1 RMS=4.32D-05 Max=3.42D-04 NDo=     1
 LinEq1:  Iter=  4 NonCon=     1 RMS=1.37D-05 Max=1.08D-04 NDo=     1
 LinEq1:  Iter=  5 NonCon=     1 RMS=3.09D-06 Max=2.84D-05 NDo=     1
 LinEq1:  Iter=  6 NonCon=     1 RMS=6.64D-07 Max=9.24D-06 NDo=     1
 LinEq1:  Iter=  7 NonCon=     1 RMS=1.99D-07 Max=2.09D-06 NDo=     1
 LinEq1:  Iter=  8 NonCon=     1 RMS=6.89D-08 Max=1.01D-06 NDo=     1
 LinEq1:  Iter=  9 NonCon=     1 RMS=1.41D-08 Max=1.45D-07 NDo=     1
 LinEq1:  Iter= 10 NonCon=     1 RMS=3.17D-09 Max=4.16D-08 NDo=     1
 LinEq1:  Iter= 11 NonCon=     1 RMS=5.41D-10 Max=5.69D-09 NDo=     1
 LinEq1:  Iter= 12 NonCon=     1 RMS=9.69D-11 Max=1.01D-09 NDo=     1
 LinEq1:  Iter= 13 NonCon=     0 RMS=1.69D-11 Max=1.47D-10 NDo=     1
 Linear equations converged to 1.000D-10 1.000D-09 after    13 iterations.
 End of Minotr F.D. properties file   721 does not exist.
 End of Minotr F.D. properties file   722 does not exist.
 End of Minotr F.D. properties file   788 does not exist.
 Calling FoFJK, ICntrl=  10002127 FMM=F ISym2X=0 I1Cent= 0 IOpClX= 0 NMat=1 NMatS=1 NMatT=0.
 ***** Axes restored to original set *****
 -------------------------------------------------------------------
 Center     Atomic                   Forces (Hartrees/Bohr)
 Number     Number              X              Y              Z
 -------------------------------------------------------------------
      1        7          -0.000259250   -0.000080250    0.001380207
      2        6           0.000125006   -0.000093832   -0.000477072
      3        1          -0.000078594    0.000312061   -0.000401273
      4        1          -0.000007241    0.000266124   -0.000568851
      5        7          -0.001406208   -0.000335264   -0.000520988
      6        1           0.000438057   -0.000038445    0.000218885
      7        1           0.000560662    0.000163960    0.000105699
      8        1           0.000374771    0.000187323    0.000270089
      9        1           0.000184920   -0.000124533   -0.000045241
     10        1           0.000083990   -0.000234157   -0.000059743
     11        1          -0.000016113   -0.000022986    0.000098289
 -------------------------------------------------------------------
 Cartesian Forces:  Max     0.001406208 RMS     0.000434175

 GradGradGradGradGradGradGradGradGradGradGradGradGradGradGradGradGradGrad
 Berny optimization.
 Using GEDIIS/GDIIS optimizer.
 FormGI is forming the generalized inverse of G from B-inverse, IUseBI=4.
 Internal  Forces:  Max     0.000581382 RMS     0.000275671
 Search for a local minimum.
 Step number   2 out of a maximum of   47
 All quantities printed in internal units (Hartrees-Bohrs-Radians)
 Mixed Optimization -- En-DIIS/RFO-DIIS
 Update second derivatives using D2CorX and points    1    2
 DE= -4.97D-04 DEPred=-5.00D-04 R= 9.94D-01
 TightC=F SS=  1.41D+00  RLast= 5.23D-02 DXNew= 5.0454D-01 1.5693D-01
 Trust test= 9.94D-01 RLast= 5.23D-02 DXMaxT set to 3.00D-01
 ITU=  1  0
 Use linear search instead of GDIIS.
     Eigenvalues ---    0.00230   0.00721   0.00755   0.02883   0.03877
     Eigenvalues ---    0.06728   0.06824   0.07553   0.10744   0.12653
     Eigenvalues ---    0.15792   0.16000   0.16000   0.16000   0.16000
     Eigenvalues ---    0.16000   0.16014   0.24993   0.32991   0.33608
     Eigenvalues ---    0.33931   0.36561   0.43533   0.44111   0.44284
     Eigenvalues ---    0.44322   0.44357
 RFO step:  Lambda=-2.54010502D-05 EMin= 2.29997102D-03
 Quartic linear search produced a step of -0.01266.
 Iteration  1 RMS(Cart)=  0.00466530 RMS(Int)=  0.00002052
 Iteration  2 RMS(Cart)=  0.00002015 RMS(Int)=  0.00001198
 Iteration  3 RMS(Cart)=  0.00000000 RMS(Int)=  0.00001198
 Variable       Old X    -DE/DX   Delta X   Delta X   Delta X     New X
                                 (Linear)    (Quad)   (Total)
    R1        2.76372   0.00055   0.00020   0.00093   0.00113   2.76485
    R2        1.91336  -0.00006   0.00017  -0.00066  -0.00049   1.91288
    R3        1.92068  -0.00014   0.00016  -0.00082  -0.00065   1.92003
    R4        2.05746   0.00017   0.00028  -0.00038  -0.00010   2.05737
    R5        2.05735   0.00017   0.00029  -0.00038  -0.00009   2.05725
    R6        2.06877   0.00010   0.00029  -0.00058  -0.00029   2.06847
    R7        4.26753   0.00003   0.00004   0.00104   0.00107   4.26860
    R8        1.91463  -0.00005   0.00017  -0.00062  -0.00046   1.91417
    R9        1.91548  -0.00009   0.00017  -0.00070  -0.00053   1.91494
   R10        1.91460  -0.00007   0.00017  -0.00065  -0.00048   1.91412
    A1        1.91284   0.00039   0.00004   0.00588   0.00589   1.91873
    A2        1.90848   0.00051   0.00002   0.00554   0.00553   1.91402
    A3        1.86137  -0.00012  -0.00002   0.00355   0.00348   1.86485
    A4        1.91135   0.00019  -0.00000   0.00121   0.00121   1.91256
    A5        1.90018   0.00026  -0.00001   0.00168   0.00167   1.90185
    A6        2.00519  -0.00013   0.00003  -0.00098  -0.00095   2.00424
    A7        1.87366  -0.00018  -0.00002  -0.00087  -0.00089   1.87276
    A8        1.88624  -0.00006  -0.00000  -0.00050  -0.00050   1.88575
    A9        1.88283  -0.00009  -0.00000  -0.00060  -0.00060   1.88223
   A10        2.79128   0.00013  -0.00001   0.00055   0.00054   2.79183
   A11        2.09774  -0.00036   0.00001  -0.00253  -0.00253   2.09521
   A12        1.59119  -0.00058   0.00002  -0.00305  -0.00304   1.58815
   A13        2.14727  -0.00038   0.00001  -0.00265  -0.00265   2.14462
   A14        1.85593   0.00049  -0.00001   0.00366   0.00364   1.85957
   A15        1.85451   0.00050  -0.00001   0.00261   0.00260   1.85712
   A16        1.85594   0.00049  -0.00002   0.00358   0.00356   1.85950
    D1       -1.11419   0.00021  -0.00001   0.00558   0.00558  -1.10861
    D2        3.12523   0.00017   0.00002   0.00498   0.00501   3.13024
    D3        1.01197   0.00018   0.00001   0.00517   0.00519   1.01715
    D4        3.13441  -0.00016  -0.00001  -0.00524  -0.00526   3.12915
    D5        1.09064  -0.00020   0.00002  -0.00584  -0.00583   1.08481
    D6       -1.02262  -0.00019   0.00000  -0.00565  -0.00566  -1.02828
    D7       -1.45529   0.00034   0.00001   0.00733   0.00735  -1.44794
    D8        2.76094  -0.00032  -0.00003  -0.00457  -0.00461   2.75633
    D9        1.35346   0.00012  -0.00004   0.00346   0.00342   1.35688
   D10       -0.56145  -0.00001  -0.00004   0.00164   0.00160  -0.55985
   D11       -2.48859  -0.00010  -0.00003   0.00011   0.00008  -2.48851
         Item               Value     Threshold  Converged?
 Maximum Force            0.000581     0.000450     NO 
 RMS     Force            0.000276     0.000300     YES
 Maximum Displacement     0.011712     0.001800     NO 
 RMS     Displacement     0.004663     0.001200     NO 
 Predicted change in Energy=-1.286046D-05
 GradGradGradGradGradGradGradGradGradGradGradGradGradGradGradGradGradGrad

                          Input orientation:                          
 ---------------------------------------------------------------------
 Center     Atomic      Atomic             Coordinates (Angstroms)
 Number     Number       Type             X           Y           Z
 ---------------------------------------------------------------------
      1          7           0        0.896026    0.713809   -0.115803
      2          6           0        1.681940   -0.512615    0.021549
      3          1           0        1.255957    1.425954    0.507053
      4          1           0       -0.064921    0.537132    0.162927
      5          7           0       -2.224182   -0.114860    0.040877
      6          1           0       -2.461589   -1.097566    0.103851
      7          1           0       -2.260451    0.128361   -0.942177
      8          1           0       -2.977549    0.390862    0.491065
      9          1           0        2.708293   -0.325030   -0.289421
     10          1           0        1.274827   -1.270365   -0.645711
     11          1           0        1.705230   -0.932976    1.031935
 ---------------------------------------------------------------------
                    Distance matrix (angstroms):
                    1          2          3          4          5
     1  N    0.000000
     2  C    1.463094   0.000000
     3  H    1.012251   2.043337   0.000000
     4  H    1.016034   2.042910   1.628849   0.000000
     5  N    3.232172   3.926369   3.834423   2.258848   0.000000
     6  H    3.821374   4.185424   4.511194   2.901679   1.012936
     7  H    3.314964   4.108779   4.018599   2.491726   1.013344
     8  H    3.934103   4.769440   4.358239   2.934701   1.012909
     9  H    2.096102   1.088711   2.410310   2.939160   4.947988
    10  H    2.088358   1.088652   2.932466   2.390788   3.748288
    11  H    2.164259   1.094589   2.458027   2.459640   4.134222
                    6          7          8          9         10
     6  H    0.000000
     7  H    1.624046   0.000000
     8  H    1.622210   1.623982   0.000000
     9  H    5.242057   5.031906   5.783638   0.000000
    10  H    3.814775   3.813465   4.704746   1.753689   0.000000
    11  H    4.272097   4.555237   4.896275   1.766837   1.764532
                   11
    11  H    0.000000
 Stoichiometry    CH8N2
 Framework group  C1[X(CH8N2)]
 Deg. of freedom    27
 Full point group                 C1      NOp   1
 Largest Abelian subgroup         C1      NOp   1
 Largest concise Abelian subgroup C1      NOp   1
                         Standard orientation:                         
 ---------------------------------------------------------------------
 Center     Atomic      Atomic             Coordinates (Angstroms)
 Number     Number       Type             X           Y           Z
 ---------------------------------------------------------------------
      1          7           0        0.896930    0.714116   -0.120650
      2          6           0        1.682832   -0.511675    0.022319
      3          1           0        1.257235    1.429287    0.498512
      4          1           0       -0.063884    0.538879    0.159445
      5          7           0       -2.223252   -0.113551    0.041724
      6          1           0       -2.460694   -1.095918    0.109650
      7          1           0       -2.260016    0.124839   -0.942495
      8          1           0       -2.976351    0.394430    0.489812
      9          1           0        2.709036   -0.325693   -0.290103
     10          1           0        1.275319   -1.272665   -0.640998
     11          1           0        1.706619   -0.927067    1.034746
 ---------------------------------------------------------------------
 Rotational constants (GHZ):          25.2783238           3.3379442           3.0626002
 Standard basis: Aug-CC-pVTZ (5D, 7F)
 There are   365 symmetry adapted cartesian basis functions of A   symmetry.
 There are   322 symmetry adapted basis functions of A   symmetry.
   322 basis functions,   432 primitive gaussians,   365 cartesian basis functions
    14 alpha electrons       14 beta electrons
       nuclear repulsion energy        80.1234936809 Hartrees.
 NAtoms=   11 NActive=   11 NUniq=   11 SFac= 1.00D+00 NAtFMM=   60 NAOKFM=F Big=F
 Integral buffers will be    131072 words long.
 Raffenetti 1 integral format.
 Two-electron integral symmetry is turned on.
 One-electron integrals computed using PRISM.
 NBasis=   322 RedAO= T EigKep=  3.73D-05  NBF=   322
 NBsUse=   322 1.00D-06 EigRej= -1.00D+00 NBFU=   322
 Initial guess from the checkpoint file:  "/gscratch/scrubbed/gds001/Gau-8703.chk"
 B after Tr=    -0.000000   -0.000000   -0.000000
         Rot=    0.999999    0.001259   -0.000022   -0.000303 Ang=   0.15 deg.
 Keep R1 ints in memory in canonical form, NReq=1376697355.
 Requested convergence on RMS density matrix=1.00D-08 within 128 cycles.
 Requested convergence on MAX density matrix=1.00D-06.
 Requested convergence on             energy=1.00D-06.
 No special actions if energy rises.
 SCF Done:  E(RHF) =  -151.477868919     A.U. after    8 cycles
            NFock=  8  Conv=0.34D-08     -V/T= 2.0014
 ExpMin= 2.53D-02 ExpMax= 1.14D+04 ExpMxC= 3.89D+02 IAcc=3 IRadAn=         5 AccDes= 0.00D+00
 HarFok:  IExCor=  205 AccDes= 0.00D+00 IRadAn=         5 IDoV=-2 UseB2=F ITyADJ=14
 ICtDFT= 12500011 ScaDFX=  1.000000  1.000000  1.000000  1.000000
 Range of M.O.s used for correlation:     4   322
 NBasis=   322 NAE=    14 NBE=    14 NFC=     3 NFV=     0
 NROrb=    319 NOA=    11 NOB=    11 NVA=   308 NVB=   308

 **** Warning!!: The largest alpha MO coefficient is  0.42867625D+02

 Disk-based method using ON**2 memory for 11 occupieds at a time.
 Estimated scratch disk usage=   959415704 words.
 Actual    scratch disk usage=   903316888 words.
 JobTyp=1 Pass  1:  I=   4 to  14 NPSUse= 28 ParTrn=T ParDer=T DoDerP=T.
 (rs|ai) integrals will be sorted in core.
 Spin components of T(2) and E(2):
     alpha-alpha T2 =       0.2209416253D-01 E2=     -0.7230825028D-01
     alpha-beta  T2 =       0.1427802573D+00 E2=     -0.5106893770D+00
     beta-beta   T2 =       0.2209416253D-01 E2=     -0.7230825028D-01
 ANorm=    0.1089480877D+01
 E2 =    -0.6553058776D+00 EUMP2 =    -0.15213317479676D+03
          IDoAtm=11111111111
          Differentiating once with respect to electric field.
                with respect to dipole field.
          Differentiating once with respect to nuclear coordinates.
 Keep R1 ints in memory in canonical form, NReq=1376699358.
          There are     1 degrees of freedom in the 1st order CPHF.  IDoFFX=0 NUNeed=     1.
 LinEq1:  Iter=  0 NonCon=     1 RMS=2.10D-03 Max=2.14D-02 NDo=     1
 AX will form     1 AO Fock derivatives at one time.
 LinEq1:  Iter=  1 NonCon=     1 RMS=6.09D-04 Max=5.92D-03 NDo=     1
 LinEq1:  Iter=  2 NonCon=     1 RMS=2.12D-04 Max=2.45D-03 NDo=     1
 LinEq1:  Iter=  3 NonCon=     1 RMS=4.32D-05 Max=3.44D-04 NDo=     1
 LinEq1:  Iter=  4 NonCon=     1 RMS=1.36D-05 Max=1.08D-04 NDo=     1
 LinEq1:  Iter=  5 NonCon=     1 RMS=3.08D-06 Max=2.84D-05 NDo=     1
 LinEq1:  Iter=  6 NonCon=     1 RMS=6.64D-07 Max=9.17D-06 NDo=     1
 LinEq1:  Iter=  7 NonCon=     1 RMS=2.00D-07 Max=2.11D-06 NDo=     1
 LinEq1:  Iter=  8 NonCon=     1 RMS=6.91D-08 Max=1.02D-06 NDo=     1
 LinEq1:  Iter=  9 NonCon=     1 RMS=1.41D-08 Max=1.45D-07 NDo=     1
 LinEq1:  Iter= 10 NonCon=     1 RMS=3.17D-09 Max=4.17D-08 NDo=     1
 LinEq1:  Iter= 11 NonCon=     1 RMS=5.43D-10 Max=5.75D-09 NDo=     1
 LinEq1:  Iter= 12 NonCon=     0 RMS=9.72D-11 Max=9.97D-10 NDo=     1
 Linear equations converged to 1.000D-10 1.000D-09 after    12 iterations.
 End of Minotr F.D. properties file   721 does not exist.
 End of Minotr F.D. properties file   722 does not exist.
 End of Minotr F.D. properties file   788 does not exist.
 Calling FoFJK, ICntrl=  10002127 FMM=F ISym2X=0 I1Cent= 0 IOpClX= 0 NMat=1 NMatS=1 NMatT=0.
 ***** Axes restored to original set *****
 -------------------------------------------------------------------
 Center     Atomic                   Forces (Hartrees/Bohr)
 Number     Number              X              Y              Z
 -------------------------------------------------------------------
      1        7           0.000126584   -0.000287882    0.000402741
      2        6          -0.000301783    0.000497357   -0.000012270
      3        1           0.000085052   -0.000043212   -0.000163200
      4        1           0.000054112   -0.000054067   -0.000284013
      5        7          -0.000883781   -0.000244316   -0.000193145
      6        1           0.000294025   -0.000029952    0.000072297
      7        1           0.000328398    0.000092530    0.000060677
      8        1           0.000231930    0.000168947    0.000123267
      9        1           0.000156853    0.000081996   -0.000070404
     10        1          -0.000112087   -0.000078092   -0.000135471
     11        1           0.000020696   -0.000103309    0.000199522
 -------------------------------------------------------------------
 Cartesian Forces:  Max     0.000883781 RMS     0.000248291

 GradGradGradGradGradGradGradGradGradGradGradGradGradGradGradGradGradGrad
 Berny optimization.
 Using GEDIIS/GDIIS optimizer.
 FormGI is forming the generalized inverse of G from B-inverse, IUseBI=4.
 Internal  Forces:  Max     0.000462270 RMS     0.000159520
 Search for a local minimum.
 Step number   3 out of a maximum of   47
 All quantities printed in internal units (Hartrees-Bohrs-Radians)
 Mixed Optimization -- En-DIIS/RFO-DIIS
 Swapping is turned off.
 Update second derivatives using D2CorX and points    1    2    3
 DE= -1.63D-05 DEPred=-1.29D-05 R= 1.26D+00
 TightC=F SS=  1.41D+00  RLast= 2.02D-02 DXNew= 5.0454D-01 6.0735D-02
 Trust test= 1.26D+00 RLast= 2.02D-02 DXMaxT set to 3.00D-01
 ITU=  1  1  0
     Eigenvalues ---    0.00230   0.00720   0.00755   0.02811   0.03010
     Eigenvalues ---    0.06701   0.06827   0.07575   0.10745   0.11637
     Eigenvalues ---    0.13355   0.16000   0.16000   0.16000   0.16000
     Eigenvalues ---    0.16001   0.17467   0.24956   0.33115   0.33608
     Eigenvalues ---    0.34414   0.40742   0.43429   0.44091   0.44283
     Eigenvalues ---    0.44322   0.44412
 En-DIIS/RFO-DIIS/Sim-DIIS IScMMF=       -3 using points:     3    2
 RFO step:  Lambda=-9.12543785D-06.
 DidBck=F Rises=F RFO-DIIS coefs:    1.63401   -0.63401
 Iteration  1 RMS(Cart)=  0.00306041 RMS(Int)=  0.00001423
 Iteration  2 RMS(Cart)=  0.00000983 RMS(Int)=  0.00001085
 Iteration  3 RMS(Cart)=  0.00000000 RMS(Int)=  0.00001085
 Variable       Old X    -DE/DX   Delta X   Delta X   Delta X     New X
                                 (Linear)    (Quad)   (Total)
    R1        2.76485  -0.00046   0.00071  -0.00246  -0.00174   2.76310
    R2        1.91288  -0.00010  -0.00031  -0.00033  -0.00064   1.91224
    R3        1.92003  -0.00007  -0.00041  -0.00017  -0.00058   1.91944
    R4        2.05737   0.00018  -0.00006   0.00046   0.00040   2.05776
    R5        2.05725   0.00018  -0.00006   0.00044   0.00039   2.05764
    R6        2.06847   0.00022  -0.00019   0.00072   0.00054   2.06901
    R7        4.26860   0.00003   0.00068   0.00091   0.00159   4.27019
    R8        1.91417  -0.00004  -0.00029  -0.00013  -0.00042   1.91375
    R9        1.91494  -0.00005  -0.00034  -0.00014  -0.00048   1.91447
   R10        1.91412  -0.00003  -0.00031  -0.00011  -0.00042   1.91370
    A1        1.91873  -0.00003   0.00373  -0.00166   0.00205   1.92078
    A2        1.91402   0.00002   0.00351  -0.00111   0.00238   1.91639
    A3        1.86485   0.00011   0.00220   0.00129   0.00345   1.86830
    A4        1.91256  -0.00008   0.00077  -0.00116  -0.00039   1.91217
    A5        1.90185  -0.00010   0.00106  -0.00157  -0.00051   1.90133
    A6        2.00424   0.00008  -0.00060   0.00111   0.00051   2.00475
    A7        1.87276   0.00005  -0.00057   0.00057   0.00000   1.87277
    A8        1.88575   0.00002  -0.00032   0.00051   0.00019   1.88594
    A9        1.88223   0.00003  -0.00038   0.00056   0.00018   1.88242
   A10        2.79183   0.00011   0.00034   0.00043   0.00077   2.79260
   A11        2.09521  -0.00022  -0.00160  -0.00106  -0.00267   2.09255
   A12        1.58815  -0.00036  -0.00193  -0.00187  -0.00380   1.58435
   A13        2.14462  -0.00024  -0.00168  -0.00116  -0.00285   2.14178
   A14        1.85957   0.00026   0.00231   0.00109   0.00339   1.86296
   A15        1.85712   0.00036   0.00165   0.00201   0.00365   1.86077
   A16        1.85950   0.00027   0.00226   0.00109   0.00334   1.86284
    D1       -1.10861   0.00004   0.00354  -0.00070   0.00285  -1.10576
    D2        3.13024   0.00008   0.00318   0.00018   0.00336   3.13360
    D3        1.01715   0.00006   0.00329  -0.00014   0.00316   1.02032
    D4        3.12915  -0.00008  -0.00334  -0.00064  -0.00399   3.12516
    D5        1.08481  -0.00005  -0.00370   0.00024  -0.00347   1.08134
    D6       -1.02828  -0.00006  -0.00359  -0.00008  -0.00367  -1.03195
    D7       -1.44794   0.00002   0.00466  -0.00082   0.00385  -1.44409
    D8        2.75633  -0.00002  -0.00292   0.00102  -0.00192   2.75442
    D9        1.35688   0.00003   0.00217   0.00124   0.00341   1.36030
   D10       -0.55985  -0.00000   0.00102   0.00137   0.00238  -0.55746
   D11       -2.48851  -0.00001   0.00005   0.00164   0.00169  -2.48682
         Item               Value     Threshold  Converged?
 Maximum Force            0.000462     0.000450     NO 
 RMS     Force            0.000160     0.000300     YES
 Maximum Displacement     0.007275     0.001800     NO 
 RMS     Displacement     0.003060     0.001200     NO 
 Predicted change in Energy=-4.561430D-06
 GradGradGradGradGradGradGradGradGradGradGradGradGradGradGradGradGradGrad

                          Input orientation:                          
 ---------------------------------------------------------------------
 Center     Atomic      Atomic             Coordinates (Angstroms)
 Number     Number       Type             X           Y           Z
 ---------------------------------------------------------------------
      1          7           0        0.895216    0.712748   -0.112401
      2          6           0        1.681816   -0.512515    0.021525
      3          1           0        1.256316    1.426383    0.507518
      4          1           0       -0.066044    0.536506    0.164397
      5          7           0       -2.226180   -0.115066    0.040043
      6          1           0       -2.461620   -1.097753    0.107025
      7          1           0       -2.256601    0.125891   -0.943506
      8          1           0       -2.978091    0.394042    0.488347
      9          1           0        2.707354   -0.323435   -0.291958
     10          1           0        1.273405   -1.269415   -0.646239
     11          1           0        1.708011   -0.934679    1.031395
 ---------------------------------------------------------------------
                    Distance matrix (angstroms):
                    1          2          3          4          5
     1  N    0.000000
     2  C    1.462172   0.000000
     3  H    1.011913   2.043665   0.000000
     4  H    1.015726   2.043495   1.630414   0.000000
     5  N    3.232898   3.928199   3.836975   2.259690   0.000000
     6  H    3.820262   4.185436   4.511618   2.900496   1.012715
     7  H    3.311961   4.104872   4.017130   2.488894   1.013092
     8  H    3.932554   4.770168   4.358474   2.933472   1.012689
     9  H    2.095176   1.088922   2.409676   2.939302   4.949081
    10  H    2.087339   1.088856   2.932367   2.390106   3.748413
    11  H    2.164006   1.094873   2.460304   2.462385   4.139131
                    6          7          8          9         10
     6  H    0.000000
     7  H    1.625716   0.000000
     8  H    1.624070   1.625625   0.000000
     9  H    5.241855   5.026655   5.783420   0.000000
    10  H    3.814090   3.807386   4.704211   1.754025   0.000000
    11  H    4.273976   4.554469   4.901016   1.767363   1.765046
                   11
    11  H    0.000000
 Stoichiometry    CH8N2
 Framework group  C1[X(CH8N2)]
 Deg. of freedom    27
 Full point group                 C1      NOp   1
 Largest Abelian subgroup         C1      NOp   1
 Largest concise Abelian subgroup C1      NOp   1
                         Standard orientation:                         
 ---------------------------------------------------------------------
 Center     Atomic      Atomic             Coordinates (Angstroms)
 Number     Number       Type             X           Y           Z
 ---------------------------------------------------------------------
      1          7           0        0.896662    0.713117   -0.119657
      2          6           0        1.683370   -0.511173    0.022298
      3          1           0        1.258298    1.431135    0.494865
      4          1           0       -0.064361    0.538857    0.159212
      5          7           0       -2.224607   -0.113556    0.041346
      6          1           0       -2.459994   -1.095739    0.115512
      7          1           0       -2.255870    0.120405   -0.943865
      8          1           0       -2.976130    0.398735    0.486666
      9          1           0        2.708640   -0.324338   -0.293401
     10          1           0        1.274381   -1.272795   -0.639719
     11          1           0        1.710429   -0.926151    1.035120
 ---------------------------------------------------------------------
 Rotational constants (GHZ):          25.3115316           3.3361325           3.0613835
 Standard basis: Aug-CC-pVTZ (5D, 7F)
 There are   365 symmetry adapted cartesian basis functions of A   symmetry.
 There are   322 symmetry adapted basis functions of A   symmetry.
   322 basis functions,   432 primitive gaussians,   365 cartesian basis functions
    14 alpha electrons       14 beta electrons
       nuclear repulsion energy        80.1312957854 Hartrees.
 NAtoms=   11 NActive=   11 NUniq=   11 SFac= 1.00D+00 NAtFMM=   60 NAOKFM=F Big=F
 Integral buffers will be    131072 words long.
 Raffenetti 1 integral format.
 Two-electron integral symmetry is turned on.
 One-electron integrals computed using PRISM.
 NBasis=   322 RedAO= T EigKep=  3.73D-05  NBF=   322
 NBsUse=   322 1.00D-06 EigRej= -1.00D+00 NBFU=   322
 Initial guess from the checkpoint file:  "/gscratch/scrubbed/gds001/Gau-8703.chk"
 B after Tr=    -0.000000   -0.000000    0.000000
         Rot=    1.000000    0.000599   -0.000014   -0.000030 Ang=   0.07 deg.
 Keep R1 ints in memory in canonical form, NReq=1376697355.
 Requested convergence on RMS density matrix=1.00D-08 within 128 cycles.
 Requested convergence on MAX density matrix=1.00D-06.
 Requested convergence on             energy=1.00D-06.
 No special actions if energy rises.
 SCF Done:  E(RHF) =  -151.477941330     A.U. after    7 cycles
            NFock=  7  Conv=0.69D-08     -V/T= 2.0014
 ExpMin= 2.53D-02 ExpMax= 1.14D+04 ExpMxC= 3.89D+02 IAcc=3 IRadAn=         5 AccDes= 0.00D+00
 HarFok:  IExCor=  205 AccDes= 0.00D+00 IRadAn=         5 IDoV=-2 UseB2=F ITyADJ=14
 ICtDFT= 12500011 ScaDFX=  1.000000  1.000000  1.000000  1.000000
 Range of M.O.s used for correlation:     4   322
 NBasis=   322 NAE=    14 NBE=    14 NFC=     3 NFV=     0
 NROrb=    319 NOA=    11 NOB=    11 NVA=   308 NVB=   308

 **** Warning!!: The largest alpha MO coefficient is  0.44223429D+02

 Disk-based method using ON**2 memory for 11 occupieds at a time.
 Estimated scratch disk usage=   959415704 words.
 Actual    scratch disk usage=   903316888 words.
 JobTyp=1 Pass  1:  I=   4 to  14 NPSUse= 28 ParTrn=T ParDer=T DoDerP=T.
 (rs|ai) integrals will be sorted in core.
 Spin components of T(2) and E(2):
     alpha-alpha T2 =       0.2208685870D-01 E2=     -0.7230325951D-01
     alpha-beta  T2 =       0.1427297300D+00 E2=     -0.5106322122D+00
     beta-beta   T2 =       0.2208685870D-01 E2=     -0.7230325951D-01
 ANorm=    0.1089450984D+01
 E2 =    -0.6552387312D+00 EUMP2 =    -0.15213318006105D+03
          IDoAtm=11111111111
          Differentiating once with respect to electric field.
                with respect to dipole field.
          Differentiating once with respect to nuclear coordinates.
 Keep R1 ints in memory in canonical form, NReq=1376699358.
          There are     1 degrees of freedom in the 1st order CPHF.  IDoFFX=0 NUNeed=     1.
 LinEq1:  Iter=  0 NonCon=     1 RMS=2.10D-03 Max=2.14D-02 NDo=     1
 AX will form     1 AO Fock derivatives at one time.
 LinEq1:  Iter=  1 NonCon=     1 RMS=6.09D-04 Max=5.92D-03 NDo=     1
 LinEq1:  Iter=  2 NonCon=     1 RMS=2.12D-04 Max=2.45D-03 NDo=     1
 LinEq1:  Iter=  3 NonCon=     1 RMS=4.32D-05 Max=3.45D-04 NDo=     1
 LinEq1:  Iter=  4 NonCon=     1 RMS=1.36D-05 Max=1.09D-04 NDo=     1
 LinEq1:  Iter=  5 NonCon=     1 RMS=3.07D-06 Max=2.84D-05 NDo=     1
 LinEq1:  Iter=  6 NonCon=     1 RMS=6.61D-07 Max=9.08D-06 NDo=     1
 LinEq1:  Iter=  7 NonCon=     1 RMS=2.00D-07 Max=2.11D-06 NDo=     1
 LinEq1:  Iter=  8 NonCon=     1 RMS=6.90D-08 Max=1.03D-06 NDo=     1
 LinEq1:  Iter=  9 NonCon=     1 RMS=1.40D-08 Max=1.44D-07 NDo=     1
 LinEq1:  Iter= 10 NonCon=     1 RMS=3.16D-09 Max=4.15D-08 NDo=     1
 LinEq1:  Iter= 11 NonCon=     1 RMS=5.42D-10 Max=5.75D-09 NDo=     1
 LinEq1:  Iter= 12 NonCon=     0 RMS=9.70D-11 Max=9.88D-10 NDo=     1
 Linear equations converged to 1.000D-10 1.000D-09 after    12 iterations.
 End of Minotr F.D. properties file   721 does not exist.
 End of Minotr F.D. properties file   722 does not exist.
 End of Minotr F.D. properties file   788 does not exist.
 Calling FoFJK, ICntrl=  10002127 FMM=F ISym2X=0 I1Cent= 0 IOpClX= 0 NMat=1 NMatS=1 NMatT=0.
 ***** Axes restored to original set *****
 -------------------------------------------------------------------
 Center     Atomic                   Forces (Hartrees/Bohr)
 Number     Number              X              Y              Z
 -------------------------------------------------------------------
      1        7           0.000079547   -0.000007050   -0.000106704
      2        6          -0.000128110    0.000181955    0.000016733
      3        1           0.000010253   -0.000000630    0.000057393
      4        1          -0.000016875   -0.000043773   -0.000038704
      5        7          -0.000324775   -0.000119530    0.000049453
      6        1           0.000092355    0.000033717   -0.000016966
      7        1           0.000115261    0.000027718    0.000029025
      8        1           0.000098957    0.000048480   -0.000011294
      9        1           0.000054872   -0.000009484   -0.000006262
     10        1          -0.000010410   -0.000054822   -0.000024987
     11        1           0.000028924   -0.000056582    0.000052313
 -------------------------------------------------------------------
 Cartesian Forces:  Max     0.000324775 RMS     0.000086628

 GradGradGradGradGradGradGradGradGradGradGradGradGradGradGradGradGradGrad
 Berny optimization.
 Using GEDIIS/GDIIS optimizer.
 FormGI is forming the generalized inverse of G from B-inverse, IUseBI=4.
 Internal  Forces:  Max     0.000155000 RMS     0.000052505
 Search for a local minimum.
 Step number   4 out of a maximum of   47
 All quantities printed in internal units (Hartrees-Bohrs-Radians)
 Mixed Optimization -- En-DIIS/RFO-DIIS
 Swapping is turned off.
 Update second derivatives using D2CorX and points    1    2    3    4
 DE= -5.26D-06 DEPred=-4.56D-06 R= 1.15D+00
 TightC=F SS=  1.41D+00  RLast= 1.43D-02 DXNew= 5.0454D-01 4.3039D-02
 Trust test= 1.15D+00 RLast= 1.43D-02 DXMaxT set to 3.00D-01
 ITU=  1  1  1  0
     Eigenvalues ---    0.00229   0.00721   0.00755   0.02783   0.03306
     Eigenvalues ---    0.06824   0.06896   0.07579   0.09391   0.10799
     Eigenvalues ---    0.13305   0.16000   0.16000   0.16000   0.16001
     Eigenvalues ---    0.16189   0.17451   0.24932   0.33082   0.33608
     Eigenvalues ---    0.34068   0.40622   0.43497   0.44073   0.44284
     Eigenvalues ---    0.44323   0.44602
 En-DIIS/RFO-DIIS/Sim-DIIS IScMMF=       -3 using points:     4    3    2
 RFO step:  Lambda=-8.56983544D-07.
 DidBck=F Rises=F RFO-DIIS coefs:    1.31418   -0.43200    0.11782
 Iteration  1 RMS(Cart)=  0.00075803 RMS(Int)=  0.00000208
 Iteration  2 RMS(Cart)=  0.00000080 RMS(Int)=  0.00000191
 Variable       Old X    -DE/DX   Delta X   Delta X   Delta X     New X
                                 (Linear)    (Quad)   (Total)
    R1        2.76310  -0.00008  -0.00068   0.00035  -0.00033   2.76278
    R2        1.91224   0.00004  -0.00014   0.00015   0.00001   1.91225
    R3        1.91944   0.00005  -0.00011   0.00013   0.00002   1.91947
    R4        2.05776   0.00005   0.00014   0.00004   0.00017   2.05794
    R5        2.05764   0.00006   0.00013   0.00006   0.00019   2.05783
    R6        2.06901   0.00007   0.00020   0.00004   0.00024   2.06925
    R7        4.27019   0.00002   0.00037   0.00058   0.00095   4.27115
    R8        1.91375  -0.00006  -0.00008  -0.00017  -0.00025   1.91351
    R9        1.91447  -0.00003  -0.00009  -0.00008  -0.00017   1.91430
   R10        1.91370  -0.00005  -0.00007  -0.00017  -0.00025   1.91346
    A1        1.92078  -0.00002  -0.00005   0.00001  -0.00004   1.92074
    A2        1.91639  -0.00005   0.00010  -0.00021  -0.00011   1.91629
    A3        1.86830   0.00001   0.00068  -0.00067   0.00001   1.86831
    A4        1.91217   0.00001  -0.00027   0.00044   0.00018   1.91234
    A5        1.90133   0.00002  -0.00036   0.00059   0.00023   1.90156
    A6        2.00475   0.00005   0.00027   0.00009   0.00037   2.00512
    A7        1.87277  -0.00002   0.00011  -0.00032  -0.00022   1.87255
    A8        1.88594  -0.00004   0.00012  -0.00044  -0.00032   1.88562
    A9        1.88242  -0.00003   0.00013  -0.00041  -0.00028   1.88213
   A10        2.79260   0.00008   0.00018   0.00034   0.00052   2.79312
   A11        2.09255  -0.00004  -0.00054  -0.00004  -0.00058   2.09197
   A12        1.58435  -0.00015  -0.00084  -0.00111  -0.00195   1.58240
   A13        2.14178  -0.00007  -0.00058  -0.00023  -0.00081   2.14097
   A14        1.86296   0.00006   0.00064   0.00018   0.00081   1.86377
   A15        1.86077   0.00012   0.00084   0.00075   0.00159   1.86236
   A16        1.86284   0.00007   0.00063   0.00019   0.00082   1.86366
    D1       -1.10576  -0.00002   0.00024  -0.00052  -0.00029  -1.10605
    D2        3.13360  -0.00002   0.00047  -0.00072  -0.00026   3.13335
    D3        1.02032  -0.00002   0.00038  -0.00069  -0.00031   1.02001
    D4        3.12516   0.00002  -0.00063   0.00042  -0.00021   3.12494
    D5        1.08134   0.00002  -0.00040   0.00022  -0.00018   1.08115
    D6       -1.03195   0.00002  -0.00049   0.00025  -0.00024  -1.03219
    D7       -1.44409  -0.00003   0.00034  -0.00035  -0.00000  -1.44409
    D8        2.75442   0.00002  -0.00006   0.00015   0.00010   2.75451
    D9        1.36030  -0.00003   0.00067   0.00026   0.00093   1.36123
   D10       -0.55746  -0.00000   0.00056   0.00074   0.00130  -0.55616
   D11       -2.48682   0.00004   0.00052   0.00134   0.00185  -2.48497
         Item               Value     Threshold  Converged?
 Maximum Force            0.000155     0.000450     YES
 RMS     Force            0.000053     0.000300     YES
 Maximum Displacement     0.002608     0.001800     NO 
 RMS     Displacement     0.000758     0.001200     YES
 Predicted change in Energy=-4.231489D-07
 GradGradGradGradGradGradGradGradGradGradGradGradGradGradGradGradGradGrad

                          Input orientation:                          
 ---------------------------------------------------------------------
 Center     Atomic      Atomic             Coordinates (Angstroms)
 Number     Number       Type             X           Y           Z
 ---------------------------------------------------------------------
      1          7           0        0.895135    0.712851   -0.112307
      2          6           0        1.681666   -0.512279    0.021349
      3          1           0        1.256035    1.426232    0.508029
      4          1           0       -0.066172    0.536356    0.164212
      5          7           0       -2.226832   -0.115296    0.040207
      6          1           0       -2.461741   -1.097929    0.107852
      7          1           0       -2.255221    0.125250   -0.943412
      8          1           0       -2.978173    0.395058    0.487756
      9          1           0        2.707352   -0.323258   -0.292003
     10          1           0        1.273476   -1.269243   -0.646643
     11          1           0        1.708056   -0.935034    1.031107
 ---------------------------------------------------------------------
                    Distance matrix (angstroms):
                    1          2          3          4          5
     1  N    0.000000
     2  C    1.461998   0.000000
     3  H    1.011918   2.043488   0.000000
     4  H    1.015739   2.043277   1.630436   0.000000
     5  N    3.233538   3.928652   3.837386   2.260195   0.000000
     6  H    3.820473   4.185485   4.511473   2.900485   1.012584
     7  H    3.310703   4.103204   4.015987   2.487524   1.013002
     8  H    3.932377   4.770209   4.358010   2.933326   1.012558
     9  H    2.095219   1.089013   2.409790   2.939303   4.949726
    10  H    2.087428   1.088958   2.932433   2.390048   3.749068
    11  H    2.164200   1.095001   2.460389   2.462596   4.139710
                    6          7          8          9         10
     6  H    0.000000
     7  H    1.626029   0.000000
     8  H    1.624820   1.625945   0.000000
     9  H    5.242091   5.025199   5.783528   0.000000
    10  H    3.814506   3.805836   4.704602   1.754041   0.000000
    11  H    4.273891   4.553075   4.901543   1.767337   1.765050
                   11
    11  H    0.000000
 Stoichiometry    CH8N2
 Framework group  C1[X(CH8N2)]
 Deg. of freedom    27
 Full point group                 C1      NOp   1
 Largest Abelian subgroup         C1      NOp   1
 Largest concise Abelian subgroup C1      NOp   1
                         Standard orientation:                         
 ---------------------------------------------------------------------
 Center     Atomic      Atomic             Coordinates (Angstroms)
 Number     Number       Type             X           Y           Z
 ---------------------------------------------------------------------
      1          7           0        0.896825    0.713121   -0.119649
      2          6           0        1.683366   -0.511068    0.022311
      3          1           0        1.258267    1.430972    0.495190
      4          1           0       -0.064279    0.538724    0.158903
      5          7           0       -2.225086   -0.113635    0.041346
      6          1           0       -2.460017   -1.095731    0.116331
      7          1           0       -2.254229    0.119741   -0.943976
      8          1           0       -2.976036    0.400027    0.485755
      9          1           0        2.708820   -0.324420   -0.293215
     10          1           0        1.274592   -1.272845   -0.639829
     11          1           0        1.710517   -0.926458    1.035100
 ---------------------------------------------------------------------
[...]
 344,-0.96449934,0.00205723,0.01439267,0.01153181,0.96215629,2.06654546
 ,0.95185472,-1.02954545,-0.23506680,0.42424019,0.00444234,0.00252332,0
 .00029607,-0.00491062,0.00703702,0.00813140,1.02389466,-0.23688137,0.2
 2021626,0.07118245,0.00629397,-0.00360454,-0.00033739,0.00465978,0.005
 03143,0.00995399,0.22503881,-0.22122487,0.43335861,0.07745551,0.116759
 40,-0.00293196,0.00136863,0.00338261,0.00323003,0.00316249,0.00299161,
 -0.43307024,-0.08179028,-0.12258934,-0.00069886,-0.00158190,-0.0008029
 4,0.00019624,-0.00033213,0.00008835,-0.00146338,0.00089186,0.00150754,
 0.00432320,0.00147484,-0.00047797,0.00083275,-0.00033801,-0.00071169,-
 0.00014871,-0.00002320,0.00005680,0.00009593,-0.00054104,0.00017934,0.
 00012341,0.00212284,-0.00069475,0.00011401,-0.00054006,0.00199029,0.00
 040815,0.00001640,0.00007976,-0.00022357,0.00007121,-0.00003734,0.0000
 2787,-0.00031918,-0.00027717,-0.00067806,0.00003549,-0.00088799,0.0009
 9669,0.00049121,0.00164636,-0.00022122,-0.00037811,-0.00011020,0.00004
 839,0.00001592,0.00006917,-0.00024072,0.00014097,0.00015470,0.00113703
 ,-0.00004032,0.00010808,-0.00105993,0.00026467,-0.00048434,0.00024013,
 0.00023921,-0.00000902,-0.00013217,-0.00004963,0.00002730,0.00000131,-
 0.00007320,0.00003940,0.00005094,-0.00046702,-0.00009223,0.00001033,0.
 00002502,-0.00068476,0.00002367,0.00005049,0.00066453,-0.00015257,-0.0
 0010639,0.00002330,0.00000457,-0.00002503,0.00000969,-0.00004426,0.000
 04064,0.00003808,0.00055134,-0.00006868,-0.00007897,-0.00055581,0.0002
 6892,-0.00000311,0.00025629,-0.00010498,-0.00013791,-0.00000972,0.0000
 6712,0.00008399,-0.00009329,-0.00008116,-0.00005069,0.00017722,-0.0001
 8577,-0.00018001,-0.00000705,0.00034617,-0.00050033,-0.00100500,-0.000
 48996,0.00039079,0.00007054,0.00011978,-0.00008502,0.00075150,-0.00007
 668,-0.00002928,0.00006840,-0.00001223,-0.00004424,-0.00003148,0.00009
 523,0.00004213,0.00000929,0.00009857,0.00007254,-0.00020356,-0.0002742
 1,0.00001815,0.00017861,0.00004157,0.00001443,-0.00001367,0.00014845,-
 0.00011530,0.00002312,0.00015713,-0.00000979,-0.00003924,-0.00000404,-
 0.00001410,0.00012599,-0.00012832,-0.00012044,-0.00038124,-0.00005375,
 -0.00006203,-0.00041069,-0.00005492,-0.00013514,0.00014172,0.00005164,
 0.00011466,0.00039337,0.00004427,0.00012739,-0.00012105,-0.00010804,-0
 .00015424,0.00008065,-0.00009208,0.00002055,-0.00012296,0.00018590,0.0
 0030781,0.00039615,0.00029742,0.00006133,-0.00091894,-0.00029271,-0.00
 043855,0.00010637,0.00011766,0.00004627,0.00015790,-0.00002516,0.00013
 973,0.00042877,-0.00030994,-0.00011847,0.00006210,0.00009301,-0.000054
 20,0.00001524,0.00001714,0.00010059,0.00010050,0.00063343,0.00024896,0
 .00000327,-0.00010704,-0.00028794,-0.00054475,-0.00015284,0.00005249,-
 0.00002725,-0.00000414,0.00000942,-0.00000647,-0.00013983,0.00001925,-
 0.00027592,-0.00004882,0.00005097,0.00006632,-0.00008732,0.00000149,-0
 .00000187,0.00005430,0.00009971,0.00058629,0.00040132,-0.00003868,-0.0
 0022932,-0.00080103,-0.00035469,-0.00008784,0.00009703,0.00004955,-0.0
 0005175,-0.00005802,0.00008623,0.00000779,0.00039521,0.00010053,-0.000
 62362,0.00117516,-0.00058213,-0.00046176,-0.00047688,0.00086420,0.0002
 4819,-0.00066818,0.00008298,0.00070605,0.00000344,0.00019839,-0.000129
 68,-0.00007668,-0.00000900,-0.00003270,0.00001373,-0.00001290,-0.00002
 195,-0.00000331,0.00000297,-0.00001296,-0.00001231,-0.00001123,0.00041
 023,0.00251101,-0.00013994,-0.00030852,0.00100756,0.00182256,0.0004156
 8,-0.00214679,-0.00021789,-0.00037851,-0.00162076,-0.00013752,0.000750
 99,0.00013702,0.00004871,0.00005120,0.00001443,-0.00000111,0.00000844,
 0.00004210,0.00000588,0.00000770,0.00001155,0.00000282,0.00000951,0.00
 014010,-0.00148013,0.00022349,-0.00201106,-0.00059685,-0.00009579,0.00
 168312,0.00011833,-0.00009808,0.00028409,0.00043973,0.00041732,0.00058
 042,0.00032840,-0.00001371,-0.00002387,-0.00002466,-0.00000721,-0.0000
 0070,-0.00000503,-0.00000704,0.00000273,0.00000258,0.00001085,0.000009
 55,0.00000996,-0.00042924,-0.00045872,0.00021092,0.00184706,-0.0009319
 8,0.00212373,0.00291841,0.00161491,0.00001755,-0.00139914,-0.00078284,
 -0.00213739,-0.00079844,-0.00082307,-0.00044873,-0.00002410,-0.0000623
 4,0.00001663,-0.00003804,0.00001168,-0.00000564,0.00000520,0.00001251,
 0.00000798,0.00000523,-0.00001236,-0.00000117,-0.00008187,-0.00025976,
 0.00000630,-0.00224215,-0.00140520,0.00062616,-0.00114999,-0.00133006,
 -0.00143142,-0.00307829,0.00120912,0.00116303,0.00224010,0.00013521,0.
 00012221,-0.00004861,0.00015275,0.00005018,-0.00001998,0.00002685,-0.0
 0000410,0.00001644,0.00000965,0.00000951,-0.00000943,0.00002681,0.0000
 2037,0.00002222,-0.00003133,0.00004626,0.00004237,0.00127093,-0.000638
 17,0.00155584,-0.00154030,-0.00059257,-0.00133312,-0.00043864,0.001846
 65,-0.00061224,0.00000260,-0.00106812,-0.00031714,0.00029406,0.0005944
 7,-0.00002741,-0.00004351,-0.00000363,-0.00002486,-0.00000614,-0.00000
 512,0.00001978,0.00000920,0.00001220,0.00000935,0.00000405,0.00000855,
 -0.00007600,-0.00018731,-0.00034576,0.00041154,0.00190622,-0.00072156,
 0.00004098,-0.00046346,-0.00256292,-0.00062861,0.00124850,-0.00011609,
 0.00057240,-0.00087205,0.00188645,0.00036210,-0.00036965,0.00047280,-0
 .00005234,-0.00002349,-0.00000660,-0.00000985,0.00001227,-0.00000227,-
 0.00002534,-0.00000474,-0.00000369,0.00000084,-0.00000511,-0.00000130,
 0.00000005,0.00016355,-0.00000695,-0.00019223,-0.00006458,0.00039436,-
 0.00006813,0.00029206,-0.00076357,0.00202053,0.00031418,-0.00002521,0.
 00140947,-0.00066536,0.00187630,-0.00157444,-0.00043461,0.00006251,-0.
 00082277,0.00015382,0.00003558,0.00001611,0.00001641,-0.00000686,0.000
 01157,0.00002775,0.00001676,-0.00000380,0.00001851,0.00000668,0.000015
 58,-0.00006372,0.00005034,-0.00010794,-0.00003770,0.00003593,-0.000000
 30,0.00037870,-0.00128848,0.00003292,-0.00039752,0.00051879,-0.0000758
 2,0.00111820,-0.00007914,0.00000563,0.00030208,-0.00099055,0.00022411,
 -0.00019765,-0.00039950,-0.00007473,-0.00002143,-0.00000245,-0.0000155
 1,0.00000908,-0.00000514,-0.00001309,-0.00000578,-0.00000149,-0.000010
 89,-0.00001144,-0.00001362,-0.00002802,0.00008955,-0.00013762,0.000009
 16,0.00007889,0.00027476,-0.00005379,-0.00096398,0.00083601,0.00047467
 ,0.00017746,-0.00023547,-0.00020566,-0.00005966,-0.00020719,-0.0000417
 9,-0.00005761,0.00007992,-0.00021820,-0.00008251,0.00015234,-0.0000540
 9,0.00003117,-0.00020189,0.00005342,0.00001105,0.00001900,-0.00000162,
 0.00003572,-0.00015992,0.00001743,-0.00006187,-0.00000159,-0.00001020,
 0.00001516,0.00001135,-0.00008048,-0.00002696,0.00004625,0.00009556,-0
 .00002418,0.00002586,-0.00003148,0.00004795,-0.00004554,0.00002484,0.0
 0002796,0.00011987,-0.00001045,0.00004594,-0.00002733,0.00000159,-0.00
 003592,-0.00009015,-0.00034225,-0.00006745,0.00014413,0.00002637,0.000
 09011,-0.00003057,0.00006914,0.00001337,-0.00001075,-0.00019818,-0.000
 07769,0.00005232,0.00005405,0.00001786,-0.00002643,0.00003699,-0.00000
 153,-0.00001308,-0.00003221,-0.00001792,0.00007042,0.00024266,0.000060
 61,-0.00002153,-0.00005254,0.00001899,0.00002334,-0.00000977,-0.000015
 11,-0.00001392,-0.00060238,-0.00015304,-0.00013441,-0.00013305,-0.0000
 2142,-0.00034463,0.00003978,-0.00028850,0.00003211,-0.00024867,-0.0000
 1954,0.00001620,0.00033035,0.00014498,0.00055065,-0.44840082,-0.000143
 96,0.00011422,-0.00023909,-0.00001338,-0.00023769,0.00004134,-0.000119
 40,0.00004662,-0.00000349,0.00037814,-0.00034848,0.00038704,-0.1460433
 3,0.52779600,0.00022277,-0.00001008,0.00051545,-0.00004439,0.00036850,
 -0.00011044,0.00029482,-0.00010607,-0.00000887,-0.00071615,-0.00001973
 ,-0.00099889,-0.28154226,-0.73961364,2.86385994,0.00011164,0.00004200,
 0.00001432,-0.00003464,0.00007381,0.00000062,0.00005584,-0.00001235,0.
 00001290,-0.00017878,-0.00010069,-0.00010409,0.11209689,-0.29401934,-0
 .00032106,-0.11698355,0.00014451,-0.00012991,0.00011002,0.00000239,0.0
 0008851,0.00001664,0.00002395,0.00001631,0.00000707,0.00018541,0.00034
 001,-0.00016137,-0.26992197,-0.84117939,-0.00215269,0.28069183,0.84939
 232,-0.00000956,-0.00003281,-0.00003563,-0.00000473,-0.00006564,0.0000
 0301,-0.00005388,0.00002115,0.00001184,0.00024936,0.00010834,0.0001322
 6,-0.00213086,-0.00462548,0.18526077,-0.00095443,0.01062211,-0.2050980
 4,-0.00022516,-0.00006470,0.00025144,0.00004613,0.00011079,0.00000696,
 0.00012149,0.00001096,-0.00005378,0.00030082,0.00005163,0.00008921,0.7
 1845289,0.00887785,-0.01392071,-0.00194505,-0.00331987,0.00374931,-0.7
 1131132,-0.00004713,0.00013853,0.00019159,0.00002829,-0.00000475,-0.00
 009372,0.00012680,-0.00002485,0.00001681,-0.00009723,-0.00012967,-0.00
 021019,0.00506506,0.45772885,0.95878527,-0.00043009,-0.00738860,-0.001
 28235,-0.00847136,-0.44639961,-0.00028003,0.00005178,-0.00028678,0.000
 05515,-0.00029283,0.00005090,-0.00019124,0.00004773,-0.00000288,0.0008
 5648,-0.00002241,0.00083901,0.00093100,0.96327498,-3.06894217,-0.00192
 583,-0.00797576,0.01114425,0.00285434,-0.95239705,3.04565602,0.0001604
 1,0.00005967,0.00007703,-0.00003638,0.00007008,-0.00000564,0.00007393,
 -0.00000533,0.00001949,-0.00002989,-0.00002000,-0.00014143,-0.38203377
 ,0.43114953,0.29593101,0.00684784,-0.00786243,-0.00084100,-0.00548419,
 0.00385416,-0.00222560,0.38047885,0.00002190,-0.00009764,-0.00008733,0
 .00000187,0.00011894,0.00000581,-0.00001881,-0.00003613,-0.00000915,-0
 .00043067,0.00006886,0.00006842,0.41092670,-0.14407944,-0.21709446,0.0
 1378475,-0.00104891,-0.00477223,0.00290186,-0.00396016,-0.00282596,-0.
 42721330,0.14910705,-0.00002742,-0.00003709,-0.00008864,-0.00000591,-0
 .00002637,0.00004498,-0.00005510,0.00002012,-0.00000304,0.00010222,0.0
 0003656,0.00017582,0.28252436,-0.21918905,0.02028491,0.00326167,-0.000
 46112,0.00859218,0.00704379,-0.00505853,0.01163209,-0.29283151,0.22471
 495,-0.04060274,-0.00004206,0.00002547,-0.00000096,0.00015196,-0.00001
 652,-0.00004723,-0.00000021,0.00000345,0.00000227,0.00001809,-0.000001
 82,0.00000599,-0.00008866,-0.00004010,0.00010102,0.00002925,0.00000182
 ,-0.00001560,0.00001810,0.00002896,-0.00007646,0.00001957,0.00001438,-
 0.00001464,-0.00006725,0.00002665,-0.00000129,-0.00001246,0.00001336,0
 .00001152,-0.00000215,-0.00000673,-0.00000367,-0.00000334,-0.00002573,
 -0.00000268,0.00000722,0.00007312,0.00007725,-0.00008867,-0.00001404,-
 0.00003145,0.00001171,-0.00005014,0.00000110,0.00007069,-0.00001222,-0
 .00003645,0.00000873,0.00000101,0.00000194,0.00000529,-0.00000248,0.00
 000260,-0.00005348,-0.00000830,0.00001166,-0.00000221,0.00000163,0.000
 00381,0.00000553,-0.00001134,-0.00000013,-0.00000221,-0.00000900,0.000
 03173,-0.00000048,0.00000399,0.00000102,-0.00001130,0.00001180,-0.0000
 2175,0.00000175,-0.00000083,-0.00000903,0.00003660,0.00000185,-0.00002
 254,0.00000010,-0.00003932,-0.00000970,0.00004955,0.00000190,-0.000001
 24,0.00000336,0.00001171,-0.00000359,0.00000201,0.00000182,0.00001529,
 0.00002610,0.00002118,-0.00006720,-0.00000632,0.00000836,-0.00000200,0
 .00001531,-0.00005585,0.00006059,-0.00001755,0.00001561,0.00000959,-0.
 00001612,0.00000399,0.00001302,-0.00005544,0.00000120,-0.00000581,-0.0
 0000910,0.00000934,0.00002649,0.00000503,-0.00000155,-0.00001446,-0.00
 000750,-0.00002251,-0.00000431,0.00000263,0.00002349,0.00003529,0.0000
 1891,-0.00000150,-0.00002449,0.00000905,-0.00003845,0.00003169,-0.0000
 0305,0.00000659,-0.00003019,-0.00001598,-0.00000805,-0.00000416,0.0000
 0614,0.00002845,-0.00001064,-0.00000786,-0.00003044,-0.00000668,0.0000
 3155,0.00002615,0.00001572,0.00000221,-0.00000261,0.00000199,-0.000004
 58,0.00000031,-0.00000218,0.00001254,0.00002745,0.00001591,0.00000221,
 -0.00003991,-0.00001550,-0.00000704,0.00003251,0.00000026,-0.00000672,
 -0.00001143,-0.00000770,0.00000008,0.00000200,0.00001367,-0.00001285,-
 0.00000919,0.00000775,0.00002004,0.00000771,-0.00000430,0.00002769,-0.
 00000566,-0.00001820,-0.00000164,0.00000093,0.00000127,0.00000227,0.00
 000337,0.00000644,-0.00004107,-0.00004717,0.00006214,0.00000688,0.0000
 4597,0.00001340,0.00001098,-0.00000161,-0.00005839,0.00002120,-0.00000
 428,-0.00000706,-0.00002272,-0.00000924,0.00000743,-0.00000109,0.00000
 312,-0.00000946,-0.00002262,0.00000654,-0.00003356,0.00001052,-0.00000
 897,0.00004735,-0.00002525,-0.00000399,0.00000270,-0.00000619,-0.00000
 557,-0.00000698,-0.00000518,0.00006139,0.00004666,-0.00008735,-0.00001
 437,-0.00003434,0.00000616,-0.00000856,0.00000749,0.00007190,-0.000026
 75,-0.00000594,0.00000777,-0.00000864,-0.00001210,0.00000648,0.0000021
 6,0.00000054,0.00000519,0.00000681,-0.00001197,-0.00001847,0.00002120,
 -0.00001050,0.00000652,-0.00004798,0.00012912,0.00000382,0.00000496,0.
 00000867,0.00000672,0.00000249,0.00000062,-0.00004688,-0.00005105,0.00
 009162,0.00001417,0.00003102,0.00000384,-0.00000222,0.00000384,-0.0000
 6893,0.00002260,0.00001221,-0.00001886,0.00000898,0.00000438,-0.000011
 08,-0.00000199,0.00000299,-0.00002327,0.00000676,0.00001597,-0.0001011
 6,0.00028457,0.00002593,0.00000150,-0.00015879,-0.00011457,0.00022682,
 0.00000891,0.00002109,0.00003499,0.00002322,0.00003445,0.00007354,-0.0
 0000579,-0.00011092,0.00021812,-0.00002317,0.00004479,0.00000464,0.000
 09726,-0.00006917,0.00010963,-0.00002244,0.00001928,0.00001554,-0.0000
 2071,-0.00001565,-0.00001076,-0.00001321,-0.00000654,-0.00005775,0.000
 08125,0.00001016,0.00003967,-0.00001066,-0.00001613,-0.00000393,-0.000
 00293,0.00008072,-0.00000684,-0.00000370,-0.00001161,0.00001415,-0.000
 00478,-0.00007405,-0.00005817,-0.00043500,-0.00004018,0.00012590,0.000
 05004,0.00002831,-0.00001274,0.00003785,0.00000018,-0.00002284,0.00037
 612,-0.00005234,-0.00009156,0.00004779,-0.00002893,-0.00001405,-0.0000
 0009,0.00003497,0.00001787,-0.00000325,0.00002414,0.00006585,0.0001411
 9,0.00001367,-0.00019449,-0.00003712,0.00001014,0.00003897,-0.00002354
 ,0.00000641,0.00004695,-0.00006804,-0.00003420,0.00012889,0.00043310,-
 0.00007548,-0.00015549,0.00010536,-0.00000068,0.00000205,-0.00005938,0
 .00002217,-0.00000489,-0.00054856,0.00014677,0.00014695,0.97103514,-0.
 00003671,0.00051724,0.00005003,-0.00010043,-0.00022844,-0.00004935,0.0
 0010657,0.00001112,-0.00000575,0.00001112,-0.00103037,-0.00007786,-0.3
 3731439,2.53069122,0.00015347,0.00023704,0.00007962,0.00007165,-0.0002
 0637,-0.00002372,0.00007759,0.00005724,0.00000598,0.00042293,-0.000091
 71,-0.00020745,-1.05593826,0.53990185,-0.54897591,-0.00018500,-0.00010
 180,0.00005058,-0.00004852,0.00007277,0.00006424,-0.00001632,-0.000007
 38,-0.00002176,0.00029893,0.00008167,-0.00003968,0.27027402,-0.8688749
 7,0.05263733,-0.27674678,0.00016932,-0.00032043,0.00000201,0.00003935,
 0.00008459,0.00004032,-0.00006727,0.00003247,0.00001452,0.00010948,0.0
 0063321,-0.00008217,-0.85687953,-2.24761589,0.14644965,0.86230295,2.23
 119939,-0.00002497,0.00006316,0.00003941,-0.00006269,0.00002035,-0.000
 01976,0.00002057,-0.00002614,0.00000807,-0.00011116,-0.00015728,-0.000
 02785,0.04804189,0.13075383,0.52855415,-0.04978644,-0.14628873,-0.5157
 6269,0.00010039,0.00003131,-0.00002341,-0.00004028,0.00006431,-0.00001
 022,0.00002196,-0.00001008,0.00001468,-0.00014771,-0.00008991,-0.00002
 624,-0.02003117,0.00102043,-0.00648529,0.00683436,-0.00052674,0.003482
 07,0.00205476,0.00006899,-0.00004716,0.00001045,-0.00001014,0.00005152
 ,-0.00000664,-0.00001122,-0.00001177,0.00001445,-0.00008701,0.00013780
 ,-0.00001193,-0.00457292,-0.01661785,-0.01169951,0.00580455,0.01160193
 ,0.01236596,0.00285834,-0.00245343,-0.00005569,0.00000300,-0.00006820,
 0.00000488,0.00000879,-0.00000579,-0.00001428,0.00000572,-0.00002041,-
 0.00009384,-0.00004098,0.00010475,0.01566069,-0.00475259,0.02434701,-0
 .00312024,-0.00236490,-0.00786653,-0.00298417,-0.00118521,-0.00838250,
 -0.00018367,0.00016438,0.00011540,-0.00001465,-0.00013512,-0.00006229,
 0.00006219,-0.00000718,0.00003595,0.00034755,-0.00011107,-0.00008706,-
 1.22117653,1.20527688,1.00907538,-0.00046505,-0.00522555,-0.00153742,0
 .01119330,-0.00407033,-0.00939064,1.21027733,-0.00016534,-0.00014852,-
 0.00006421,0.00008469,0.00005640,0.00003117,-0.00004001,-0.00002600,-0
 .00002350,-0.00002713,0.00027033,0.00016518,1.19867658,-0.26596587,-0.
 67472814,0.00079677,0.00451705,0.00323650,-0.00331931,0.00737460,0.008
 33058,-1.19600294,0.25398516,-0.00006369,-0.00028264,-0.00005407,-0.00
 000779,0.00018445,0.00002507,-0.00007008,-0.00004536,-0.00000024,-0.00
 024140,0.00027524,0.00012079,0.99224759,-0.66587023,-0.00378792,0.0002
 5725,0.00225414,-0.00495774,0.00601173,0.00050902,-0.00809944,-0.99818
 239,0.66309079,0.01676282,0.00000316,-0.00000279,-0.00000950,-0.000073
 57,0.00001294,0.00003014,0.00000208,0.00001217,0.00000439,0.00001436,-
 0.00000341,-0.00000646,-0.00002606,0.00001885,-0.00003046,-0.00000652,
 -0.00001126,0.00001852,0.00001886,0.00000611,0.00000106,0.00000101,-0.
 00001304,0.00001729,0.00006851,-0.00001513,0.00000421,-0.00000326,0.00
 001896,-0.00005578,0.00000676,-0.00000267,-0.00000705,0.,-0.00001978,0
 .00000965,0.00000834,-0.00001739,0.00009635,0.00004270,-0.00002482,-0.
 00004350,0.00001775,-0.00000861,-0.00001767,-0.00000673,0.00004965,-0.
 00002762,-0.00005375,0.00002424,0.00001733,0.00001114,-0.00000935,0.00
 000261,0.00001262,0.00001621,-0.00000806,-0.00000141,0.00001037,0.0000
 0615,0.00000215,0.00000547,-0.00001000,0.00000882,-0.00000625,0.000006
 53,-0.00001233,0.00000013,0.00000136,0.00000159,0.00000485,-0.00000295
 ,0.00000786,-0.00000539,-0.00000009,-0.00003532,-0.00000931,-0.0000037
 0,-0.00001026,-0.00003077,-0.00000491,0.00002597,0.00000344,-0.0000398
 0,0.00000692,-0.00000078,-0.00000317,0.00000049,-0.00000403,-0.0000024
 1,-0.00001032,-0.00005198,0.00000537,0.00004346,0.00003940,-0.00003234
 ,-0.00000351,-0.00000397,0.00001195,-0.00003058,0.00002442,0.00001362,
 0.00000678,0.00000779,0.00000011,-0.00002722,-0.00001476,0.00005070,0.
 00000429,0.00001343,-0.00012121,-0.00007444,-0.00000234,0.00000442,0.0
 0001084,0.00000631,0.00000016,0.00000557,0.00000660,0.00011098,0.00002
 023,-0.00004000,-0.00006285,0.00002520,-0.00000243,-0.00000777,-0.0000
 0906,0.00004558,-0.00004190,-0.00003679,-0.00001366,0.00001286,-0.0000
 0767,0.00002662,0.00004302,-0.00000117,-0.00001536,-0.00000772,-0.0000
 3556,-0.00006163,-0.00002636,0.00000903,0.00000101,-0.00000363,-0.0000
 0993,0.00000142,0.00000410,-0.00002104,0.00008938,0.00000987,-0.000034
 57,-0.00004615,0.00002700,0.00000575,-0.00002061,0.00000106,0.00005167
 ,-0.00001862,-0.00003280,0.00000988,0.00001222,-0.00000418,0.00004084,
 0.00006352,0.00001624,0.00000619,-0.00001102,0.00000971,-0.00001563,0.
 00004609,-0.00003474,0.00000108,0.00000341,0.00000903,0.00000591,0.000
 00215,0.00000241,0.00000440,-0.00005537,0.00001029,0.00001743,0.000049
 83,-0.00000803,-0.00000094,0.00001760,-0.00001973,-0.00001091,-0.00001
 468,0.00001786,-0.00000865,-0.00001220,0.00000471,-0.00000178,-0.00002
 530,-0.00001485,0.00000290,-0.00000785,0.00001820,-0.00000800,0.000062
 75,-0.00010425,0.00008744,-0.00000555,0.00000097,-0.00000237,-0.000005
 44,0.00000109,-0.00000313,0.00000822,0.00003141,0.00001701,-0.00000970
 ,-0.00002588,-0.00001059,-0.00001731,-0.00001020,0.00001138,0.00001574
 ,0.00000635,-0.00002487,-0.00003013,0.00001122,0.00000094,-0.00001012,
 0.00001157,-0.00000527,-0.00000057,0.00005949,0.00002454,-0.00002045,-
 0.00002181,-0.00007458,0.00011471,-0.00010867,0.00000212,-0.00000582,0
 .00000800,0.00000902,-0.00000239,-0.00000464,0.00001172,-0.00003307,-0
 .00000816,0.00000561,0.00002118,0.00000456,0.00001350,0.00001917,-0.00
 000700,-0.00002647,-0.00001435,0.00002363,0.00000052,-0.00001468,0.000
 01228,0.00001075,-0.00000178,0.00001633,0.00002329,-0.00006255,0.00008
 555\\@


 WE ARE PERHAPS NOT FAR REMOVED FROM THE TIME WHEN WE SHALL BE ABLE TO SUBMIT
 THE BULK OF CHEMICAL PHENOMENA TO CALCULATION.

            -- JOSEPH LOUIS GAY-LUSSAC
               MEMOIRES DE LA SOCIETE D'ARCUEIL, 2, 207 (1808)
 Job cpu time:      29 days  9 hours 26 minutes 14.3 seconds.
 Elapsed time:       1 days  1 hours 37 minutes 28.3 seconds.
 File lengths (MBytes):  RWF=  21032 Int=      0 D2E=      0 Chk=     64 Scr=      8
 Normal termination of Gaussian 16 at Tue Dec 21 16:06:29 2021.
