 Entering Gaussian System, Link 0=g16
 Input=nmeh2_nh3_mp2_avdz_opt_anharm.gjf
 Output=nmeh2_nh3_mp2_avdz_opt_anharm.log
 Initial command:
 /sw/contrib/gaussian/g16/A03/g16/l1.exe "/gscratch/scrubbed/gds001/Gau-30211.inp" -scrdir="/gscratch/scrubbed/gds001/"
 Entering Link 1 = /sw/contrib/gaussian/g16/A03/g16/l1.exe PID=     30212.
  
 Copyright (c) 1988,1990,1992,1993,1995,1998,2003,2009,2016,
            Gaussian, Inc.  All Rights Reserved.
  
 This is part of the Gaussian(R) 16 program.  It is based on
 the Gaussian(R) 09 system (copyright 2009, Gaussian, Inc.),
 the Gaussian(R) 03 system (copyright 2003, Gaussian, Inc.),
 the Gaussian(R) 98 system (copyright 1998, Gaussian, Inc.),
 the Gaussian(R) 94 system (copyright 1995, Gaussian, Inc.),
 the Gaussian 92(TM) system (copyright 1992, Gaussian, Inc.),
 the Gaussian 90(TM) system (copyright 1990, Gaussian, Inc.),
 the Gaussian 88(TM) system (copyright 1988, Gaussian, Inc.),
 the Gaussian 86(TM) system (copyright 1986, Carnegie Mellon
 University), and the Gaussian 82(TM) system (copyright 1983,
 Carnegie Mellon University). Gaussian is a federally registered
 trademark of Gaussian, Inc.
  
 This software contains proprietary and confidential information,
 including trade secrets, belonging to Gaussian, Inc.
  
 This software is provided under written license and may be
 used, copied, transmitted, or stored only in accord with that
 written license.
  
 The following legend is applicable only to US Government
 contracts under FAR:
  
                    RESTRICTED RIGHTS LEGEND
  
 Use, reproduction and disclosure by the US Government is
 subject to restrictions as set forth in subparagraphs (a)
 and (c) of the Commercial Computer Software - Restricted
 Rights clause in FAR 52.227-19.
  
 Gaussian, Inc.
 340 Quinnipiac St., Bldg. 40, Wallingford CT 06492
  
  
 ---------------------------------------------------------------
 Warning -- This program may not be used in any manner that
 competes with the business of Gaussian, Inc. or will provide
 assistance to any competitor of Gaussian, Inc.  The licensee
 of this program is prohibited from giving any competitor of
 Gaussian, Inc. access to this program.  By using this program,
 the user acknowledges that Gaussian, Inc. is engaged in the
 business of creating and licensing software in the field of
 computational chemistry and represents and warrants to the
 licensee that it is not a competitor of Gaussian, Inc. and that
 it will not use this program in any manner prohibited above.
 ---------------------------------------------------------------
  

 Cite this work as:
 Gaussian 16, Revision A.03,
 M. J. Frisch, G. W. Trucks, H. B. Schlegel, G. E. Scuseria, 
 M. A. Robb, J. R. Cheeseman, G. Scalmani, V. Barone, 
 G. A. Petersson, H. Nakatsuji, X. Li, M. Caricato, A. V. Marenich, 
 J. Bloino, B. G. Janesko, R. Gomperts, B. Mennucci, H. P. Hratchian, 
 J. V. Ortiz, A. F. Izmaylov, J. L. Sonnenberg, D. Williams-Young, 
 F. Ding, F. Lipparini, F. Egidi, J. Goings, B. Peng, A. Petrone, 
 T. Henderson, D. Ranasinghe, V. G. Zakrzewski, J. Gao, N. Rega, 
 G. Zheng, W. Liang, M. Hada, M. Ehara, K. Toyota, R. Fukuda, 
 J. Hasegawa, M. Ishida, T. Nakajima, Y. Honda, O. Kitao, H. Nakai, 
 T. Vreven, K. Throssell, J. A. Montgomery, Jr., J. E. Peralta, 
 F. Ogliaro, M. J. Bearpark, J. J. Heyd, E. N. Brothers, K. N. Kudin, 
 V. N. Staroverov, T. A. Keith, R. Kobayashi, J. Normand, 
 K. Raghavachari, A. P. Rendell, J. C. Burant, S. S. Iyengar, 
 J. Tomasi, M. Cossi, J. M. Millam, M. Klene, C. Adamo, R. Cammi, 
 J. W. Ochterski, R. L. Martin, K. Morokuma, O. Farkas, 
 J. B. Foresman, and D. J. Fox, Gaussian, Inc., Wallingford CT, 2016.
 
 ******************************************
 Gaussian 16:  ES64L-G16RevA.03 25-Dec-2016
                17-Dec-2021 
 ******************************************
 %nprocshared=28
 Will use up to   28 processors via shared memory.
 %mem=41GB
 ----------------------------------------------
 # MP2/aug-cc-pVDZ opt freq=(vibrot,anharmonic)
 ----------------------------------------------
 1/18=20,19=15,38=1,80=1/1,3;
 2/9=110,12=2,17=6,18=5,40=1/2;
 3/5=16,7=10,11=9,25=1,30=1,71=1/1,2,3;
 4//1;
 5/5=2,38=5/2;
 8/6=4,10=1/1;
 9/15=2,16=-3/6;
 10/5=1/2;
 6/7=2,8=2,9=2,10=2/1;
 7/12=2/1,2,3,16;
 1/18=20,19=15,80=1/3(2);
 2/9=110/2;
 99//99;
 2/9=110/2;
 3/5=16,7=10,11=9,25=1,30=1,71=1/1,2,3;
 4/5=5,16=3,69=1/1;
 5/5=2,38=5/2;
 8/6=4,10=1/1;
 9/15=2,16=-3/6;
 10/5=1/2;
 7/12=2/1,2,3,16;
 1/18=20,19=15,80=1/3(-8);
 2/9=110/2;
 6/7=2,8=2,9=2,10=2/1;
 99//99;
 ----
 bleh
 ----
 Symbolic Z-matrix:
 Charge =  0 Multiplicity = 1
 N                     1.16837   1.56089  -0.02761 
 C                     2.61508   1.44045  -0.01456 
 H                     0.77814   0.84867  -0.6427 
 H                     0.91845   2.45419  -0.48059 
 N                     0.28501   4.1748   -1.32327 
 H                     0.93265   4.9317   -1.09917 
 H                    -0.47259   4.2608   -0.64249 
 H                    -0.12894   4.42886  -2.2209 
 H                     2.91004   0.47648   0.40906 
 H                     3.05443   2.23428   0.59583 
 H                     3.01696   1.51537  -1.02904 
 
 Add virtual bond connecting atoms N5         and H4         Dist= 3.81D+00.

 GradGradGradGradGradGradGradGradGradGradGradGradGradGradGradGradGradGrad
 Berny optimization.
 Initialization pass.
                           ----------------------------
                           !    Initial Parameters    !
                           ! (Angstroms and Degrees)  !
 --------------------------                            --------------------------
 ! Name  Definition              Value          Derivative Info.                !
 --------------------------------------------------------------------------------
 ! R1    R(1,2)                  1.4518         estimate D2E/DX2                !
 ! R2    R(1,3)                  1.0188         estimate D2E/DX2                !
 ! R3    R(1,4)                  1.0323         estimate D2E/DX2                !
 ! R4    R(2,9)                  1.0935         estimate D2E/DX2                !
 ! R5    R(2,10)                 1.0935         estimate D2E/DX2                !
 ! R6    R(2,11)                 1.0937         estimate D2E/DX2                !
 ! R7    R(4,5)                  2.0179         estimate D2E/DX2                !
 ! R8    R(5,6)                  1.0211         estimate D2E/DX2                !
 ! R9    R(5,7)                  1.0222         estimate D2E/DX2                !
 ! R10   R(5,8)                  1.0206         estimate D2E/DX2                !
 ! A1    A(2,1,3)              109.217          estimate D2E/DX2                !
 ! A2    A(2,1,4)              108.4807         estimate D2E/DX2                !
 ! A3    A(3,1,4)              104.3182         estimate D2E/DX2                !
 ! A4    A(1,2,9)              110.2069         estimate D2E/DX2                !
 ! A5    A(1,2,10)             110.1923         estimate D2E/DX2                !
 ! A6    A(1,2,11)             110.6172         estimate D2E/DX2                !
 ! A7    A(9,2,10)             108.3814         estimate D2E/DX2                !
 ! A8    A(9,2,11)             108.6998         estimate D2E/DX2                !
 ! A9    A(10,2,11)            108.6868         estimate D2E/DX2                !
 ! A10   A(4,5,6)              109.9571         estimate D2E/DX2                !
 ! A11   A(4,5,7)               91.5053         estimate D2E/DX2                !
 ! A12   A(4,5,8)              134.9801         estimate D2E/DX2                !
 ! A13   A(6,5,7)              105.1634         estimate D2E/DX2                !
 ! A14   A(6,5,8)              105.4128         estimate D2E/DX2                !
 ! A15   A(7,5,8)              105.3197         estimate D2E/DX2                !
 ! A16   L(1,4,5,11,-1)        184.1815         estimate D2E/DX2                !
 ! A17   L(1,4,5,11,-2)        178.6162         estimate D2E/DX2                !
 ! D1    D(3,1,2,9)            -63.6899         estimate D2E/DX2                !
 ! D2    D(3,1,2,10)           176.7463         estimate D2E/DX2                !
 ! D3    D(3,1,2,11)            56.5411         estimate D2E/DX2                !
 ! D4    D(4,1,2,9)           -176.8088         estimate D2E/DX2                !
 ! D5    D(4,1,2,10)            63.6274         estimate D2E/DX2                !
 ! D6    D(4,1,2,11)           -56.5779         estimate D2E/DX2                !
 ! D7    D(2,1,5,6)            -36.0567         estimate D2E/DX2                !
 ! D8    D(2,1,5,7)           -142.4174         estimate D2E/DX2                !
 ! D9    D(2,1,5,8)            105.4797         estimate D2E/DX2                !
 ! D10   D(3,1,5,6)           -153.2071         estimate D2E/DX2                !
 ! D11   D(3,1,5,7)            100.4323         estimate D2E/DX2                !
 ! D12   D(3,1,5,8)            -11.6706         estimate D2E/DX2                !
 --------------------------------------------------------------------------------
 Trust Radius=3.00D-01 FncErr=1.00D-07 GrdErr=1.00D-07 EigMax=2.50D+02 EigMin=1.00D-04
 Number of steps in this run=     49 maximum allowed number of steps=    100.
 GradGradGradGradGradGradGradGradGradGradGradGradGradGradGradGradGradGrad

                          Input orientation:                          
 ---------------------------------------------------------------------
 Center     Atomic      Atomic             Coordinates (Angstroms)
 Number     Number       Type             X           Y           Z
 ---------------------------------------------------------------------
      1          7           0        1.168369    1.560886   -0.027614
      2          6           0        2.615085    1.440454   -0.014562
      3          1           0        0.778139    0.848673   -0.642696
      4          1           0        0.918451    2.454191   -0.480587
      5          7           0        0.285012    4.174803   -1.323270
      6          1           0        0.932653    4.931701   -1.099169
      7          1           0       -0.472594    4.260802   -0.642487
      8          1           0       -0.128945    4.428858   -2.220903
      9          1           0        2.910040    0.476475    0.409064
     10          1           0        3.054430    2.234280    0.595833
     11          1           0        3.016955    1.515375   -1.029045
 ---------------------------------------------------------------------
                    Distance matrix (angstroms):
                    1          2          3          4          5
     1  N    0.000000
     2  C    1.451778   0.000000
     3  H    1.018751   2.029564   0.000000
     4  H    1.032298   2.030618   1.619771   0.000000
     5  N    3.048213   3.823431   3.430670   2.017886   0.000000
     6  H    3.544882   4.024395   4.111370   2.553605   1.021056
     7  H    3.218754   4.228760   3.634138   2.285839   1.022168
     8  H    3.836510   4.618247   4.016375   2.832851   1.020613
     9  H    2.097630   1.093486   2.406187   2.944362   4.854831
    10  H    2.097467   1.093510   2.938598   2.401967   3.888221
    11  H    2.102904   1.093750   2.367711   2.363451   3.823956
                    6          7          8          9         10
     6  H    0.000000
     7  H    1.622770   0.000000
     8  H    1.624232   1.624110   0.000000
     9  H    5.102339   5.183542   5.636798   0.000000
    10  H    3.827669   4.252073   4.783728   1.773586   0.000000
    11  H    4.002564   4.456877   4.450348   1.777329   1.777204
                   11
    11  H    0.000000
 Stoichiometry    CH8N2
 Framework group  C1[X(CH8N2)]
 Deg. of freedom    27
 Full point group                 C1      NOp   1
 Largest Abelian subgroup         C1      NOp   1
 Largest concise Abelian subgroup C1      NOp   1
                         Standard orientation:                         
 ---------------------------------------------------------------------
 Center     Atomic      Atomic             Coordinates (Angstroms)
 Number     Number       Type             X           Y           Z
 ---------------------------------------------------------------------
      1          7           0        0.809737    0.685613   -0.142045
      2          6           0        1.689044   -0.456900    0.028665
      3          1           0        0.928996    1.321111    0.645212
      4          1           0       -0.167126    0.361441   -0.062748
      5          7           0       -2.120542   -0.132381    0.047567
      6          1           0       -2.271199   -1.053158   -0.367194
      7          1           0       -2.358587    0.534938   -0.689215
      8          1           0       -2.852149   -0.029033    0.751642
      9          1           0        2.734111   -0.135899    0.006138
     10          1           0        1.532266   -1.177784   -0.778498
     11          1           0        1.495056   -0.952838    0.984020
 ---------------------------------------------------------------------
 Rotational constants (GHZ):          27.4260086           3.5617247           3.2941245
 Standard basis: Aug-CC-pVDZ (5D, 7F)
 There are   147 symmetry adapted cartesian basis functions of A   symmetry.
 There are   141 symmetry adapted basis functions of A   symmetry.
   141 basis functions,   217 primitive gaussians,   147 cartesian basis functions
    14 alpha electrons       14 beta electrons
       nuclear repulsion energy        81.3743243333 Hartrees.
 NAtoms=   11 NActive=   11 NUniq=   11 SFac= 1.00D+00 NAtFMM=   60 NAOKFM=F Big=F
 Integral buffers will be    131072 words long.
 Raffenetti 1 integral format.
 Two-electron integral symmetry is turned on.
 One-electron integrals computed using PRISM.
 NBasis=   141 RedAO= T EigKep=  3.71D-04  NBF=   141
 NBsUse=   141 1.00D-06 EigRej= -1.00D+00 NBFU=   141
 ExpMin= 2.97D-02 ExpMax= 9.05D+03 ExpMxC= 3.09D+02 IAcc=3 IRadAn=         5 AccDes= 0.00D+00
 Harris functional with IExCor=  205 and IRadAn=       5 diagonalized for initial guess.
 HarFok:  IExCor=  205 AccDes= 0.00D+00 IRadAn=         5 IDoV= 1 UseB2=F ITyADJ=14
 ICtDFT=  3500011 ScaDFX=  1.000000  1.000000  1.000000  1.000000
 FoFCou: FMM=F IPFlag=           0 FMFlag=      100000 FMFlg1=           0
         NFxFlg=           0 DoJE=T BraDBF=F KetDBF=T FulRan=T
         wScrn=  0.000000 ICntrl=       500 IOpCl=  0 I1Cent=   200000004 NGrid=           0
         NMat0=    1 NMatS0=      1 NMatT0=    0 NMatD0=    1 NMtDS0=    0 NMtDT0=    0
 Petite list used in FoFCou.
 Keep R1 ints in memory in canonical form, NReq=56187519.
 Requested convergence on RMS density matrix=1.00D-08 within 128 cycles.
 Requested convergence on MAX density matrix=1.00D-06.
 Requested convergence on             energy=1.00D-06.
 No special actions if energy rises.
 SCF Done:  E(RHF) =  -151.434070346     A.U. after   12 cycles
            NFock= 12  Conv=0.35D-08     -V/T= 2.0019
 ExpMin= 2.97D-02 ExpMax= 9.05D+03 ExpMxC= 3.09D+02 IAcc=3 IRadAn=         5 AccDes= 0.00D+00
 HarFok:  IExCor=  205 AccDes= 0.00D+00 IRadAn=         5 IDoV=-2 UseB2=F ITyADJ=14
 ICtDFT= 12500011 ScaDFX=  1.000000  1.000000  1.000000  1.000000
 Range of M.O.s used for correlation:     4   141
 NBasis=   141 NAE=    14 NBE=    14 NFC=     3 NFV=     0
 NROrb=    138 NOA=    11 NOB=    11 NVA=   127 NVB=   127

 **** Warning!!: The largest alpha MO coefficient is  0.12935207D+02

 Fully direct method using O(ONN) memory.
 JobTyp=1 Pass  1:  I=   4 to  14 NPSUse= 28 ParTrn=T ParDer=T DoDerP=T.
 Spin components of T(2) and E(2):
     alpha-alpha T2 =       0.2101216041D-01 E2=     -0.6329700209D-01
     alpha-beta  T2 =       0.1326876522D+00 E2=     -0.4210842834D+00
     beta-beta   T2 =       0.2101216041D-01 E2=     -0.6329700209D-01
 ANorm=    0.1083841304D+01
 E2 =    -0.5476782876D+00 EUMP2 =    -0.15198174863339D+03
          IDoAtm=11111111111
          Differentiating once with respect to electric field.
                with respect to dipole field.
          Differentiating once with respect to nuclear coordinates.
 Keep R1 ints in memory in canonical form, NReq=56193480.
          There are     1 degrees of freedom in the 1st order CPHF.  IDoFFX=0 NUNeed=     1.
 LinEq1:  Iter=  0 NonCon=     1 RMS=3.46D-03 Max=2.94D-02 NDo=     1
 AX will form     1 AO Fock derivatives at one time.
 LinEq1:  Iter=  1 NonCon=     1 RMS=5.01D-04 Max=4.06D-03 NDo=     1
 LinEq1:  Iter=  2 NonCon=     1 RMS=1.92D-04 Max=1.23D-03 NDo=     1
 LinEq1:  Iter=  3 NonCon=     1 RMS=3.63D-05 Max=2.16D-04 NDo=     1
 LinEq1:  Iter=  4 NonCon=     1 RMS=1.27D-05 Max=1.00D-04 NDo=     1
 LinEq1:  Iter=  5 NonCon=     1 RMS=3.13D-06 Max=2.72D-05 NDo=     1
 LinEq1:  Iter=  6 NonCon=     1 RMS=6.16D-07 Max=6.86D-06 NDo=     1
 LinEq1:  Iter=  7 NonCon=     1 RMS=1.56D-07 Max=1.73D-06 NDo=     1
 LinEq1:  Iter=  8 NonCon=     1 RMS=5.69D-08 Max=4.74D-07 NDo=     1
 LinEq1:  Iter=  9 NonCon=     1 RMS=1.22D-08 Max=8.32D-08 NDo=     1
 LinEq1:  Iter= 10 NonCon=     1 RMS=2.45D-09 Max=1.48D-08 NDo=     1
 LinEq1:  Iter= 11 NonCon=     1 RMS=5.12D-10 Max=3.31D-09 NDo=     1
 LinEq1:  Iter= 12 NonCon=     0 RMS=9.23D-11 Max=6.96D-10 NDo=     1
 Linear equations converged to 1.000D-10 1.000D-09 after    12 iterations.
 End of Minotr F.D. properties file   721 does not exist.
 End of Minotr F.D. properties file   722 does not exist.
 End of Minotr F.D. properties file   788 does not exist.

 **********************************************************************

            Population analysis using the SCF density.

 **********************************************************************

 Orbital symmetries:
       Occupied  (A) (A) (A) (A) (A) (A) (A) (A) (A) (A) (A) (A)
                 (A) (A)
       Virtual   (A) (A) (A) (A) (A) (A) (A) (A) (A) (A) (A) (A)
                 (A) (A) (A) (A) (A) (A) (A) (A) (A) (A) (A) (A)
                 (A) (A) (A) (A) (A) (A) (A) (A) (A) (A) (A) (A)
                 (A) (A) (A) (A) (A) (A) (A) (A) (A) (A) (A) (A)
                 (A) (A) (A) (A) (A) (A) (A) (A) (A) (A) (A) (A)
                 (A) (A) (A) (A) (A) (A) (A) (A) (A) (A) (A) (A)
                 (A) (A) (A) (A) (A) (A) (A) (A) (A) (A) (A) (A)
                 (A) (A) (A) (A) (A) (A) (A) (A) (A) (A) (A) (A)
                 (A) (A) (A) (A) (A) (A) (A) (A) (A) (A) (A) (A)
                 (A) (A) (A) (A) (A) (A) (A) (A) (A) (A) (A) (A)
                 (A) (A) (A) (A) (A) (A) (A)
 The electronic state is 1-A.
 Alpha  occ. eigenvalues --  -15.56947 -15.51709 -11.23048  -1.16103  -1.14633
 Alpha  occ. eigenvalues --   -0.87230  -0.64645  -0.63867  -0.62930  -0.58360
 Alpha  occ. eigenvalues --   -0.53916  -0.49995  -0.44345  -0.36359
 Alpha virt. eigenvalues --    0.02947   0.04927   0.05177   0.05665   0.07100
 Alpha virt. eigenvalues --    0.07474   0.07887   0.10451   0.13132   0.16424
 Alpha virt. eigenvalues --    0.16487   0.17511   0.18580   0.19259   0.19962
 Alpha virt. eigenvalues --    0.20188   0.22370   0.23579   0.26339   0.27824
 Alpha virt. eigenvalues --    0.28630   0.30406   0.32033   0.32411   0.34580
 Alpha virt. eigenvalues --    0.36439   0.38015   0.39473   0.40854   0.44863
 Alpha virt. eigenvalues --    0.45320   0.45812   0.46867   0.48552   0.49573
 Alpha virt. eigenvalues --    0.50608   0.52072   0.52720   0.54556   0.54776
 Alpha virt. eigenvalues --    0.56100   0.56299   0.58777   0.59965   0.61907
 Alpha virt. eigenvalues --    0.63210   0.64259   0.65149   0.66453   0.66976
 Alpha virt. eigenvalues --    0.68042   0.69031   0.70461   0.72177   0.73926
 Alpha virt. eigenvalues --    0.75473   0.77501   0.78894   0.79843   0.86067
 Alpha virt. eigenvalues --    0.91089   0.93795   0.94802   0.97356   1.02976
 Alpha virt. eigenvalues --    1.05055   1.06869   1.08223   1.13410   1.15667
 Alpha virt. eigenvalues --    1.19093   1.22678   1.23851   1.28486   1.36641
 Alpha virt. eigenvalues --    1.37578   1.41893   1.47122   1.62999   1.64725
 Alpha virt. eigenvalues --    1.75842   1.76821   1.79370   1.81446   1.91230
 Alpha virt. eigenvalues --    1.91408   1.93902   1.95338   1.96825   1.98490
 Alpha virt. eigenvalues --    2.05165   2.08322   2.10697   2.13033   2.15721
 Alpha virt. eigenvalues --    2.17836   2.19567   2.23964   2.31228   2.34766
 Alpha virt. eigenvalues --    2.37033   2.38636   2.39471   2.40357   2.41764
 Alpha virt. eigenvalues --    2.43722   2.48572   2.53838   2.58410   2.61750
 Alpha virt. eigenvalues --    2.64502   2.72932   2.80140   2.85288   2.89127
 Alpha virt. eigenvalues --    2.90389   2.91969   2.93742   2.97310   3.07428
 Alpha virt. eigenvalues --    3.10291   3.11465   3.15064   3.44613   3.53791
 Alpha virt. eigenvalues --    3.58370   3.74510
          Condensed to atoms (all electrons):
               1          2          3          4          5          6
     1  N    6.623128   0.223721   0.331863   0.384179  -0.037198   0.001151
     2  C    0.223721   3.972746  -0.040718  -0.078088   0.009730  -0.001840
     3  H    0.331863  -0.040718   0.775272  -0.058894   0.002013  -0.000708
     4  H    0.384179  -0.078088  -0.058894   0.804950  -0.089566  -0.009548
     5  N   -0.037198   0.009730   0.002013  -0.089566   6.144039   0.395959
     6  H    0.001151  -0.001840  -0.000708  -0.009548   0.395959   0.698902
     7  H   -0.001439  -0.000884  -0.000831  -0.012913   0.427979  -0.048573
     8  H   -0.001033   0.001247   0.000368   0.007230   0.374160  -0.092762
     9  H   -0.094595   0.419054  -0.019642   0.039506  -0.003969  -0.000431
    10  H   -0.098777   0.396271   0.038325  -0.020937   0.007524   0.000177
    11  H    0.045731   0.309806  -0.042195  -0.038647   0.001433   0.001237
               7          8          9         10         11
     1  N   -0.001439  -0.001033  -0.094595  -0.098777   0.045731
     2  C   -0.000884   0.001247   0.419054   0.396271   0.309806
     3  H   -0.000831   0.000368  -0.019642   0.038325  -0.042195
     4  H   -0.012913   0.007230   0.039506  -0.020937  -0.038647
     5  N    0.427979   0.374160  -0.003969   0.007524   0.001433
     6  H   -0.048573  -0.092762  -0.000431   0.000177   0.001237
     7  H    0.691629  -0.080045  -0.000084   0.000933   0.000073
     8  H   -0.080045   0.721183   0.000189  -0.000513  -0.000784
     9  H   -0.000084   0.000189   1.176347  -0.174691  -0.171621
    10  H    0.000933  -0.000513  -0.174691   1.125065  -0.140078
    11  H    0.000073  -0.000784  -0.171621  -0.140078   1.151023
 Mulliken charges:
               1
     1  N   -0.376732
     2  C    0.788955
     3  H    0.015147
     4  H    0.072727
     5  N   -0.232105
     6  H    0.056437
     7  H    0.024154
     8  H    0.070758
     9  H   -0.170063
    10  H   -0.133299
    11  H   -0.115978
 Sum of Mulliken charges =  -0.00000
 Mulliken charges with hydrogens summed into heavy atoms:
               1
     1  N   -0.288858
     2  C    0.369614
     5  N   -0.080756
 Electronic spatial extent (au):  <R**2>=            395.5850
 Charge=             -0.0000 electrons
 Dipole moment (field-independent basis, Debye):
    X=             -2.5846    Y=             -0.9232    Z=              0.7718  Tot=              2.8510
 Quadrupole moment (field-independent basis, Debye-Ang):
   XX=            -15.3552   YY=            -21.4599   ZZ=            -21.7987
   XY=             -0.2130   XZ=              1.6870   YZ=              2.3840
 Traceless Quadrupole moment (field-independent basis, Debye-Ang):
   XX=              4.1828   YY=             -1.9220   ZZ=             -2.2608
   XY=             -0.2130   XZ=              1.6870   YZ=              2.3840
 Octapole moment (field-independent basis, Debye-Ang**2):
  XXX=            -22.7204  YYY=             -0.6584  ZZZ=              1.5055  XYY=             -6.2232
  XXY=              0.2871  XXZ=              2.4779  XZZ=             -5.5939  YZZ=             -0.4569
  YYZ=              1.7045  XYZ=              2.6257
 Hexadecapole moment (field-independent basis, Debye-Ang**3):
 XXXX=           -364.6287 YYYY=            -68.4090 ZZZZ=            -36.9466 XXXY=              3.9736
 XXXZ=             -9.4421 YYYX=              4.9826 YYYZ=              6.5654 ZZZX=              0.9169
 ZZZY=              2.7577 XXYY=            -75.1718 XXZZ=            -68.6869 YYZZ=            -17.2121
 XXYZ=              2.2624 YYXZ=              4.5462 ZZXY=             -0.5913
 N-N= 8.137432433333D+01 E-N=-5.170862014247D+02  KE= 1.511511135746D+02
 Calling FoFJK, ICntrl=  10002127 FMM=F ISym2X=0 I1Cent= 0 IOpClX= 0 NMat=1 NMatS=1 NMatT=0.
 ***** Axes restored to original set *****
 -------------------------------------------------------------------
 Center     Atomic                   Forces (Hartrees/Bohr)
 Number     Number              X              Y              Z
 -------------------------------------------------------------------
      1        7          -0.015748745    0.008271422    0.003289319
      2        6           0.001838284   -0.001833832   -0.005390220
      3        1          -0.000804235   -0.002320098    0.000437865
      4        1           0.001281186   -0.008249260    0.002299050
      5        7          -0.002785535    0.006195990    0.000177993
      6        1           0.000789398    0.000030391    0.000011162
      7        1           0.000029193   -0.000326042    0.000080704
      8        1           0.000347152   -0.001063410   -0.001022072
      9        1           0.002307184   -0.003499345    0.002577851
     10        1           0.001467996    0.002793457    0.003238014
     11        1           0.011278120    0.000000726   -0.005699667
 -------------------------------------------------------------------
 Cartesian Forces:  Max     0.015748745 RMS     0.004598447

 GradGradGradGradGradGradGradGradGradGradGradGradGradGradGradGradGradGrad
 Berny optimization.
 FormGI is forming the generalized inverse of G from B-inverse, IUseBI=4.
 Internal  Forces:  Max     0.016971857 RMS     0.004287784
 Search for a local minimum.
 Step number   1 out of a maximum of   49
 All quantities printed in internal units (Hartrees-Bohrs-Radians)
 Mixed Optimization -- RFO/linear search
 Second derivative matrix not updated -- first step.
 ITU=  0
     Eigenvalues ---    0.00230   0.00230   0.00230   0.01007   0.03292
     Eigenvalues ---    0.04144   0.04189   0.07470   0.07536   0.08176
     Eigenvalues ---    0.10575   0.16000   0.16000   0.16000   0.16000
     Eigenvalues ---    0.16000   0.16000   0.16000   0.34383   0.34410
     Eigenvalues ---    0.34413   0.38013   0.42432   0.43994   0.44170
     Eigenvalues ---    0.44240   0.44538
 RFO step:  Lambda=-4.66419723D-03 EMin= 2.30000000D-03
 Linear search not attempted -- first point.
 Maximum step size (   0.300) exceeded in Quadratic search.
    -- Step size scaled by   0.725
 Iteration  1 RMS(Cart)=  0.09992822 RMS(Int)=  0.01086744
 Iteration  2 RMS(Cart)=  0.02302670 RMS(Int)=  0.00169390
 Iteration  3 RMS(Cart)=  0.00050756 RMS(Int)=  0.00166688
 Iteration  4 RMS(Cart)=  0.00000188 RMS(Int)=  0.00166688
 Iteration  5 RMS(Cart)=  0.00000001 RMS(Int)=  0.00166688
 Variable       Old X    -DE/DX   Delta X   Delta X   Delta X     New X
                                 (Linear)    (Quad)   (Total)
    R1        2.74346   0.01697   0.00000   0.03198   0.03196   2.77542
    R2        1.92516   0.00167   0.00000   0.00268   0.00268   1.92784
    R3        1.95076  -0.00353   0.00000  -0.00599  -0.00583   1.94493
    R4        2.06639   0.00471   0.00000   0.00978   0.00978   2.07617
    R5        2.06643   0.00443   0.00000   0.00920   0.00920   2.07563
    R6        2.06689   0.00946   0.00000   0.01967   0.01967   2.08656
    R7        3.81325   0.00494   0.00000   0.07716   0.07711   3.89036
    R8        1.92952   0.00053   0.00000   0.00085   0.00085   1.93037
    R9        1.93162   0.00000   0.00000   0.00001   0.00001   1.93163
   R10        1.92868   0.00049   0.00000   0.00080   0.00080   1.92948
    A1        1.90620  -0.00105   0.00000  -0.00073  -0.00635   1.89985
    A2        1.89335   0.00236   0.00000   0.01395   0.01200   1.90535
    A3        1.82070   0.00055   0.00000   0.01016   0.01091   1.83161
    A4        1.92347  -0.00071   0.00000  -0.00533  -0.00573   1.91774
    A5        1.92322  -0.00325   0.00000  -0.01829  -0.01841   1.90481
    A6        1.93063   0.01307   0.00000   0.06375   0.06348   1.99412
    A7        1.89161  -0.00126   0.00000  -0.01772  -0.01803   1.87359
    A8        1.89717  -0.00430   0.00000  -0.01126  -0.01170   1.88547
    A9        1.89694  -0.00388   0.00000  -0.01280  -0.01275   1.88419
   A10        1.91911  -0.00002   0.00000  -0.00232  -0.00317   1.91595
   A11        1.59707   0.00011   0.00000   0.00423   0.00546   1.60253
   A12        2.35585  -0.00165   0.00000  -0.00863  -0.00875   2.34710
   A13        1.83545   0.00054   0.00000   0.00562   0.00406   1.83951
   A14        1.83980   0.00083   0.00000   0.00076  -0.00009   1.83971
   A15        1.83818   0.00072   0.00000   0.00666   0.00892   1.84710
   A16        3.21457   0.00137   0.00000   0.10608   0.10319   3.31777
   A17        3.11744   0.00245   0.00000   0.25592   0.25424   3.37168
    D1       -1.11160  -0.00149   0.00000  -0.00787  -0.00941  -1.12101
    D2        3.08480   0.00257   0.00000   0.02899   0.02734   3.11215
    D3        0.98683   0.00111   0.00000   0.01575   0.01437   1.00120
    D4       -3.08590  -0.00284   0.00000  -0.02673  -0.02527  -3.11117
    D5        1.11051   0.00123   0.00000   0.01013   0.01149   1.12199
    D6       -0.98747  -0.00023   0.00000  -0.00311  -0.00149  -0.98896
    D7       -0.62931   0.00078   0.00000   0.02599   0.02876  -0.60055
    D8       -2.48565   0.00039   0.00000   0.04450   0.04525  -2.44040
    D9        1.84097   0.00017   0.00000   0.05623   0.05935   1.90032
   D10       -2.67397  -0.00019   0.00000  -0.06570  -0.06740  -2.74137
   D11        1.75287  -0.00057   0.00000  -0.04719  -0.05091   1.70196
   D12       -0.20369  -0.00080   0.00000  -0.03547  -0.03681  -0.24050
         Item               Value     Threshold  Converged?
 Maximum Force            0.016972     0.000450     NO 
 RMS     Force            0.004288     0.000300     NO 
 Maximum Displacement     0.328051     0.001800     NO 
 RMS     Displacement     0.114847     0.001200     NO 
 Predicted change in Energy=-2.392802D-03
 GradGradGradGradGradGradGradGradGradGradGradGradGradGradGradGradGradGrad

                          Input orientation:                          
 ---------------------------------------------------------------------
 Center     Atomic      Atomic             Coordinates (Angstroms)
 Number     Number       Type             X           Y           Z
 ---------------------------------------------------------------------
      1          7           0        1.161471    1.563583   -0.085920
      2          6           0        2.622935    1.432570   -0.022653
      3          1           0        0.781175    0.768695   -0.600000
      4          1           0        0.920288    2.387101   -0.654185
      5          7           0        0.260754    4.220075   -1.320086
      6          1           0        0.928087    4.945643   -1.052325
      7          1           0       -0.473140    4.250680   -0.609243
      8          1           0       -0.172300    4.554569   -2.182114
      9          1           0        2.893166    0.538493    0.555847
     10          1           0        3.039925    2.301705    0.503806
     11          1           0        3.115234    1.363384   -1.008563
 ---------------------------------------------------------------------
                    Distance matrix (angstroms):
                    1          2          3          4          5
     1  N    0.000000
     2  C    1.468688   0.000000
     3  H    1.020171   2.041112   0.000000
     4  H    1.029212   2.051577   1.625277   0.000000
     5  N    3.064541   3.877295   3.563900   2.058690   0.000000
     6  H    3.525158   4.034157   4.203936   2.589346   1.021508
     7  H    3.188466   4.227471   3.701028   2.327357   1.022172
     8  H    3.888313   4.714180   4.212486   2.868141   1.021036
     9  H    2.112213   1.098663   2.418571   2.962057   4.899262
    10  H    2.102663   1.098379   2.944564   2.416836   3.838036
    11  H    2.169917   1.104158   2.443033   2.447727   4.050405
                    6          7          8          9         10
     6  H    0.000000
     7  H    1.625649   0.000000
     8  H    1.624874   1.629963   0.000000
     9  H    5.086328   5.144880   5.746511   0.000000
    10  H    3.724488   4.168814   4.754782   1.770074   0.000000
    11  H    4.197392   4.623025   4.729562   1.782453   1.781398
                   11
    11  H    0.000000
 Stoichiometry    CH8N2
 Framework group  C1[X(CH8N2)]
 Deg. of freedom    27
 Full point group                 C1      NOp   1
 Largest Abelian subgroup         C1      NOp   1
 Largest concise Abelian subgroup C1      NOp   1
                         Standard orientation:                         
 ---------------------------------------------------------------------
 Center     Atomic      Atomic             Coordinates (Angstroms)
 Number     Number       Type             X           Y           Z
 ---------------------------------------------------------------------
      1          7           0        0.796577    0.680383   -0.133870
      2          6           0        1.711021   -0.457580    0.026993
      3          1           0        1.028756    1.390614    0.560691
      4          1           0       -0.159669    0.381413    0.101687
      5          7           0       -2.152543   -0.132327    0.049445
      6          1           0       -2.258862   -1.063572   -0.356704
      7          1           0       -2.334147    0.520030   -0.716248
      8          1           0       -2.935539   -0.027485    0.696314
      9          1           0        2.740771   -0.143155   -0.191669
     10          1           0        1.445767   -1.238082   -0.698881
     11          1           0        1.698555   -0.910673    1.033828
 ---------------------------------------------------------------------
 Rotational constants (GHZ):          27.3708470           3.4804889           3.2176680
 Standard basis: Aug-CC-pVDZ (5D, 7F)
 There are   147 symmetry adapted cartesian basis functions of A   symmetry.
 There are   141 symmetry adapted basis functions of A   symmetry.
   141 basis functions,   217 primitive gaussians,   147 cartesian basis functions
    14 alpha electrons       14 beta electrons
       nuclear repulsion energy        80.7332462009 Hartrees.
 NAtoms=   11 NActive=   11 NUniq=   11 SFac= 1.00D+00 NAtFMM=   60 NAOKFM=F Big=F
 Integral buffers will be    131072 words long.
 Raffenetti 1 integral format.
 Two-electron integral symmetry is turned on.
 One-electron integrals computed using PRISM.
 NBasis=   141 RedAO= T EigKep=  4.20D-04  NBF=   141
 NBsUse=   141 1.00D-06 EigRej= -1.00D+00 NBFU=   141
 Initial guess from the checkpoint file:  "/gscratch/scrubbed/gds001/Gau-30212.chk"
 B after Tr=    -0.000000   -0.000000   -0.000000
         Rot=    0.999935    0.011073   -0.002828   -0.000408 Ang=   1.31 deg.
 ExpMin= 2.97D-02 ExpMax= 9.05D+03 ExpMxC= 3.09D+02 IAcc=3 IRadAn=         5 AccDes= 0.00D+00
 Harris functional with IExCor=  205 and IRadAn=       5 diagonalized for initial guess.
 HarFok:  IExCor=  205 AccDes= 0.00D+00 IRadAn=         5 IDoV= 1 UseB2=F ITyADJ=14
 ICtDFT=  3500011 ScaDFX=  1.000000  1.000000  1.000000  1.000000
 FoFCou: FMM=F IPFlag=           0 FMFlag=      100000 FMFlg1=           0
         NFxFlg=           0 DoJE=T BraDBF=F KetDBF=T FulRan=T
         wScrn=  0.000000 ICntrl=       500 IOpCl=  0 I1Cent=   200000004 NGrid=           0
         NMat0=    1 NMatS0=      1 NMatT0=    0 NMatD0=    1 NMtDS0=    0 NMtDT0=    0
 Petite list used in FoFCou.
 Keep R1 ints in memory in canonical form, NReq=56186155.
 Requested convergence on RMS density matrix=1.00D-08 within 128 cycles.
 Requested convergence on MAX density matrix=1.00D-06.
 Requested convergence on             energy=1.00D-06.
 No special actions if energy rises.
 SCF Done:  E(RHF) =  -151.435615714     A.U. after   11 cycles
            NFock= 11  Conv=0.27D-08     -V/T= 2.0024
 ExpMin= 2.97D-02 ExpMax= 9.05D+03 ExpMxC= 3.09D+02 IAcc=3 IRadAn=         5 AccDes= 0.00D+00
 HarFok:  IExCor=  205 AccDes= 0.00D+00 IRadAn=         5 IDoV=-2 UseB2=F ITyADJ=14
 ICtDFT= 12500011 ScaDFX=  1.000000  1.000000  1.000000  1.000000
 Range of M.O.s used for correlation:     4   141
 NBasis=   141 NAE=    14 NBE=    14 NFC=     3 NFV=     0
 NROrb=    138 NOA=    11 NOB=    11 NVA=   127 NVB=   127

 **** Warning!!: The largest alpha MO coefficient is  0.12168440D+02

 Fully direct method using O(ONN) memory.
 JobTyp=1 Pass  1:  I=   4 to  14 NPSUse= 28 ParTrn=T ParDer=T DoDerP=T.
 Spin components of T(2) and E(2):
     alpha-alpha T2 =       0.2109506799D-01 E2=     -0.6327761906D-01
     alpha-beta  T2 =       0.1334541514D+00 E2=     -0.4216547562D+00
     beta-beta   T2 =       0.2109506799D-01 E2=     -0.6327761906D-01
 ANorm=    0.1084271316D+01
 E2 =    -0.5482099944D+00 EUMP2 =    -0.15198382570842D+03
          IDoAtm=11111111111
          Differentiating once with respect to electric field.
                with respect to dipole field.
          Differentiating once with respect to nuclear coordinates.
 Keep R1 ints in memory in canonical form, NReq=56192512.
          There are     1 degrees of freedom in the 1st order CPHF.  IDoFFX=0 NUNeed=     1.
 LinEq1:  Iter=  0 NonCon=     1 RMS=3.47D-03 Max=3.13D-02 NDo=     1
 AX will form     1 AO Fock derivatives at one time.
 LinEq1:  Iter=  1 NonCon=     1 RMS=5.11D-04 Max=4.14D-03 NDo=     1
 LinEq1:  Iter=  2 NonCon=     1 RMS=2.00D-04 Max=1.43D-03 NDo=     1
 LinEq1:  Iter=  3 NonCon=     1 RMS=3.73D-05 Max=2.52D-04 NDo=     1
 LinEq1:  Iter=  4 NonCon=     1 RMS=1.33D-05 Max=1.10D-04 NDo=     1
 LinEq1:  Iter=  5 NonCon=     1 RMS=3.28D-06 Max=2.71D-05 NDo=     1
 LinEq1:  Iter=  6 NonCon=     1 RMS=6.57D-07 Max=6.82D-06 NDo=     1
 LinEq1:  Iter=  7 NonCon=     1 RMS=1.55D-07 Max=1.62D-06 NDo=     1
 LinEq1:  Iter=  8 NonCon=     1 RMS=5.77D-08 Max=5.14D-07 NDo=     1
 LinEq1:  Iter=  9 NonCon=     1 RMS=1.32D-08 Max=8.63D-08 NDo=     1
 LinEq1:  Iter= 10 NonCon=     1 RMS=2.71D-09 Max=1.80D-08 NDo=     1
 LinEq1:  Iter= 11 NonCon=     1 RMS=5.47D-10 Max=4.02D-09 NDo=     1
 LinEq1:  Iter= 12 NonCon=     0 RMS=9.83D-11 Max=6.63D-10 NDo=     1
 Linear equations converged to 1.000D-10 1.000D-09 after    12 iterations.
 End of Minotr F.D. properties file   721 does not exist.
 End of Minotr F.D. properties file   722 does not exist.
 End of Minotr F.D. properties file   788 does not exist.
 Calling FoFJK, ICntrl=  10002127 FMM=F ISym2X=0 I1Cent= 0 IOpClX= 0 NMat=1 NMatS=1 NMatT=0.
 ***** Axes restored to original set *****
 -------------------------------------------------------------------
 Center     Atomic                   Forces (Hartrees/Bohr)
 Number     Number              X              Y              Z
 -------------------------------------------------------------------
      1        7          -0.002202005    0.001841338   -0.002531373
      2        6           0.000071302   -0.000109017   -0.000927307
      3        1          -0.000747124   -0.001344303    0.000976257
      4        1           0.001230851   -0.003807715    0.002595050
      5        7          -0.001718793    0.005107174   -0.000336991
      6        1           0.000361950   -0.000532121    0.000142700
      7        1           0.000352720   -0.000395032   -0.000364870
      8        1          -0.000009945   -0.000881212   -0.000242114
      9        1           0.000175899   -0.001029704    0.000945061
     10        1           0.000520792    0.001261637    0.000906697
     11        1           0.001964353   -0.000111046   -0.001163110
 -------------------------------------------------------------------
 Cartesian Forces:  Max     0.005107174 RMS     0.001579395

 GradGradGradGradGradGradGradGradGradGradGradGradGradGradGradGradGradGrad
 Berny optimization.
 Using GEDIIS/GDIIS optimizer.
 FormGI is forming the generalized inverse of G from B-inverse, IUseBI=4.
 Internal  Forces:  Max     0.003507054 RMS     0.001042665
 Search for a local minimum.
 Step number   2 out of a maximum of   49
 All quantities printed in internal units (Hartrees-Bohrs-Radians)
 Mixed Optimization -- RFO/linear search
 Update second derivatives using D2CorX and points    1    2
 DE= -2.08D-03 DEPred=-2.39D-03 R= 8.68D-01
 TightC=F SS=  1.41D+00  RLast= 3.24D-01 DXNew= 5.0454D-01 9.7261D-01
 Trust test= 8.68D-01 RLast= 3.24D-01 DXMaxT set to 5.05D-01
 ITU=  1  0
 Use linear search instead of GDIIS.
     Eigenvalues ---    0.00228   0.00230   0.00338   0.01007   0.02892
     Eigenvalues ---    0.03641   0.03978   0.07051   0.07742   0.08237
     Eigenvalues ---    0.11080   0.15615   0.16000   0.16000   0.16000
     Eigenvalues ---    0.16000   0.16000   0.17226   0.33832   0.34411
     Eigenvalues ---    0.34493   0.38590   0.42322   0.44023   0.44182
     Eigenvalues ---    0.44253   0.44513
 RFO step:  Lambda=-5.22886489D-04 EMin= 2.27949311D-03
 Quartic linear search produced a step of  0.34497.
 Iteration  1 RMS(Cart)=  0.11448086 RMS(Int)=  0.00639363
 Iteration  2 RMS(Cart)=  0.01446023 RMS(Int)=  0.00045272
 Iteration  3 RMS(Cart)=  0.00008788 RMS(Int)=  0.00044913
 Iteration  4 RMS(Cart)=  0.00000006 RMS(Int)=  0.00044913
 Variable       Old X    -DE/DX   Delta X   Delta X   Delta X     New X
                                 (Linear)    (Quad)   (Total)
    R1        2.77542   0.00269   0.01102  -0.00078   0.01022   2.78563
    R2        1.92784   0.00083   0.00093   0.00166   0.00258   1.93043
    R3        1.94493  -0.00144  -0.00201  -0.00267  -0.00468   1.94025
    R4        2.07617   0.00138   0.00337   0.00223   0.00561   2.08178
    R5        2.07563   0.00163   0.00317   0.00341   0.00658   2.08222
    R6        2.08656   0.00196   0.00678   0.00130   0.00812   2.09468
    R7        3.89036   0.00351   0.02660   0.08459   0.11119   4.00155
    R8        1.93037  -0.00010   0.00029  -0.00059  -0.00030   1.93007
    R9        1.93163  -0.00052   0.00000  -0.00159  -0.00159   1.93004
   R10        1.92948  -0.00008   0.00028  -0.00050  -0.00023   1.92925
    A1        1.89985   0.00011  -0.00219   0.01315   0.00998   1.90983
    A2        1.90535  -0.00014   0.00414   0.00302   0.00669   1.91204
    A3        1.83161   0.00089   0.00376   0.01950   0.02319   1.85480
    A4        1.91774  -0.00061  -0.00198  -0.00422  -0.00635   1.91139
    A5        1.90481  -0.00052  -0.00635   0.00058  -0.00583   1.89898
    A6        1.99412   0.00201   0.02190  -0.00190   0.01984   2.01396
    A7        1.87359  -0.00003  -0.00622   0.00175  -0.00463   1.86896
    A8        1.88547  -0.00042  -0.00404   0.00262  -0.00156   1.88391
    A9        1.88419  -0.00053  -0.00440   0.00149  -0.00287   1.88132
   A10        1.91595  -0.00030  -0.00109  -0.00206  -0.00389   1.91206
   A11        1.60253  -0.00028   0.00189  -0.00314  -0.00025   1.60228
   A12        2.34710  -0.00089  -0.00302  -0.00512  -0.00847   2.33863
   A13        1.83951   0.00035   0.00140   0.00328   0.00544   1.84495
   A14        1.83971   0.00098  -0.00003   0.00737   0.00649   1.84620
   A15        1.84710   0.00030   0.00308   0.00019   0.00426   1.85136
   A16        3.31777  -0.00043   0.03560  -0.17468  -0.13993   3.17783
   A17        3.37168   0.00046   0.08770   0.09852   0.18591   3.55759
    D1       -1.12101   0.00014  -0.00325   0.01442   0.01102  -1.10999
    D2        3.11215   0.00084   0.00943   0.01439   0.02359   3.13573
    D3        1.00120   0.00055   0.00496   0.01333   0.01816   1.01935
    D4       -3.11117  -0.00089  -0.00872  -0.01726  -0.02581  -3.13697
    D5        1.12199  -0.00019   0.00396  -0.01728  -0.01324   1.10875
    D6       -0.98896  -0.00048  -0.00051  -0.01835  -0.01867  -1.00763
    D7       -0.60055   0.00053   0.00992   0.03191   0.04155  -0.55899
    D8       -2.44040   0.00023   0.01561   0.01678   0.03270  -2.40770
    D9        1.90032   0.00029   0.02048  -0.04171  -0.02046   1.87987
   D10       -2.74137  -0.00017  -0.02325   0.03537   0.01125  -2.73012
   D11        1.70196  -0.00047  -0.01756   0.02024   0.00239   1.70435
   D12       -0.24050  -0.00042  -0.01270  -0.03824  -0.05076  -0.29126
         Item               Value     Threshold  Converged?
 Maximum Force            0.003507     0.000450     NO 
 RMS     Force            0.001043     0.000300     NO 
 Maximum Displacement     0.272594     0.001800     NO 
 RMS     Displacement     0.121128     0.001200     NO 
 Predicted change in Energy=-4.052363D-04
 GradGradGradGradGradGradGradGradGradGradGradGradGradGradGradGradGradGrad

                          Input orientation:                          
 ---------------------------------------------------------------------
 Center     Atomic      Atomic             Coordinates (Angstroms)
 Number     Number       Type             X           Y           Z
 ---------------------------------------------------------------------
      1          7           0        1.121576    1.488044   -0.100126
      2          6           0        2.594923    1.485033   -0.053291
      3          1           0        0.793765    0.624445   -0.536334
      4          1           0        0.798485    2.254828   -0.701660
      5          7           0        0.297809    4.222885   -1.301653
      6          1           0        1.021966    4.870797   -0.987069
      7          1           0       -0.446550    4.280581   -0.604719
      8          1           0       -0.084217    4.627751   -2.157463
      9          1           0        2.941018    0.659209    0.588443
     10          1           0        2.937350    2.422756    0.413097
     11          1           0        3.101469    1.390170   -1.034660
 ---------------------------------------------------------------------
                    Distance matrix (angstroms):
                    1          2          3          4          5
     1  N    0.000000
     2  C    1.474094   0.000000
     3  H    1.021539   2.053805   0.000000
     4  H    1.026736   2.059164   1.638751   0.000000
     5  N    3.098647   3.785627   3.712204   2.117527   0.000000
     6  H    3.498515   3.848315   4.276300   2.640965   1.021350
     7  H    3.242205   4.167700   3.861398   2.379745   1.021331
     8  H    3.942630   4.634869   4.407423   2.920495   1.020916
     9  H    2.114584   1.101631   2.424259   2.966617   4.822739
    10  H    2.105735   1.101861   2.954708   2.417774   3.626019
    11  H    2.191554   1.108455   2.481968   2.482390   3.994505
                    6          7          8          9         10
     6  H    0.000000
     7  H    1.628215   0.000000
     8  H    1.628660   1.631817   0.000000
     9  H    4.889015   5.100352   5.695733   0.000000
    10  H    3.409115   3.992273   4.538684   1.772246   0.000000
    11  H    4.054795   4.596495   4.678805   1.787320   1.785825
                   11
    11  H    0.000000
 Stoichiometry    CH8N2
 Framework group  C1[X(CH8N2)]
 Deg. of freedom    27
 Full point group                 C1      NOp   1
 Largest Abelian subgroup         C1      NOp   1
 Largest concise Abelian subgroup C1      NOp   1
                         Standard orientation:                         
 ---------------------------------------------------------------------
 Center     Atomic      Atomic             Coordinates (Angstroms)
 Number     Number       Type             X           Y           Z
 ---------------------------------------------------------------------
      1          7           0        0.844589    0.724938   -0.122342
      2          6           0        1.633485   -0.511748    0.023278
      3          1           0        1.206150    1.435719    0.516098
      4          1           0       -0.125924    0.548986    0.162847
      5          7           0       -2.131735   -0.120011    0.048456
      6          1           0       -2.156953   -1.056952   -0.357329
      7          1           0       -2.335290    0.520096   -0.720924
      8          1           0       -2.933390   -0.068675    0.678523
      9          1           0        2.675716   -0.321054   -0.278352
     10          1           0        1.231408   -1.272602   -0.664859
     11          1           0        1.647390   -0.949526    1.041527
 ---------------------------------------------------------------------
 Rotational constants (GHZ):          24.8228316           3.5920169           3.2689559
 Standard basis: Aug-CC-pVDZ (5D, 7F)
 There are   147 symmetry adapted cartesian basis functions of A   symmetry.
 There are   141 symmetry adapted basis functions of A   symmetry.
   141 basis functions,   217 primitive gaussians,   147 cartesian basis functions
    14 alpha electrons       14 beta electrons
       nuclear repulsion energy        80.6882801782 Hartrees.
 NAtoms=   11 NActive=   11 NUniq=   11 SFac= 1.00D+00 NAtFMM=   60 NAOKFM=F Big=F
 Integral buffers will be    131072 words long.
 Raffenetti 1 integral format.
 Two-electron integral symmetry is turned on.
 One-electron integrals computed using PRISM.
 NBasis=   141 RedAO= T EigKep=  4.35D-04  NBF=   141
 NBsUse=   141 1.00D-06 EigRej= -1.00D+00 NBFU=   141
 Initial guess from the checkpoint file:  "/gscratch/scrubbed/gds001/Gau-30212.chk"
 B after Tr=     0.000000    0.000000    0.000000
         Rot=    0.999953   -0.000217   -0.001426    0.009637 Ang=  -1.12 deg.
 ExpMin= 2.97D-02 ExpMax= 9.05D+03 ExpMxC= 3.09D+02 IAcc=3 IRadAn=         5 AccDes= 0.00D+00
 Harris functional with IExCor=  205 and IRadAn=       5 diagonalized for initial guess.
 HarFok:  IExCor=  205 AccDes= 0.00D+00 IRadAn=         5 IDoV= 1 UseB2=F ITyADJ=14
 ICtDFT=  3500011 ScaDFX=  1.000000  1.000000  1.000000  1.000000
 FoFCou: FMM=F IPFlag=           0 FMFlag=      100000 FMFlg1=           0
         NFxFlg=           0 DoJE=T BraDBF=F KetDBF=T FulRan=T
         wScrn=  0.000000 ICntrl=       500 IOpCl=  0 I1Cent=   200000004 NGrid=           0
         NMat0=    1 NMatS0=      1 NMatT0=    0 NMatD0=    1 NMtDS0=    0 NMtDT0=    0
 Petite list used in FoFCou.
 Keep R1 ints in memory in canonical form, NReq=56186463.
 Requested convergence on RMS density matrix=1.00D-08 within 128 cycles.
 Requested convergence on MAX density matrix=1.00D-06.
 Requested convergence on             energy=1.00D-06.
 No special actions if energy rises.
 SCF Done:  E(RHF) =  -151.436067753     A.U. after   10 cycles
            NFock= 10  Conv=0.84D-08     -V/T= 2.0026
 ExpMin= 2.97D-02 ExpMax= 9.05D+03 ExpMxC= 3.09D+02 IAcc=3 IRadAn=         5 AccDes= 0.00D+00
 HarFok:  IExCor=  205 AccDes= 0.00D+00 IRadAn=         5 IDoV=-2 UseB2=F ITyADJ=14
 ICtDFT= 12500011 ScaDFX=  1.000000  1.000000  1.000000  1.000000
 Range of M.O.s used for correlation:     4   141
 NBasis=   141 NAE=    14 NBE=    14 NFC=     3 NFV=     0
 NROrb=    138 NOA=    11 NOB=    11 NVA=   127 NVB=   127

 **** Warning!!: The largest alpha MO coefficient is  0.13363875D+02

 Fully direct method using O(ONN) memory.
 JobTyp=1 Pass  1:  I=   4 to  14 NPSUse= 28 ParTrn=T ParDer=T DoDerP=T.
 Spin components of T(2) and E(2):
     alpha-alpha T2 =       0.2111380671D-01 E2=     -0.6322406933D-01
     alpha-beta  T2 =       0.1337327623D+00 E2=     -0.4217644347D+00
     beta-beta   T2 =       0.2111380671D-01 E2=     -0.6322406933D-01
 ANorm=    0.1084417067D+01
 E2 =    -0.5482125733D+00 EUMP2 =    -0.15198428032612D+03
          IDoAtm=11111111111
          Differentiating once with respect to electric field.
                with respect to dipole field.
          Differentiating once with respect to nuclear coordinates.
 Keep R1 ints in memory in canonical form, NReq=56193304.
          There are     1 degrees of freedom in the 1st order CPHF.  IDoFFX=0 NUNeed=     1.
 LinEq1:  Iter=  0 NonCon=     1 RMS=3.48D-03 Max=3.32D-02 NDo=     1
 AX will form     1 AO Fock derivatives at one time.
 LinEq1:  Iter=  1 NonCon=     1 RMS=5.15D-04 Max=3.53D-03 NDo=     1
 LinEq1:  Iter=  2 NonCon=     1 RMS=2.02D-04 Max=1.47D-03 NDo=     1
 LinEq1:  Iter=  3 NonCon=     1 RMS=3.77D-05 Max=2.60D-04 NDo=     1
 LinEq1:  Iter=  4 NonCon=     1 RMS=1.35D-05 Max=1.14D-04 NDo=     1
 LinEq1:  Iter=  5 NonCon=     1 RMS=3.35D-06 Max=2.83D-05 NDo=     1
 LinEq1:  Iter=  6 NonCon=     1 RMS=6.82D-07 Max=6.98D-06 NDo=     1
 LinEq1:  Iter=  7 NonCon=     1 RMS=1.50D-07 Max=1.57D-06 NDo=     1
 LinEq1:  Iter=  8 NonCon=     1 RMS=5.48D-08 Max=4.30D-07 NDo=     1
 LinEq1:  Iter=  9 NonCon=     1 RMS=1.38D-08 Max=9.92D-08 NDo=     1
 LinEq1:  Iter= 10 NonCon=     1 RMS=2.98D-09 Max=2.10D-08 NDo=     1
 LinEq1:  Iter= 11 NonCon=     1 RMS=5.83D-10 Max=4.41D-09 NDo=     1
 LinEq1:  Iter= 12 NonCon=     1 RMS=1.03D-10 Max=7.69D-10 NDo=     1
 LinEq1:  Iter= 13 NonCon=     0 RMS=1.59D-11 Max=1.12D-10 NDo=     1
 Linear equations converged to 1.000D-10 1.000D-09 after    13 iterations.
 End of Minotr F.D. properties file   721 does not exist.
 End of Minotr F.D. properties file   722 does not exist.
 End of Minotr F.D. properties file   788 does not exist.
 Calling FoFJK, ICntrl=  10002127 FMM=F ISym2X=0 I1Cent= 0 IOpClX= 0 NMat=1 NMatS=1 NMatT=0.
 ***** Axes restored to original set *****
 -------------------------------------------------------------------
 Center     Atomic                   Forces (Hartrees/Bohr)
 Number     Number              X              Y              Z
 -------------------------------------------------------------------
      1        7           0.000748071   -0.001150126   -0.001896921
      2        6          -0.000762192    0.000561659    0.000392828
      3        1           0.000312259    0.000726519    0.000861151
      4        1           0.002275343   -0.002270880    0.001340232
      5        7          -0.000911360    0.003229537   -0.000576845
      6        1          -0.000020564   -0.000632521    0.000018429
      7        1           0.000126434    0.000002744   -0.000076579
      8        1           0.000007340   -0.000515056    0.000101254
      9        1          -0.000379333    0.000358629   -0.000332263
     10        1          -0.000284079   -0.000420323   -0.000375367
     11        1          -0.001111919    0.000109818    0.000544081
 -------------------------------------------------------------------
 Cartesian Forces:  Max     0.003229537 RMS     0.001024633

 GradGradGradGradGradGradGradGradGradGradGradGradGradGradGradGradGradGrad
 Berny optimization.
 Using GEDIIS/GDIIS optimizer.
 FormGI is forming the generalized inverse of G from B-inverse, IUseBI=4.
 Internal  Forces:  Max     0.002511041 RMS     0.000734390
 Search for a local minimum.
 Step number   3 out of a maximum of   49
 All quantities printed in internal units (Hartrees-Bohrs-Radians)
 Mixed Optimization -- En-DIIS/RFO-DIIS
 Update second derivatives using D2CorX and points    1    2    3
 DE= -4.55D-04 DEPred=-4.05D-04 R= 1.12D+00
 TightC=F SS=  1.41D+00  RLast= 2.76D-01 DXNew= 8.4853D-01 8.2848D-01
 Trust test= 1.12D+00 RLast= 2.76D-01 DXMaxT set to 8.28D-01
 ITU=  1  1  0
 Use linear search instead of GDIIS.
     Eigenvalues ---    0.00228   0.00290   0.00311   0.01007   0.01826
     Eigenvalues ---    0.03102   0.03980   0.06918   0.07923   0.08289
     Eigenvalues ---    0.10617   0.15368   0.15999   0.16000   0.16000
     Eigenvalues ---    0.16000   0.16065   0.18592   0.34411   0.34446
     Eigenvalues ---    0.34934   0.41746   0.43391   0.44031   0.44208
     Eigenvalues ---    0.44331   0.46973
 RFO step:  Lambda=-3.90958722D-04 EMin= 2.27803457D-03
 Quartic linear search produced a step of  0.18021.
 Iteration  1 RMS(Cart)=  0.09283955 RMS(Int)=  0.00299805
 Iteration  2 RMS(Cart)=  0.00523969 RMS(Int)=  0.00031124
 Iteration  3 RMS(Cart)=  0.00001674 RMS(Int)=  0.00031106
 Iteration  4 RMS(Cart)=  0.00000000 RMS(Int)=  0.00031106
 Variable       Old X    -DE/DX   Delta X   Delta X   Delta X     New X
                                 (Linear)    (Quad)   (Total)
    R1        2.78563  -0.00251   0.00184  -0.00262  -0.00078   2.78485
    R2        1.93043  -0.00108   0.00047  -0.00193  -0.00146   1.92897
    R3        1.94025  -0.00106  -0.00084  -0.00454  -0.00532   1.93494
    R4        2.08178  -0.00058   0.00101   0.00025   0.00126   2.08304
    R5        2.08222  -0.00060   0.00119   0.00038   0.00157   2.08379
    R6        2.09468  -0.00104   0.00146   0.00015   0.00160   2.09628
    R7        4.00155   0.00228   0.02004   0.09729   0.11730   4.11885
    R8        1.93007  -0.00041  -0.00005  -0.00109  -0.00114   1.92893
    R9        1.93004  -0.00014  -0.00029  -0.00080  -0.00108   1.92895
   R10        1.92925  -0.00029  -0.00004  -0.00076  -0.00080   1.92845
    A1        1.90983   0.00038   0.00180   0.00443   0.00535   1.91519
    A2        1.91204  -0.00136   0.00121  -0.00707  -0.00630   1.90574
    A3        1.85480   0.00064   0.00418   0.01327   0.01754   1.87234
    A4        1.91139  -0.00004  -0.00115  -0.00194  -0.00309   1.90829
    A5        1.89898   0.00009  -0.00105  -0.00199  -0.00304   1.89594
    A6        2.01396  -0.00102   0.00358   0.00161   0.00518   2.01914
    A7        1.86896   0.00023  -0.00083   0.00072  -0.00014   1.86882
    A8        1.88391   0.00049  -0.00028   0.00170   0.00141   1.88532
    A9        1.88132   0.00034  -0.00052  -0.00008  -0.00059   1.88073
   A10        1.91206  -0.00044  -0.00070  -0.00624  -0.00667   1.90539
   A11        1.60228   0.00014  -0.00005   0.00399   0.00343   1.60571
   A12        2.33863  -0.00038  -0.00153  -0.00630  -0.00777   2.33086
   A13        1.84495   0.00011   0.00098   0.00396   0.00518   1.85013
   A14        1.84620   0.00052   0.00117   0.00335   0.00482   1.85102
   A15        1.85136   0.00016   0.00077   0.00567   0.00570   1.85706
   A16        3.17783   0.00067  -0.02522   0.17411   0.14864   3.32648
   A17        3.55759  -0.00010   0.03350   0.00055   0.03373   3.59132
    D1       -1.10999   0.00023   0.00199   0.00440   0.00613  -1.10385
    D2        3.13573  -0.00007   0.00425   0.00576   0.00974  -3.13772
    D3        1.01935   0.00012   0.00327   0.00628   0.00927   1.02863
    D4       -3.13697   0.00002  -0.00465  -0.01007  -0.01446   3.13175
    D5        1.10875  -0.00029  -0.00239  -0.00872  -0.01086   1.09789
    D6       -1.00763  -0.00009  -0.00337  -0.00820  -0.01132  -1.01895
    D7       -0.55899   0.00017   0.00749   0.03537   0.04317  -0.51582
    D8       -2.40770   0.00007   0.00589   0.04233   0.04895  -2.35876
    D9        1.87987   0.00004  -0.00369   0.10363   0.10002   1.97988
   D10       -2.73012   0.00009   0.00203  -0.04827  -0.04665  -2.77677
   D11        1.70435  -0.00001   0.00043  -0.04131  -0.04088   1.66348
   D12       -0.29126  -0.00004  -0.00915   0.01999   0.01020  -0.28106
         Item               Value     Threshold  Converged?
 Maximum Force            0.002511     0.000450     NO 
 RMS     Force            0.000734     0.000300     NO 
 Maximum Displacement     0.223849     0.001800     NO 
 RMS     Displacement     0.093865     0.001200     NO 
 Predicted change in Energy=-2.180070D-04
 GradGradGradGradGradGradGradGradGradGradGradGradGradGradGradGradGradGrad

                          Input orientation:                          
 ---------------------------------------------------------------------
 Center     Atomic      Atomic             Coordinates (Angstroms)
 Number     Number       Type             X           Y           Z
 ---------------------------------------------------------------------
      1          7           0        1.156026    1.511805   -0.137949
      2          6           0        2.623796    1.433870   -0.031571
      3          1           0        0.793544    0.648083   -0.543598
      4          1           0        0.904618    2.274842   -0.772763
      5          7           0        0.245286    4.279789   -1.316942
      6          1           0        0.956551    4.954945   -1.033769
      7          1           0       -0.459530    4.287141   -0.578617
      8          1           0       -0.201922    4.671991   -2.146149
      9          1           0        2.896956    0.619543    0.659307
     10          1           0        2.995191    2.372776    0.411656
     11          1           0        3.167078    1.271714   -0.985040
 ---------------------------------------------------------------------
                    Distance matrix (angstroms):
                    1          2          3          4          5
     1  N    0.000000
     2  C    1.473682   0.000000
     3  H    1.020765   2.056564   0.000000
     4  H    1.023924   2.052358   1.646572   0.000000
     5  N    3.143439   3.925397   3.753390   2.179601   0.000000
     6  H    3.563354   4.022695   4.337730   2.693282   1.020745
     7  H    3.241404   4.236427   3.848918   2.438840   1.020757
     8  H    3.982922   4.789734   4.444205   2.976062   1.020491
     9  H    2.112483   1.102297   2.423249   2.959772   4.932982
    10  H    2.103774   1.102692   2.955390   2.404773   3.766527
    11  H    2.195344   1.109303   2.493482   2.483959   4.206607
                    6          7          8          9         10
     6  H    0.000000
     7  H    1.630463   0.000000
     8  H    1.630801   1.634512   0.000000
     9  H    5.042558   5.123450   5.822024   0.000000
    10  H    3.593453   4.071920   4.695774   1.773360   0.000000
    11  H    4.295927   4.733948   4.925466   1.789461   1.786797
                   11
    11  H    0.000000
 Stoichiometry    CH8N2
 Framework group  C1[X(CH8N2)]
 Deg. of freedom    27
 Full point group                 C1      NOp   1
 Largest Abelian subgroup         C1      NOp   1
 Largest concise Abelian subgroup C1      NOp   1
                         Standard orientation:                         
 ---------------------------------------------------------------------
 Center     Atomic      Atomic             Coordinates (Angstroms)
 Number     Number       Type             X           Y           Z
 ---------------------------------------------------------------------
      1          7           0        0.831743    0.692541   -0.118710
      2          6           0        1.709523   -0.482615    0.023591
      3          1           0        1.180356    1.455543    0.462889
      4          1           0       -0.105167    0.455782    0.219764
      5          7           0       -2.199339   -0.123525    0.047983
      6          1           0       -2.254870   -1.077639   -0.310490
      7          1           0       -2.339608    0.488188   -0.757049
      8          1           0       -3.014587   -0.000030    0.649249
      9          1           0        2.716370   -0.233460   -0.349557
     10          1           0        1.319240   -1.293090   -0.614169
     11          1           0        1.814300   -0.882713    1.052909
 ---------------------------------------------------------------------
 Rotational constants (GHZ):          26.3457417           3.3828236           3.1152111
 Standard basis: Aug-CC-pVDZ (5D, 7F)
 There are   147 symmetry adapted cartesian basis functions of A   symmetry.
 There are   141 symmetry adapted basis functions of A   symmetry.
   141 basis functions,   217 primitive gaussians,   147 cartesian basis functions
    14 alpha electrons       14 beta electrons
       nuclear repulsion energy        80.0637700355 Hartrees.
 NAtoms=   11 NActive=   11 NUniq=   11 SFac= 1.00D+00 NAtFMM=   60 NAOKFM=F Big=F
 Integral buffers will be    131072 words long.
 Raffenetti 1 integral format.
 Two-electron integral symmetry is turned on.
 One-electron integrals computed using PRISM.
 NBasis=   141 RedAO= T EigKep=  4.46D-04  NBF=   141
 NBsUse=   141 1.00D-06 EigRej= -1.00D+00 NBFU=   141
 Initial guess from the checkpoint file:  "/gscratch/scrubbed/gds001/Gau-30212.chk"
 B after Tr=     0.000000   -0.000000   -0.000000
         Rot=    0.999934    0.010611   -0.000867   -0.004387 Ang=   1.32 deg.
 ExpMin= 2.97D-02 ExpMax= 9.05D+03 ExpMxC= 3.09D+02 IAcc=3 IRadAn=         5 AccDes= 0.00D+00
 Harris functional with IExCor=  205 and IRadAn=       5 diagonalized for initial guess.
 HarFok:  IExCor=  205 AccDes= 0.00D+00 IRadAn=         5 IDoV= 1 UseB2=F ITyADJ=14
 ICtDFT=  3500011 ScaDFX=  1.000000  1.000000  1.000000  1.000000
 FoFCou: FMM=F IPFlag=           0 FMFlag=      100000 FMFlg1=           0
         NFxFlg=           0 DoJE=T BraDBF=F KetDBF=T FulRan=T
         wScrn=  0.000000 ICntrl=       500 IOpCl=  0 I1Cent=   200000004 NGrid=           0
         NMat0=    1 NMatS0=      1 NMatT0=    0 NMatD0=    1 NMtDS0=    0 NMtDT0=    0
 Petite list used in FoFCou.
 Keep R1 ints in memory in canonical form, NReq=56184910.
 Requested convergence on RMS density matrix=1.00D-08 within 128 cycles.
 Requested convergence on MAX density matrix=1.00D-06.
 Requested convergence on             energy=1.00D-06.
 No special actions if energy rises.
 SCF Done:  E(RHF) =  -151.436743435     A.U. after   10 cycles
            NFock= 10  Conv=0.59D-08     -V/T= 2.0026
 ExpMin= 2.97D-02 ExpMax= 9.05D+03 ExpMxC= 3.09D+02 IAcc=3 IRadAn=         5 AccDes= 0.00D+00
 HarFok:  IExCor=  205 AccDes= 0.00D+00 IRadAn=         5 IDoV=-2 UseB2=F ITyADJ=14
 ICtDFT= 12500011 ScaDFX=  1.000000  1.000000  1.000000  1.000000
 Range of M.O.s used for correlation:     4   141
 NBasis=   141 NAE=    14 NBE=    14 NFC=     3 NFV=     0
 NROrb=    138 NOA=    11 NOB=    11 NVA=   127 NVB=   127

 **** Warning!!: The largest alpha MO coefficient is  0.12153627D+02

 Fully direct method using O(ONN) memory.
 JobTyp=1 Pass  1:  I=   4 to  14 NPSUse= 28 ParTrn=T ParDer=T DoDerP=T.
 Spin components of T(2) and E(2):
     alpha-alpha T2 =       0.2106751525D-01 E2=     -0.6311065244D-01
     alpha-beta  T2 =       0.1336294729D+00 E2=     -0.4214785402D+00
     beta-beta   T2 =       0.2106751525D-01 E2=     -0.6311065244D-01
 ANorm=    0.1084326751D+01
 E2 =    -0.5476998451D+00 EUMP2 =    -0.15198444328040D+03
          IDoAtm=11111111111
          Differentiating once with respect to electric field.
                with respect to dipole field.
          Differentiating once with respect to nuclear coordinates.
 Keep R1 ints in memory in canonical form, NReq=56191707.
          There are     1 degrees of freedom in the 1st order CPHF.  IDoFFX=0 NUNeed=     1.
 LinEq1:  Iter=  0 NonCon=     1 RMS=3.47D-03 Max=3.54D-02 NDo=     1
 AX will form     1 AO Fock derivatives at one time.
 LinEq1:  Iter=  1 NonCon=     1 RMS=5.16D-04 Max=3.88D-03 NDo=     1
 LinEq1:  Iter=  2 NonCon=     1 RMS=2.03D-04 Max=1.48D-03 NDo=     1
 LinEq1:  Iter=  3 NonCon=     1 RMS=3.78D-05 Max=2.59D-04 NDo=     1
 LinEq1:  Iter=  4 NonCon=     1 RMS=1.36D-05 Max=1.20D-04 NDo=     1
 LinEq1:  Iter=  5 NonCon=     1 RMS=3.35D-06 Max=2.86D-05 NDo=     1
 LinEq1:  Iter=  6 NonCon=     1 RMS=6.81D-07 Max=6.92D-06 NDo=     1
 LinEq1:  Iter=  7 NonCon=     1 RMS=1.47D-07 Max=1.53D-06 NDo=     1
 LinEq1:  Iter=  8 NonCon=     1 RMS=5.29D-08 Max=4.88D-07 NDo=     1
 LinEq1:  Iter=  9 NonCon=     1 RMS=1.36D-08 Max=9.28D-08 NDo=     1
 LinEq1:  Iter= 10 NonCon=     1 RMS=2.91D-09 Max=2.00D-08 NDo=     1
 LinEq1:  Iter= 11 NonCon=     1 RMS=5.69D-10 Max=4.36D-09 NDo=     1
 LinEq1:  Iter= 12 NonCon=     1 RMS=1.02D-10 Max=6.84D-10 NDo=     1
 LinEq1:  Iter= 13 NonCon=     0 RMS=1.59D-11 Max=1.19D-10 NDo=     1
 Linear equations converged to 1.000D-10 1.000D-09 after    13 iterations.
 End of Minotr F.D. properties file   721 does not exist.
 End of Minotr F.D. properties file   722 does not exist.
 End of Minotr F.D. properties file   788 does not exist.
 Calling FoFJK, ICntrl=  10002127 FMM=F ISym2X=0 I1Cent= 0 IOpClX= 0 NMat=1 NMatS=1 NMatT=0.
 ***** Axes restored to original set *****
 -------------------------------------------------------------------
 Center     Atomic                   Forces (Hartrees/Bohr)
 Number     Number              X              Y              Z
 -------------------------------------------------------------------
      1        7           0.003240005   -0.000723486   -0.000513521
      2        6           0.000078688   -0.000007121    0.001695363
      3        1           0.000190753    0.001221331   -0.000417260
      4        1          -0.001370493   -0.001340259    0.000279711
      5        7          -0.000021805    0.001529263   -0.000827171
      6        1          -0.000161456   -0.000154790    0.000055420
      7        1           0.000113277   -0.000142783   -0.000018012
      8        1          -0.000028107   -0.000172605    0.000242934
      9        1           0.000013122    0.000651253   -0.000768054
     10        1          -0.000292357   -0.000945792   -0.000593718
     11        1          -0.001761627    0.000084988    0.000864309
 -------------------------------------------------------------------
 Cartesian Forces:  Max     0.003240005 RMS     0.000937826

 GradGradGradGradGradGradGradGradGradGradGradGradGradGradGradGradGradGrad
 Berny optimization.
 Using GEDIIS/GDIIS optimizer.
 FormGI is forming the generalized inverse of G from B-inverse, IUseBI=4.
 Internal  Forces:  Max     0.001932734 RMS     0.000738118
 Search for a local minimum.
 Step number   4 out of a maximum of   49
 All quantities printed in internal units (Hartrees-Bohrs-Radians)
 Mixed Optimization -- En-DIIS/RFO-DIIS
 Swapping is turned off.
 Update second derivatives using D2CorX and points    2    3    4
 DE= -1.63D-04 DEPred=-2.18D-04 R= 7.47D-01
 TightC=F SS=  1.41D+00  RLast= 2.38D-01 DXNew= 1.3933D+00 7.1337D-01
 Trust test= 7.47D-01 RLast= 2.38D-01 DXMaxT set to 8.28D-01
 ITU=  1  1  1  0
     Eigenvalues ---    0.00225   0.00297   0.00467   0.00977   0.01081
     Eigenvalues ---    0.02982   0.03985   0.06891   0.08053   0.08297
     Eigenvalues ---    0.11924   0.15735   0.15999   0.16000   0.16000
     Eigenvalues ---    0.16037   0.18152   0.18579   0.34411   0.34468
     Eigenvalues ---    0.35579   0.42122   0.43446   0.44027   0.44208
     Eigenvalues ---    0.44322   0.48063
 En-DIIS/RFO-DIIS/Sim-DIIS IScMMF=       -3 using points:     4    3
 RFO step:  Lambda=-1.92383085D-04.
 DidBck=F Rises=F RFO-DIIS coefs:    0.82840    0.17160
 Iteration  1 RMS(Cart)=  0.04754298 RMS(Int)=  0.00099577
 Iteration  2 RMS(Cart)=  0.00223466 RMS(Int)=  0.00019772
 Iteration  3 RMS(Cart)=  0.00000085 RMS(Int)=  0.00019772
 Variable       Old X    -DE/DX   Delta X   Delta X   Delta X     New X
                                 (Linear)    (Quad)   (Total)
    R1        2.78485  -0.00188   0.00013  -0.00064  -0.00050   2.78436
    R2        1.92897  -0.00094   0.00025  -0.00237  -0.00212   1.92685
    R3        1.93494   0.00032   0.00091  -0.00308  -0.00220   1.93273
    R4        2.08304  -0.00096  -0.00022  -0.00053  -0.00074   2.08230
    R5        2.08379  -0.00114  -0.00027  -0.00092  -0.00119   2.08260
    R6        2.09628  -0.00160  -0.00027  -0.00069  -0.00097   2.09531
    R7        4.11885   0.00114  -0.02013   0.09988   0.07976   4.19861
    R8        1.92893  -0.00020   0.00020  -0.00093  -0.00073   1.92820
    R9        1.92895  -0.00009   0.00019  -0.00077  -0.00059   1.92837
   R10        1.92845  -0.00025   0.00014  -0.00085  -0.00071   1.92774
    A1        1.91519   0.00000  -0.00092   0.00386   0.00351   1.91870
    A2        1.90574   0.00168   0.00108   0.00776   0.00910   1.91484
    A3        1.87234  -0.00109  -0.00301   0.00349   0.00032   1.87265
    A4        1.90829   0.00072   0.00053   0.00201   0.00255   1.91084
    A5        1.89594   0.00048   0.00052  -0.00083  -0.00031   1.89563
    A6        2.01914  -0.00193  -0.00089  -0.00052  -0.00140   2.01774
    A7        1.86882  -0.00002   0.00002  -0.00011  -0.00009   1.86873
    A8        1.88532   0.00032  -0.00024  -0.00041  -0.00065   1.88466
    A9        1.88073   0.00053   0.00010  -0.00014  -0.00005   1.88068
   A10        1.90539   0.00007   0.00114  -0.00255  -0.00162   1.90377
   A11        1.60571  -0.00034  -0.00059  -0.00107  -0.00136   1.60435
   A12        2.33086   0.00002   0.00133  -0.00480  -0.00356   2.32729
   A13        1.85013  -0.00004  -0.00089   0.00255   0.00191   1.85203
   A14        1.85102   0.00019  -0.00083   0.00505   0.00398   1.85501
   A15        1.85706  -0.00003  -0.00098   0.00205   0.00136   1.85843
   A16        3.32648  -0.00083  -0.02551  -0.06965  -0.09497   3.23150
   A17        3.59132  -0.00043  -0.00579   0.00597   0.00039   3.59170
    D1       -1.10385   0.00013  -0.00105   0.00100   0.00014  -1.10371
    D2       -3.13772  -0.00052  -0.00167   0.00049  -0.00098  -3.13870
    D3        1.02863  -0.00026  -0.00159   0.00167   0.00028   1.02891
    D4        3.13175   0.00046   0.00248  -0.00997  -0.00768   3.12407
    D5        1.09789  -0.00019   0.00186  -0.01048  -0.00881   1.08908
    D6       -1.01895   0.00007   0.00194  -0.00930  -0.00754  -1.02650
    D7       -0.51582  -0.00005  -0.00741   0.01960   0.01177  -0.50405
    D8       -2.35876  -0.00002  -0.00840   0.01207   0.00344  -2.35532
    D9        1.97988   0.00002  -0.01716  -0.01290  -0.03016   1.94972
   D10       -2.77677  -0.00001   0.00801   0.03113   0.03920  -2.73757
   D11        1.66348   0.00002   0.00701   0.02360   0.03087   1.69434
   D12       -0.28106   0.00007  -0.00175  -0.00137  -0.00274  -0.28380
         Item               Value     Threshold  Converged?
 Maximum Force            0.001933     0.000450     NO 
 RMS     Force            0.000738     0.000300     NO 
 Maximum Displacement     0.113495     0.001800     NO 
 RMS     Displacement     0.048283     0.001200     NO 
 Predicted change in Energy=-9.781734D-05
 GradGradGradGradGradGradGradGradGradGradGradGradGradGradGradGradGradGrad

                          Input orientation:                          
 ---------------------------------------------------------------------
 Center     Atomic      Atomic             Coordinates (Angstroms)
 Number     Number       Type             X           Y           Z
 ---------------------------------------------------------------------
      1          7           0        1.145088    1.465783   -0.124155
      2          6           0        2.615904    1.448049   -0.038439
      3          1           0        0.810116    0.593484   -0.532272
      4          1           0        0.844559    2.224847   -0.740224
      5          7           0        0.256545    4.288540   -1.316288
      6          1           0        0.988512    4.937294   -1.025643
      7          1           0       -0.458754    4.324493   -0.589399
      8          1           0       -0.163382    4.688446   -2.155557
      9          1           0        2.934791    0.640559    0.640134
     10          1           0        2.953711    2.397595    0.407422
     11          1           0        3.150504    1.317408   -1.001015
 ---------------------------------------------------------------------
                    Distance matrix (angstroms):
                    1          2          3          4          5
     1  N    0.000000
     2  C    1.473418   0.000000
     3  H    1.019643   2.057917   0.000000
     4  H    1.022759   2.057566   1.644924   0.000000
     5  N    3.190399   3.907411   3.817664   2.221810   0.000000
     6  H    3.590067   3.974645   4.375377   2.731219   1.020359
     7  H    3.310738   4.246293   3.941284   2.475861   1.020447
     8  H    4.027933   4.765164   4.511259   3.014703   1.020116
     9  H    2.113804   1.101904   2.427137   2.963853   4.930350
    10  H    2.102846   1.102063   2.955138   2.407375   3.717735
    11  H    2.193762   1.108791   2.494234   2.491754   4.159570
                    6          7          8          9         10
     6  H    0.000000
     7  H    1.631077   0.000000
     8  H    1.632633   1.634796   0.000000
     9  H    5.002474   5.157448   5.813772   0.000000
    10  H    3.516497   4.043699   4.640380   1.772481   0.000000
    11  H    4.216443   4.715796   4.866077   1.788303   1.785841
                   11
    11  H    0.000000
 Stoichiometry    CH8N2
 Framework group  C1[X(CH8N2)]
 Deg. of freedom    27
 Full point group                 C1      NOp   1
 Largest Abelian subgroup         C1      NOp   1
 Largest concise Abelian subgroup C1      NOp   1
                         Standard orientation:                         
 ---------------------------------------------------------------------
 Center     Atomic      Atomic             Coordinates (Angstroms)
 Number     Number       Type             X           Y           Z
 ---------------------------------------------------------------------
      1          7           0        0.870291    0.714002   -0.117314
      2          6           0        1.682218   -0.507521    0.022738
      3          1           0        1.248074    1.452412    0.475731
      4          1           0       -0.085590    0.530786    0.196946
      5          7           0       -2.205561   -0.117090    0.047211
      6          1           0       -2.237970   -1.072010   -0.310852
      7          1           0       -2.370897    0.491860   -0.754760
      8          1           0       -3.014215   -0.013953    0.660462
      9          1           0        2.706233   -0.311036   -0.333601
     10          1           0        1.257459   -1.288742   -0.628275
     11          1           0        1.750491   -0.922572    1.048647
 ---------------------------------------------------------------------
 Rotational constants (GHZ):          25.2152011           3.3831906           3.0993402
 Standard basis: Aug-CC-pVDZ (5D, 7F)
 There are   147 symmetry adapted cartesian basis functions of A   symmetry.
 There are   141 symmetry adapted basis functions of A   symmetry.
   141 basis functions,   217 primitive gaussians,   147 cartesian basis functions
    14 alpha electrons       14 beta electrons
       nuclear repulsion energy        79.9207812409 Hartrees.
 NAtoms=   11 NActive=   11 NUniq=   11 SFac= 1.00D+00 NAtFMM=   60 NAOKFM=F Big=F
 Integral buffers will be    131072 words long.
 Raffenetti 1 integral format.
 Two-electron integral symmetry is turned on.
 One-electron integrals computed using PRISM.
 NBasis=   141 RedAO= T EigKep=  4.45D-04  NBF=   141
 NBsUse=   141 1.00D-06 EigRej= -1.00D+00 NBFU=   141
 Initial guess from the checkpoint file:  "/gscratch/scrubbed/gds001/Gau-30212.chk"
 B after Tr=    -0.000000    0.000000   -0.000000
         Rot=    0.999985   -0.002539    0.000091    0.004862 Ang=  -0.63 deg.
 ExpMin= 2.97D-02 ExpMax= 9.05D+03 ExpMxC= 3.09D+02 IAcc=3 IRadAn=         5 AccDes= 0.00D+00
 Harris functional with IExCor=  205 and IRadAn=       5 diagonalized for initial guess.
 HarFok:  IExCor=  205 AccDes= 0.00D+00 IRadAn=         5 IDoV= 1 UseB2=F ITyADJ=14
 ICtDFT=  3500011 ScaDFX=  1.000000  1.000000  1.000000  1.000000
 FoFCou: FMM=F IPFlag=           0 FMFlag=      100000 FMFlg1=           0
         NFxFlg=           0 DoJE=T BraDBF=F KetDBF=T FulRan=T
         wScrn=  0.000000 ICntrl=       500 IOpCl=  0 I1Cent=   200000004 NGrid=           0
         NMat0=    1 NMatS0=      1 NMatT0=    0 NMatD0=    1 NMtDS0=    0 NMtDT0=    0
 Petite list used in FoFCou.
 Keep R1 ints in memory in canonical form, NReq=56184998.
 Requested convergence on RMS density matrix=1.00D-08 within 128 cycles.
 Requested convergence on MAX density matrix=1.00D-06.
 Requested convergence on             energy=1.00D-06.
 No special actions if energy rises.
 SCF Done:  E(RHF) =  -151.437209873     A.U. after   10 cycles
            NFock= 10  Conv=0.28D-08     -V/T= 2.0026
[...]
 17153,-2.17454574,-1.92515671,0.00797043,0.01206913,0.00332722,0.93413
 629,2.15298447,-0.63614696,-1.94166574,-0.47058905,0.00234028,0.006893
 09,0.00652137,0.63091611,1.91918262,0.46754221,0.16617050,0.36073919,-
 0.28053428,-0.00622341,0.00064593,-0.00326984,-0.00412271,0.00303507,0
 .00118472,-0.15690067,0.36407302,-0.69348103,0.74716958,-0.00327523,0.
 00572661,-0.00113824,0.00517716,0.01030399,0.01292298,-0.36215396,0.67
 204416,-0.28258507,0.76032715,-0.28216691,0.00192251,-0.00226533,0.003
 85722,-0.00215181,0.00173245,-0.00179958,0.28100202,-0.75701683,0.2796
 0193,0.00008861,0.00025477,0.00037960,0.00025260,0.00008423,0.00008494
 ,-0.00015897,-0.00006335,-0.00067896,-0.00136527,-0.00086696,0.0003731
 0,0.00268024,-0.00083568,-0.00229933,-0.00082467,-0.00041356,-0.000097
 88,0.00010666,0.00121460,-0.00005975,0.00204015,-0.00173434,0.00449809
 ,-0.00221612,-0.00005006,0.00149763,0.00006406,0.00093029,0.00003156,0
 .00032155,-0.00007171,0.00004186,-0.00054680,-0.00010589,-0.00091855,0
 .00069597,-0.00238514,0.00005737,-0.00009624,0.00133997,0.00104909,-0.
 00002600,0.00033537,-0.00012476,0.00005737,-0.00004416,-0.00001021,-0.
 00006879,-0.00001463,-0.00009345,0.00064715,-0.00094157,0.00037066,-0.
 00131290,0.00027289,-0.00001132,0.00066132,-0.00021887,-0.00028709,-0.
 00013681,-0.00001821,0.00006736,0.00006027,0.00022107,-0.00017668,0.00
 024833,-0.00058710,0.00087677,-0.00024332,0.00067334,-0.00109053,-0.00
 002213,0.00007342,0.00039724,0.00004181,0.00009610,0.00005254,-0.00000
 807,-0.00004076,-0.00000447,-0.00003211,-0.00002915,-0.00009679,-0.000
 05614,-0.00011377,-0.00006006,0.00021969,0.00004911,0.00039151,-0.0001
 2425,0.00007367,-0.00044885,-0.00004946,-0.00008029,-0.00008661,0.0000
 0358,0.00003202,-0.00002692,0.00015029,0.00003380,0.00009939,-0.000245
 35,0.00006920,0.00021958,0.00006712,0.00043036,-0.00006480,-0.00000783
 ,-0.00003248,-0.00007921,0.00006072,-0.00000464,-0.00000463,0.00025457
 ,-0.00004704,-0.00014107,-0.00003908,-0.00019222,0.00019740,-0.0001848
 9,0.00049011,-0.00001354,-0.00078963,0.00001044,-0.00100747,0.00095011
 ,0.00009780,0.00015306,-0.00013078,-0.00036768,0.00069614,0.00003947,-
 0.00004643,0.00002228,0.00001953,-0.00000591,0.00001362,-0.00001942,0.
 00007248,-0.00002033,0.00002830,-0.00025801,0.00007126,0.00027197,-0.0
 0005561,-0.00033128,-0.00009814,0.00010723,0.00013326,-0.00013005,0.00
 011996,-0.00001275,-0.00000884,-0.00011125,0.00006088,0.00001348,0.000
 02533,0.00000871,-0.00002362,0.00006885,-0.00003140,-0.00012350,0.0001
 0600,-0.00007843,-0.00013693,0.00039611,-0.00024025,0.00013068,-0.0002
 0873,0.00003743,0.00007348,-0.00005639,-0.00007369,0.00008863,0.000101
 19,-0.00050610,0.00011269,-0.00019683,0.00003881,-0.00002928,0.0001097
 4,0.00015124,0.00033688,-0.00003175,0.00123509,-0.00025061,0.00004645,
 -0.00150661,-0.00059958,0.00018333,0.00008648,0.00008447,-0.00009477,0
 .00009458,0.00006973,-0.00020085,0.00036886,0.00010664,-0.00006641,0.0
 0010966,-0.00008009,-0.00001202,-0.00001889,-0.00002856,-0.00001669,-0
 .00003247,0.00004461,0.00048578,-0.00005898,-0.00054235,-0.00038438,-0
 .00029884,0.00009028,-0.00006249,0.00004023,0.00005164,-0.00019332,0.0
 0013045,0.00033376,0.00024784,0.00013360,-0.00155686,0.00184932,-0.001
 04366,0.00054963,0.00158787,-0.00053923,0.00146712,-0.00109306,0.00050
 125,0.00065269,-0.00190774,0.00127044,-0.00005407,0.00028532,-0.000032
 91,-0.00003097,0.00003192,0.00000351,-0.00000938,0.00004794,-0.0000153
 0,-0.00000162,0.00003126,0.00001028,-0.00094665,-0.00006072,0.00081646
 ,-0.00106663,0.00046126,0.00103716,0.00110780,0.00025706,-0.00118822,0
 .00024963,0.00008840,-0.00005870,0.00083623,-0.00002328,-0.00003703,0.
 00001068,0.00002159,-0.00000940,-0.00000330,-0.00000426,0.00001028,0.0
 0000131,-0.00001021,0.00000315,-0.00000721,-0.00083448,-0.00043334,-0.
 00226316,-0.00087025,-0.00095569,0.00129207,0.00134335,0.00003711,0.00
 057216,0.00022054,0.00053930,0.00043554,0.00014520,0.00050696,-0.00001
 462,0.00003708,-0.00005984,-0.00000623,-0.00000171,-0.00000139,0.00000
 881,-0.00000084,-0.00000220,-0.00000340,0.00002341,0.00000814,-0.00021
 423,-0.00086456,0.00040304,0.00200075,-0.00176893,-0.00134072,0.000726
 39,-0.00365516,-0.00225100,-0.00029128,0.00326694,0.00283874,0.0004276
 9,0.00056681,0.00005306,-0.00000216,0.00019675,-0.00003307,-0.00002973
 ,0.00005028,-0.00000611,-0.00002119,-0.00002275,-0.00001598,-0.0000052
 1,0.00002510,0.00000095,0.00000809,0.00019708,0.00018437,-0.00280335,-
 0.00123081,0.00016739,0.00028743,0.00003835,0.00116319,-0.00152506,0.0
 0035002,-0.00011989,-0.00034666,-0.00010687,-0.00097694,-0.00000454,-0
 .00003970,0.00006153,-0.00004191,0.00000941,-0.00001902,0.00001458,0.0
 0000116,0.00001869,-0.00000157,-0.00001072,0.00002557,0.00000606,-0.00
 013741,-0.00012846,0.00003786,0.00110270,-0.00017608,-0.00135871,-0.00
 074180,-0.00176344,0.00002451,-0.00189693,0.00220805,0.00049580,0.0006
 3677,0.00013254,0.00033598,0.00036396,0.00065283,-0.00002280,-0.000044
 92,0.00001931,-0.00000020,-0.00001149,-0.00000566,0.00000614,0.0000215
 8,-0.00000691,-0.00001025,0.00002481,-0.00000439,0.00008323,-0.0001859
 3,-0.00031646,0.00069724,0.00141163,-0.00102998,-0.00130124,0.00008233
 ,0.00198670,-0.00131479,0.00017293,0.00081964,0.00272317,0.00083119,-0
 .00092973,0.00108291,-0.00084674,-0.00039606,-0.00005826,0.00023761,-0
 .00005619,-0.00002029,0.00001535,0.00000345,-0.00002199,0.00004443,-0.
 00000669,-0.00000655,0.00002713,0.00001283,-0.00007798,-0.00009244,0.0
 0000870,-0.00001000,0.00002385,-0.00025094,-0.00099497,-0.00076926,-0.
 00064377,-0.00082699,0.00083422,0.00108751,0.00069419,0.00063967,0.000
 38405,0.00032362,-0.00038467,-0.00015450,-0.00010946,-0.00002588,0.000
 04137,-0.00000467,0.00000654,0.00000181,-0.00000018,0.00001295,-0.0000
 0344,-0.00000318,0.00000186,0.00000893,0.00000282,0.00013907,-0.000011
 90,-0.00007007,0.00004117,-0.00001598,0.00042232,-0.00049564,-0.000694
 07,-0.00046332,0.00000668,0.00135061,0.00060750,0.00046357,-0.00032990
 ,0.00103330,0.00013637,-0.00127865,0.00013313,-0.00017550,-0.00066204,
 0.00002568,-0.00004728,0.00001781,0.00000764,-0.00001156,-0.00000032,0
 .00000202,-0.00000768,0.00000260,-0.00000337,-0.00002036,-0.00000851,-
 0.00002340,-0.00007802,-0.00015897,-0.00012748,0.00016218,0.00011410,-
 0.00119171,-0.00042840,0.00095326,-0.00000427,-0.00012002,0.00035193,0
 .00017658,-0.00027265,0.00009150,0.00007156,0.00000171,-0.00006021,-0.
 00028684,0.00005959,0.00004735,0.00002794,-0.00001923,-0.00018023,-0.0
 0007840,0.00004068,0.00009069,0.00000042,0.00005985,-0.00020526,0.0000
 7108,0.00001735,-0.00003681,0.00001626,-0.00001118,-0.00000483,-0.0000
 0578,-0.00002114,-0.00003866,0.00002997,0.00004142,-0.00000882,0.00000
 691,0.00001270,0.00001590,-0.00006728,0.00003953,0.00008878,0.00003054
 ,0.00001742,-0.00002948,-0.00001156,-0.00003192,0.00004638,-0.00016788
 ,0.00000140,0.00004824,-0.00000350,-0.00004844,0.00007079,-0.00011927,
 -0.00002212,0.00008908,0.00062539,0.00003887,-0.00018779,0.00013273,0.
 00005507,0.00000401,-0.00001151,0.00000631,0.00005448,-0.00004569,0.00
 026142,-0.00016158,-0.00002675,0.00023074,-0.00038475,0.00006364,-0.00
 004521,-0.00001561,0.00010091,0.00002655,-0.00022452,-0.00029430,-0.00
 025803,0.00136797,0.00029874,-0.00004324,-0.00011384,-0.00017790,-0.00
 009993,0.00006891,0.00021119,-0.00004059,-0.00005920,-0.00132624,0.000
 20516,0.00021611,0.85807942,0.00009149,0.00010202,-0.00038963,-0.00023
 932,-0.00014901,-0.00003835,0.00015926,-0.00013948,-0.00000852,-0.0006
 2174,0.00032871,0.00038541,0.10655043,-0.37163515,-0.00019440,0.000340
 78,0.00088811,0.00037150,0.00020851,-0.00002167,-0.00041340,0.00019081
 ,0.00005958,0.00075484,-0.00153908,-0.00201472,-1.12759714,0.37565641,
 2.54058337,-0.00023283,0.00010487,0.00001705,0.00001999,0.00008974,0.0
 0003112,-0.00001480,0.00007627,-0.00002512,0.00043885,0.00031625,-0.00
 011343,-0.33808364,-0.52585374,0.01700562,0.34238155,-0.00014540,0.000
 04239,0.00004700,0.00011797,0.00005495,0.00003073,-0.00005148,0.000064
 10,-0.00001597,0.00009552,-0.00010699,0.00008215,-0.55171616,-0.381844
 69,0.01503396,0.54826976,0.37996600,-0.00004912,-0.00009023,-0.0000428
 0,-0.00006429,-0.00004323,-0.00000098,0.00005810,-0.00007929,0.0000606
 7,0.00004469,0.00026813,0.00002866,0.01747565,0.01491262,0.17637565,-0
 .00381703,-0.01451894,-0.19203350,-0.00002865,0.00015993,0.00012624,0.
 00008237,-0.00002610,-0.00013398,-0.00013484,0.00004083,0.00004498,0.0
 0031440,-0.00074075,-0.00016838,-0.14558544,0.26863949,1.62289029,-0.0
 0042916,-0.00063300,-0.00475239,0.14971915,0.00014860,-0.00027115,0.00
 043604,-0.00006337,0.00004672,-0.00000813,-0.00010038,0.00003253,0.000
 06337,0.00011570,0.00027864,-0.00075214,0.27638982,0.62099616,-0.54559
 961,-0.00922380,-0.00534874,0.00662104,-0.26745454,-0.61462818,0.00016
 042,-0.00011930,-0.00062833,-0.00029158,-0.00014388,-0.00001159,0.0002
 8632,-0.00003817,-0.00005066,-0.00086229,0.00133931,0.00106185,1.61619
 458,-0.52808777,-2.41705741,-0.01017069,-0.00402554,0.00948412,-1.6028
 3900,0.53146875,2.39833407,0.00000019,-0.00015665,-0.00016644,0.000050
 36,0.00004076,-0.00001315,-0.00001256,-0.00006617,0.00000991,0.0002438
 7,-0.00006161,0.00026971,-0.37363531,0.15114215,-0.51251430,-0.0039661
 1,0.00414622,-0.00892608,-0.00392828,0.00016063,-0.00272684,0.38129199
 ,-0.00002894,0.00002167,0.00001966,0.00014224,0.00004812,0.00001044,-0
 .00004082,0.00001637,-0.00001431,0.00019699,-0.00022436,0.00028679,0.1
 6880517,0.13230253,0.15567267,-0.01378602,0.00718742,-0.00707821,-0.00
 002165,-0.00109944,-0.00038620,-0.15519782,-0.13823028,0.00005678,-0.0
 0016537,-0.00006764,-0.00005305,-0.00002770,0.00004062,0.00003815,-0.0
 0011020,0.00003249,0.00012080,0.00013298,0.00021536,-0.50612488,0.1375
 7299,-0.29893788,-0.00288135,0.00337830,0.00612882,-0.01528805,0.00777
 339,0.00897702,0.52407624,-0.14852497,0.28361888,-0.00000173,0.0000084
 1,0.00000080,0.00006436,0.00000595,0.00000595,-0.00000642,-0.00000582,
 -0.00000338,0.00001172,-0.00002674,0.00000110,0.00006975,0.00008223,-0
 .00014836,-0.00001647,-0.00003675,0.00002111,-0.00003304,-0.00000391,0
 .00010860,-0.00002511,-0.00003664,0.00002801,-0.00006856,0.00002399,-0
 .00002396,0.00001014,-0.00003852,0.00005656,-0.00004435,0.00000081,0.0
 0000297,-0.00000253,0.00000088,0.00000422,0.00001516,0.00001012,-0.000
 00510,0.00003446,-0.00002202,-0.00000391,-0.00001774,0.00002983,-0.000
 00619,-0.00000581,-0.00000548,0.00000378,-0.00001248,0.00000104,-0.000
 04573,-0.00002526,0.00001782,-0.00000137,0.00003618,-0.00004151,0.0000
 5285,-0.00000199,0.00000227,-0.00000136,0.00000750,-0.00001140,-0.0000
 0227,-0.00002030,0.00003349,-0.00001311,0.00000089,-0.00001196,0.00000
 493,0.00001369,-0.00001183,0.00001295,0.00000604,-0.00000703,0.0000002
 8,-0.00000670,0.00003162,-0.00005985,0.00001866,0.00003411,0.00000849,
 0.00005269,-0.00000143,0.00002055,-0.00000723,-0.00001028,-0.00000274,
 -0.00001983,-0.00003110,-0.00001348,0.00006525,-0.00000331,-0.00003388
 ,-0.00004699,0.00000255,0.00000553,0.00004484,-0.00000046,0.00005418,-
 0.00002267,-0.00000570,-0.00000927,0.00000775,-0.00000708,-0.00001171,
 -0.00008845,-0.00003656,-0.00003632,-0.00002402,0.00000154,0.00000933,
 -0.00001924,0.00000968,0.00000212,-0.00000469,0.00001337,-0.00000054,0
 .00000922,-0.00001223,0.00004956,-0.00002668,0.00000639,-0.00002173,0.
 00001049,-0.00000728,0.00000521,0.00002604,-0.00000357,-0.00002454,-0.
 00000095,0.00000804,0.00003362,0.00001417,0.00002158,-0.00001112,-0.00
 000892,-0.00001605,0.00000323,0.00002492,-0.00000521,0.00003153,-0.000
 00655,-0.00000271,0.00000708,0.00000518,-0.00001554,-0.00003134,0.0000
 2059,-0.00000403,0.00002965,-0.00004316,-0.00001384,-0.00000725,0.0000
 6064,0.00002348,-0.00002463,-0.00002735,-0.00000090,-0.00000034,-0.000
 00372,0.00000731,-0.00001330,-0.00002255,-0.00000203,-0.00000016,-0.00
 002489,-0.00000787,-0.00000011,0.00011064,0.00001027,0.00003262,0.0000
 0237,-0.00000510,-0.00000522,0.00000251,-0.00002286,-0.00003516,0.0000
 8419,0.00005306,-0.00012076,-0.00005040,-0.00004922,0.00000383,-0.0000
 2135,0.00003170,0.00008628,0.00000363,-0.00002681,0.00003663,-0.000002
 24,0.00000644,0.00000166,-0.00000401,-0.00000096,0.00000092,-0.0001004
 5,-0.00001048,-0.00000750,-0.00001716,0.00000048,0.00007101,-0.0000270
 4,-0.00000224,-0.00000151,0.00000330,0.00000702,0.00001119,0.00001935,
 -0.00004854,-0.00000555,0.00002777,0.00002230,0.00001120,0.00001535,0.
 00001323,-0.00000556,-0.00002742,0.00000155,-0.00000127,-0.00001598,0.
 00000420,-0.00001627,-0.00001564,0.00000112,-0.00000559,0.00002954,0.0
 0001135,-0.00005014,0.00005635,-0.00000594,-0.00003744,-0.00005806,-0.
 00000698,0.00006889,-0.00000835,0.00000577,0.00001103,0.00001548,0.000
 00812,-0.00000063,-0.00006049,-0.00003262,0.00010842,-0.00000391,0.000
 01411,0.00000167,0.00004596,-0.00001435,-0.00009740,0.00001224,0.00002
 206,-0.00000761,-0.00000341,-0.00001578,0.00002026,0.00000488,0.000017
 69,0.00000550,-0.00000069,0.00000794,-0.00007270,0.00038716,-0.0000709
 4,0.00028834,-0.00006080,0.00003939,0.00025911,-0.00017875,0.00002291,
 -0.00001902,0.00010326,0.00004294,0.00002460,-0.00002563,0.00001366,-0
 .00018659,-0.00005324,0.00000916,0.00011366,-0.00008358,0.00009281,-0.
 00009576,0.00003482,-0.00000550,-0.00001707,0.00001476,0.00003602,-0.0
 0000771,0.00004186,0.00004108,-0.00006684,-0.00004653,-0.00001218,0.00
 000364,-0.00000221,-0.00000499,0.00002044,-0.00002509,-0.00002097,0.00
 001077,-0.00001254,0.00001249,0.00000419,-0.00001630,0.00000593,0.0000
 9199,-0.00036388,0.00012547,0.00004993,0.00006632,-0.00004867,0.000079
 13,-0.00012930,-0.00001073,0.00008794,0.00074346,0.00003331,-0.0003132
 0,0.00008208,0.00005585,0.00002365,-0.00003167,-0.00001759,0.00003917,
 -0.00002315,-0.00015538,0.00040468,0.00016927,-0.00009579,-0.00038955,
 -0.00002668,0.00000699,-0.00006382,0.00006002,0.00007247,-0.00013439,-
 0.00025230,0.00014983,0.00092365,0.00060897,-0.00000915,0.00034341,-0.
 00002330,-0.00025283,-0.00006768,0.00006867,0.00002167,-0.00004787,-0.
 00193633,-0.00061821,-0.00056944,1.81049894,-0.00004811,0.00036132,-0.
 00020380,-0.00025849,-0.00014020,-0.00007408,-0.00001491,0.00000764,0.
 00008915,-0.00003922,-0.00014319,-0.00040281,1.06573176,0.74775131,0.0
 0014577,0.00035825,0.00027770,-0.00014457,-0.00004316,0.00001096,-0.00
 000435,0.00013028,-0.00006294,-0.00060246,-0.00032857,-0.00090259,1.33
 386451,-0.70698524,0.47418493,-0.00047814,0.00025050,-0.00031443,-0.00
 006688,0.00013367,0.00001958,-0.00002466,0.00003469,0.00002471,0.00117
 822,0.00069115,0.00014267,-0.90931525,-1.53564387,0.16600936,0.8986352
 4,-0.00019638,-0.00011957,0.00006864,0.00011261,0.00009537,0.00010552,
 0.00001831,-0.00000671,-0.00002372,0.00032063,0.00033664,-0.00006149,-
 1.55852128,-1.10506169,0.18561858,1.53862312,1.09444415,-0.00004176,0.
 00008866,-0.00003891,-0.00000375,-0.00006696,-0.00005225,-0.00001452,-
 0.00001333,0.00006428,-0.00000854,-0.00006525,-0.00008413,0.16325740,0
 .18068267,0.51281030,-0.17802845,-0.18355780,-0.50349272,-0.00008656,-
 0.00003901,0.00007413,-0.00001755,0.00001916,0.00000787,-0.00001039,-0
 .00000037,0.00003244,0.00014946,0.00003440,-0.00016023,-0.00953942,-0.
 00988603,-0.01234842,0.00386149,0.01081809,0.01148394,-0.00255635,0.00
 000366,0.00008604,-0.00006570,0.00009756,0.00002789,0.00000952,0.00001
 226,-0.00002578,-0.00002685,-0.00008183,-0.00029083,0.00018735,0.00043
 643,-0.01787500,-0.00159748,-0.00187401,0.01091082,0.00530385,0.001416
 06,0.00093026,0.00003190,-0.00003744,-0.00009484,-0.00002268,0.0000084
 4,-0.00001640,0.00002163,-0.00003319,0.00000567,-0.00005397,0.00017901
 ,0.00007645,-0.02064527,0.02087795,0.00940477,0.00442729,-0.00657224,-
 0.00698101,-0.00098652,-0.00574639,0.00410735,0.00003870,-0.00032427,-
 0.00007548,0.00004873,0.00007517,0.00002606,0.00001365,-0.00007232,-0.
 00002894,0.00029839,0.00000783,0.00062923,-0.89057340,0.48000411,-1.48
 695941,0.00633084,0.00895782,0.00328341,0.00820290,0.00003644,0.017204
 69,0.87569203,0.00018231,-0.00019750,0.00013294,0.00000654,0.00004458,
 -0.00004927,-0.00001433,0.00002180,-0.00001777,-0.00012418,-0.00006081
 ,0.00014615,0.49317706,0.37508101,0.52282700,-0.00221289,-0.00055388,-
 0.00238925,-0.00235692,0.00624166,-0.00867142,-0.48864723,-0.38060187,
 -0.00018057,-0.00036170,-0.00008405,0.00019150,0.00009710,0.00005985,-
 0.00001360,-0.00012831,0.00002566,0.00073007,0.00004558,0.00060883,-1.
 47624119,0.50595872,-0.99567354,0.00778382,0.00449456,-0.00231265,0.00
 189214,0.00192849,-0.00650821,1.46595707,-0.51198224,1.00389899,0.0000
 1716,-0.00000845,0.00001076,0.00002160,-0.00000534,-0.00000658,-0.0000
 0779,0.00000049,-0.00001001,-0.00000161,-0.00000874,0.00002256,0.00005
 263,0.00006156,0.00003454,-0.00001727,-0.00003816,0.00001017,-0.000003
 82,-0.00002583,0.00000459,-0.00002303,-0.00000396,-0.00005595,-0.00005
 394,0.00001469,-0.00002361,0.00002375,-0.00002913,0.00004595,-0.000039
 62,0.00000030,0.00000520,-0.00000736,-0.00000218,0.00000675,-0.0000016
 0,0.00007734,0.00001419,0.00000372,-0.00003026,-0.00003911,0.00002947,
 -0.00001524,0.00000512,-0.00000322,-0.00003238,0.00001642,-0.00002634,
 0.00001534,-0.00004634,-0.00000745,0.00000533,0.00001040,0.00002345,-0
 .00002675,0.00000213,0.00000255,0.00000653,-0.00000697,0.00000359,0.00
 000385,-0.00000966,-0.00001989,0.00001533,0.00001506,0.00000305,-0.000
 01212,-0.00000609,0.00000033,-0.00000463,-0.00000525,0.00000259,0.0000
 1046,-0.00000604,-0.00000016,0.00002100,-0.00002135,0.00002308,0.00002
 836,0.00000911,0.00004091,-0.00002510,0.00001947,-0.00000184,0.0000104
 1,-0.00000443,-0.00002976,-0.00000676,0.00002153,0.00006977,0.00007415
 ,-0.00002672,-0.00003863,-0.00005406,0.00005786,0.00001213,-0.00000612
 ,-0.00000066,-0.00002131,-0.00002850,-0.00002553,0.00000929,-0.0000062
 7,-0.00000160,-0.00006465,-0.00000875,-0.00002110,0.00000248,-0.000006
 33,0.00003573,-0.00002672,-0.00000452,-0.00000110,0.00001026,0.0000193
 9,-0.00000839,-0.00002052,0.00001471,0.00001503,0.00001094,0.00000206,
 -0.00001904,0.00000548,-0.00000665,-0.00000983,-0.00000265,-0.00002435
 ,0.00001753,-0.00001952,0.00000459,0.00003162,0.00000040,0.00001366,-0
 .00002593,0.00002343,-0.00000191,-0.00001379,0.00003201,-0.00004089,0.
 00005885,-0.00000157,0.00000989,-0.00000385,-0.00003457,-0.00000690,-0
 .00000593,0.00010166,0.00005562,-0.00001680,-0.00004327,-0.00006971,0.
 00007553,0.00000006,-0.00000251,0.00001425,-0.00002684,0.00000285,-0.0
 0005000,0.00000129,0.00000620,-0.00000592,-0.00004502,0.00002895,-0.00
 008056,-0.00000257,0.00003008,-0.00000053,-0.00000910,0.00001132,0.000
 06668,0.00000021,-0.00000776,0.00000009,0.00002503,-0.00001585,-0.0000
 3662,0.00008873,0.00001904,0.00003175,-0.00006498,-0.00004069,0.000004
 24,-0.00001189,-0.00001462,0.00001901,-0.00000751,0.00002210,-0.000037
 77,0.00000678,0.00000779,-0.00000646,0.00000101,-0.00000381,-0.0000071
 7,-0.00002571,0.00000620,-0.00001849,-0.00000762,-0.00000299,0.0000253
 8,0.00000656,-0.00000506,0.00000254,0.00000199,-0.00000330,0.00000551,
 0.00001941,-0.00005749,-0.00001041,0.00000568,0.00002584,0.00001303,-0
 .00001755,0.00001651,-0.00000036,0.00000115,0.00001918,-0.00000895,-0.
 00000634,0.00000849,-0.00001618,-0.00001941,0.00000022,-0.00001452,0.0
 0001842,-0.00000759,0.00002247,-0.00000147,0.00001703,-0.00005051,0.00
 006587,-0.00001444,-0.00002141,-0.00000907,-0.00000154,0.00000560,0.00
 000119,-0.00000482,-0.00001886,0.00002437,-0.00001351,-0.00004785,-0.0
 0002433,0.00000977,0.00001764,0.00000426,0.00001433,-0.00000278,-0.000
 01238,-0.00000946,0.00004115,-0.00001122,-0.00000598,0.00003368,-0.000
 00401,0.00001091,0.00002820,-0.00003322,-0.00000229,0.00001515\\@


 EDUCATION WITHOUT COMMON SENSE IS A LOAD OF BOOKS ON THE BACK OF AN ASS.
 Job cpu time:       1 days  9 hours 51 minutes 52.2 seconds.
 Elapsed time:       0 days  1 hours 14 minutes  7.6 seconds.
 File lengths (MBytes):  RWF=   1724 Int=      0 D2E=      0 Chk=     48 Scr=      8
 Normal termination of Gaussian 16 at Fri Dec 17 15:25:09 2021.
