 Entering Gaussian System, Link 0=g16
 Input=enoloneto_h2o_mp2_avdz_opt_anharm.gjf
 Output=enoloneto_h2o_mp2_avdz_opt_anharm.log
 Initial command:
 /sw/contrib/chem-src/g16/c01/g16/l1.exe "/scr/Gau-35123.inp" -scrdir="/scr/"
 Entering Link 1 = /sw/contrib/chem-src/g16/c01/g16/l1.exe PID=     35124.
  
 Copyright (c) 1988-2019, Gaussian, Inc.  All Rights Reserved.
  
 This is part of the Gaussian(R) 16 program.  It is based on
 the Gaussian(R) 09 system (copyright 2009, Gaussian, Inc.),
 the Gaussian(R) 03 system (copyright 2003, Gaussian, Inc.),
 the Gaussian(R) 98 system (copyright 1998, Gaussian, Inc.),
 the Gaussian(R) 94 system (copyright 1995, Gaussian, Inc.),
 the Gaussian 92(TM) system (copyright 1992, Gaussian, Inc.),
 the Gaussian 90(TM) system (copyright 1990, Gaussian, Inc.),
 the Gaussian 88(TM) system (copyright 1988, Gaussian, Inc.),
 the Gaussian 86(TM) system (copyright 1986, Carnegie Mellon
 University), and the Gaussian 82(TM) system (copyright 1983,
 Carnegie Mellon University). Gaussian is a federally registered
 trademark of Gaussian, Inc.
  
 This software contains proprietary and confidential information,
 including trade secrets, belonging to Gaussian, Inc.
  
 This software is provided under written license and may be
 used, copied, transmitted, or stored only in accord with that
 written license.
  
 The following legend is applicable only to US Government
 contracts under FAR:
  
                    RESTRICTED RIGHTS LEGEND
  
 Use, reproduction and disclosure by the US Government is
 subject to restrictions as set forth in subparagraphs (a)
 and (c) of the Commercial Computer Software - Restricted
 Rights clause in FAR 52.227-19.
  
 Gaussian, Inc.
 340 Quinnipiac St., Bldg. 40, Wallingford CT 06492
  
  
 ---------------------------------------------------------------
 Warning -- This program may not be used in any manner that
 competes with the business of Gaussian, Inc. or will provide
 assistance to any competitor of Gaussian, Inc.  The licensee
 of this program is prohibited from giving any competitor of
 Gaussian, Inc. access to this program.  By using this program,
 the user acknowledges that Gaussian, Inc. is engaged in the
 business of creating and licensing software in the field of
 computational chemistry and represents and warrants to the
 licensee that it is not a competitor of Gaussian, Inc. and that
 it will not use this program in any manner prohibited above.
 ---------------------------------------------------------------
  

 Cite this work as:
 Gaussian 16, Revision C.01,
 M. J. Frisch, G. W. Trucks, H. B. Schlegel, G. E. Scuseria, 
 M. A. Robb, J. R. Cheeseman, G. Scalmani, V. Barone, 
 G. A. Petersson, H. Nakatsuji, X. Li, M. Caricato, A. V. Marenich, 
 J. Bloino, B. G. Janesko, R. Gomperts, B. Mennucci, H. P. Hratchian, 
 J. V. Ortiz, A. F. Izmaylov, J. L. Sonnenberg, D. Williams-Young, 
 F. Ding, F. Lipparini, F. Egidi, J. Goings, B. Peng, A. Petrone, 
 T. Henderson, D. Ranasinghe, V. G. Zakrzewski, J. Gao, N. Rega, 
 G. Zheng, W. Liang, M. Hada, M. Ehara, K. Toyota, R. Fukuda, 
 J. Hasegawa, M. Ishida, T. Nakajima, Y. Honda, O. Kitao, H. Nakai, 
 T. Vreven, K. Throssell, J. A. Montgomery, Jr., J. E. Peralta, 
 F. Ogliaro, M. J. Bearpark, J. J. Heyd, E. N. Brothers, K. N. Kudin, 
 V. N. Staroverov, T. A. Keith, R. Kobayashi, J. Normand, 
 K. Raghavachari, A. P. Rendell, J. C. Burant, S. S. Iyengar, 
 J. Tomasi, M. Cossi, J. M. Millam, M. Klene, C. Adamo, R. Cammi, 
 J. W. Ochterski, R. L. Martin, K. Morokuma, O. Farkas, 
 J. B. Foresman, and D. J. Fox, Gaussian, Inc., Wallingford CT, 2019.
 
 ******************************************
 Gaussian 16:  EM64L-G16RevC.01  3-Jul-2019
                22-Mar-2025 
 ******************************************
 %nprocshared=40
 Will use up to   40 processors via shared memory.
 %mem=50gb
 ----------------------------------------------
 # MP2/aug-cc-pVDZ opt freq=(vibrot,anharmonic)
 ----------------------------------------------
 1/18=20,19=15,38=1,80=1/1,3;
 2/9=110,12=2,17=6,18=5,40=1/2;
 3/5=16,7=10,11=9,25=1,30=1,71=1/1,2,3;
 4//1;
 5/5=2,38=5/2;
 8/6=4,10=1/1;
 9/15=2,16=-3/6;
 10/5=1/2;
 6/7=2,8=2,9=2,10=2/1;
 7/12=2/1,2,3,16;
 1/18=20,19=15,80=1/3(2);
 2/9=110/2;
 99//99;
 2/9=110/2;
 3/5=16,7=10,11=9,25=1,30=1,71=1/1,2,3;
 4/5=5,16=3,69=1/1;
 5/5=2,38=5/2;
 8/6=4,10=1/1;
 9/15=2,16=-3/6;
 10/5=1/2;
 7/12=2/1,2,3,16;
 1/18=20,19=15,80=1/3(-8);
 2/9=110/2;
 6/7=2,8=2,9=2,10=2/1;
 99/9=10/99;
 ----
 blah
 ----
 Symbolic Z-matrix:
 Charge =  0 Multiplicity = 1
 C                    -0.6121    0.89848  -0.08593 
 C                    -1.34068   0.50652  -1.13119 
 H                    -0.59751   0.39486   0.87399 
 O                     0.19968   1.9994   -0.14065 
 C                    -2.20438  -0.6871   -1.03179 
 H                     0.6376    2.0972    0.74164 
 O                    -2.30776  -1.37262  -0.02258 
 H                    -1.32395   1.04067  -2.0714 
 H                    -2.76273  -0.92254  -1.9529 
 O                     1.39612   2.28837   2.22889 
 H                     2.26665   1.9584    2.5142 
 H                     1.10426   2.80653   2.99987 
 
 Add virtual bond connecting atoms O10        and H6         Dist= 3.18D+00.

 GradGradGradGradGradGradGradGradGradGradGradGradGradGradGradGradGradGrad
 Berny optimization.
 Initialization pass.
                           ----------------------------
                           !    Initial Parameters    !
                           ! (Angstroms and Degrees)  !
 --------------------------                            --------------------------
 ! Name  Definition              Value          Derivative Info.                !
 --------------------------------------------------------------------------------
 ! R1    R(1,2)                  1.333          estimate D2E/DX2                !
 ! R2    R(1,3)                  1.0841         estimate D2E/DX2                !
 ! R3    R(1,4)                  1.3689         estimate D2E/DX2                !
 ! R4    R(2,5)                  1.4767         estimate D2E/DX2                !
 ! R5    R(2,8)                  1.0815         estimate D2E/DX2                !
 ! R6    R(4,6)                  0.9898         estimate D2E/DX2                !
 ! R7    R(5,7)                  1.2244         estimate D2E/DX2                !
 ! R8    R(5,9)                  1.1026         estimate D2E/DX2                !
 ! R9    R(6,10)                 1.6804         estimate D2E/DX2                !
 ! R10   R(10,11)                0.9737         estimate D2E/DX2                !
 ! R11   R(10,12)                0.9737         estimate D2E/DX2                !
 ! A1    A(2,1,3)              124.4056         estimate D2E/DX2                !
 ! A2    A(2,1,4)              121.9533         estimate D2E/DX2                !
 ! A3    A(3,1,4)              113.6411         estimate D2E/DX2                !
 ! A4    A(1,2,5)              120.3027         estimate D2E/DX2                !
 ! A5    A(1,2,8)              121.8708         estimate D2E/DX2                !
 ! A6    A(5,2,8)              117.8264         estimate D2E/DX2                !
 ! A7    A(1,4,6)              107.8296         estimate D2E/DX2                !
 ! A8    A(2,5,7)              123.8781         estimate D2E/DX2                !
 ! A9    A(2,5,9)              114.3667         estimate D2E/DX2                !
 ! A10   A(7,5,9)              121.7553         estimate D2E/DX2                !
 ! A11   A(6,10,11)            128.6338         estimate D2E/DX2                !
 ! A12   A(6,10,12)            128.7569         estimate D2E/DX2                !
 ! A13   A(11,10,12)           102.4927         estimate D2E/DX2                !
 ! A14   L(4,6,10,3,-1)        181.0623         estimate D2E/DX2                !
 ! A15   L(4,6,10,3,-2)        179.9885         estimate D2E/DX2                !
 ! D1    D(3,1,2,5)              0.0036         estimate D2E/DX2                !
 ! D2    D(3,1,2,8)           -179.9974         estimate D2E/DX2                !
 ! D3    D(4,1,2,5)           -179.9967         estimate D2E/DX2                !
 ! D4    D(4,1,2,8)              0.0023         estimate D2E/DX2                !
 ! D5    D(2,1,4,6)            179.9795         estimate D2E/DX2                !
 ! D6    D(3,1,4,6)             -0.0208         estimate D2E/DX2                !
 ! D7    D(1,2,5,7)              0.0164         estimate D2E/DX2                !
 ! D8    D(1,2,5,9)           -179.9853         estimate D2E/DX2                !
 ! D9    D(8,2,5,7)           -179.9827         estimate D2E/DX2                !
 ! D10   D(8,2,5,9)              0.0157         estimate D2E/DX2                !
 ! D11   D(1,4,10,11)           93.7102         estimate D2E/DX2                !
 ! D12   D(1,4,10,12)          -91.5474         estimate D2E/DX2                !
 ! D13   D(6,10,11,12)         176.3052         estimate D2E/DX2                !
 --------------------------------------------------------------------------------
 Trust Radius=3.00D-01 FncErr=1.00D-07 GrdErr=1.00D-07 EigMax=2.50D+02 EigMin=1.00D-04
 Number of steps in this run=     49 maximum allowed number of steps=    100.
 GradGradGradGradGradGradGradGradGradGradGradGradGradGradGradGradGradGrad

                          Input orientation:                          
 ---------------------------------------------------------------------
 Center     Atomic      Atomic             Coordinates (Angstroms)
 Number     Number       Type             X           Y           Z
 ---------------------------------------------------------------------
      1          6           0       -0.612102    0.898482   -0.085930
      2          6           0       -1.340678    0.506519   -1.131185
      3          1           0       -0.597507    0.394857    0.873990
      4          8           0        0.199682    1.999396   -0.140650
      5          6           0       -2.204380   -0.687104   -1.031793
      6          1           0        0.637600    2.097203    0.741644
      7          8           0       -2.307764   -1.372622   -0.022580
      8          1           0       -1.323948    1.040671   -2.071403
      9          1           0       -2.762729   -0.922545   -1.952904
     10          8           0        1.396124    2.288367    2.228891
     11          1           0        2.266649    1.958396    2.514201
     12          1           0        1.104257    2.806534    2.999873
 ---------------------------------------------------------------------
                    Distance matrix (angstroms):
                    1          2          3          4          5
     1  C    0.000000
     2  C    1.333047   0.000000
     3  H    1.084111   2.141377   0.000000
     4  O    1.368941   2.362742   2.059016   0.000000
     5  C    2.438050   1.476684   2.717478   3.713615   0.000000
     6  H    1.919262   3.154576   2.107365   0.989839   4.355950
     7  O    2.834995   2.386511   2.617785   4.203776   1.224392
     8  H    2.114011   1.081484   3.101633   2.639774   2.200262
     9  H    3.380374   2.177080   3.796717   4.538489   1.102556
    10  O    3.364989   4.685635   3.065241   2.670150   5.696413
    11  H    4.021357   5.330065   3.652169   3.364858   6.289901
    12  H    4.013568   5.322914   3.637522   3.366394   6.277493
                    6          7          8          9         10
     6  H    0.000000
     7  O    4.615073   0.000000
     8  H    3.588476   3.315049   0.000000
     9  H    5.285992   2.033645   2.436873   0.000000
    10  O    1.680418   5.673689   5.239090   6.715163   0.000000
    11  H    2.411437   6.201306   5.895962   7.317752   0.973703
    12  H    2.412574   6.184048   5.893410   7.306819   0.973702
                   11         12
    11  H    0.000000
    12  H    1.518674   0.000000
 Stoichiometry    C3H6O3
 Framework group  C1[X(C3H6O3)]
 Deg. of freedom    30
 Full point group                 C1      NOp   1
 Largest Abelian subgroup         C1      NOp   1
 Largest concise Abelian subgroup C1      NOp   1
                         Standard orientation:                         
 ---------------------------------------------------------------------
 Center     Atomic      Atomic             Coordinates (Angstroms)
 Number     Number       Type             X           Y           Z
 ---------------------------------------------------------------------
      1          6           0        0.021110   -0.274818   -0.000006
      2          6           0       -1.189545   -0.832785   -0.000437
      3          1           0        0.203055    0.793916    0.000825
      4          8           0        1.165246   -1.026450   -0.000590
      5          6           0       -2.399866    0.013217    0.000146
      6          1           0        1.935932   -0.405302   -0.000448
      7          8           0       -2.376892    1.237393    0.000740
      8          1           0       -1.323720   -1.905913   -0.001230
      9          1           0       -3.348097   -0.549356   -0.000023
     10          8           0        3.263625    0.624763    0.000094
     11          1           0        3.771621    0.961333    0.759540
     12          1           0        3.755178    0.985990   -0.758844
 ---------------------------------------------------------------------
 Rotational constants (GHZ):           7.8581660           1.2171714           1.0590579
 Standard basis: Aug-CC-pVDZ (5D, 7F)
 There are   204 symmetry adapted cartesian basis functions of A   symmetry.
 There are   192 symmetry adapted basis functions of A   symmetry.
   192 basis functions,   324 primitive gaussians,   204 cartesian basis functions
    24 alpha electrons       24 beta electrons
       nuclear repulsion energy       214.6553464047 Hartrees.
 NAtoms=   12 NActive=   12 NUniq=   12 SFac= 1.00D+00 NAtFMM=   60 NAOKFM=F Big=F
 Integral buffers will be    131072 words long.
 Raffenetti 1 integral format.
 Two-electron integral symmetry is turned on.
 One-electron integrals computed using PRISM.
 NBasis=   192 RedAO= T EigKep=  2.53D-05  NBF=   192
 NBsUse=   192 1.00D-06 EigRej= -1.00D+00 NBFU=   192
 ExpMin= 2.97D-02 ExpMax= 1.17D+04 ExpMxC= 4.01D+02 IAcc=3 IRadAn=         5 AccDes= 0.00D+00
 Harris functional with IExCor=  205 and IRadAn=       5 diagonalized for initial guess.
 HarFok:  IExCor=  205 AccDes= 0.00D+00 IRadAn=         5 IDoV= 1 UseB2=F ITyADJ=14
 ICtDFT=  3500011 ScaDFX=  1.000000  1.000000  1.000000  1.000000
 FoFCou: FMM=F IPFlag=           0 FMFlag=      100000 FMFlg1=           0
         NFxFlg=           0 DoJE=T BraDBF=F KetDBF=T FulRan=T
         wScrn=  0.000000 ICntrl=       500 IOpCl=  0 I1Cent=   200000004 NGrid=           0
         NMat0=    1 NMatS0=      1 NMatT0=    0 NMatD0=    1 NMtDS0=    0 NMtDT0=    0
 Petite list used in FoFCou.
 Keep R1 ints in memory in canonical form, NReq=180599904.
 Requested convergence on RMS density matrix=1.00D-08 within 128 cycles.
 Requested convergence on MAX density matrix=1.00D-06.
 Requested convergence on             energy=1.00D-06.
 No special actions if energy rises.
 SCF Done:  E(RHF) =  -341.710288820     A.U. after   14 cycles
            NFock= 14  Conv=0.95D-08     -V/T= 2.0017
 ExpMin= 2.97D-02 ExpMax= 1.17D+04 ExpMxC= 4.01D+02 IAcc=3 IRadAn=         5 AccDes= 0.00D+00
 HarFok:  IExCor=  205 AccDes= 0.00D+00 IRadAn=         5 IDoV=-2 UseB2=F ITyADJ=14
 ICtDFT= 12500011 ScaDFX=  1.000000  1.000000  1.000000  1.000000
 Range of M.O.s used for correlation:     7   192
 NBasis=   192 NAE=    24 NBE=    24 NFC=     6 NFV=     0
 NROrb=    186 NOA=    18 NOB=    18 NVA=   168 NVB=   168

 **** Warning!!: The largest alpha MO coefficient is  0.59918024D+02

 Fully direct method using O(ONN) memory.
 JobTyp=1 Pass  1:  I=   7 to  24 NPSUse= 40 ParTrn=T ParDer=T DoDerP=T.
 Spin components of T(2) and E(2):
     alpha-alpha T2 =       0.4223048766D-01 E2=     -0.1336003416D+00
     alpha-beta  T2 =       0.2331551452D+00 E2=     -0.7556082971D+00
     beta-beta   T2 =       0.4223048766D-01 E2=     -0.1336003416D+00
 ANorm=    0.1147874610D+01
 E2 =    -0.1022808980D+01 EUMP2 =    -0.34273309779980D+03
          IDoAtm=111111111111
          Differentiating once with respect to electric field.
                with respect to dipole field.
          Differentiating once with respect to nuclear coordinates.
 Keep R1 ints in memory in canonical form, NReq=180615331.
          There are     1 degrees of freedom in the 1st order CPHF.  IDoFFX=0 NUNeed=     1.
 LinEq1:  Iter=  0 NonCon=     1 RMS=4.81D-03 Max=1.23D-01 NDo=     1
 AX will form     1 AO Fock derivatives at one time.
 LinEq1:  Iter=  1 NonCon=     1 RMS=1.43D-03 Max=1.88D-02 NDo=     1
 LinEq1:  Iter=  2 NonCon=     1 RMS=5.40D-04 Max=1.18D-02 NDo=     1
 LinEq1:  Iter=  3 NonCon=     1 RMS=1.85D-04 Max=2.85D-03 NDo=     1
 LinEq1:  Iter=  4 NonCon=     1 RMS=6.81D-05 Max=1.12D-03 NDo=     1
 LinEq1:  Iter=  5 NonCon=     1 RMS=2.35D-05 Max=3.78D-04 NDo=     1
 LinEq1:  Iter=  6 NonCon=     1 RMS=9.24D-06 Max=3.10D-04 NDo=     1
 LinEq1:  Iter=  7 NonCon=     1 RMS=2.86D-06 Max=3.91D-05 NDo=     1
 LinEq1:  Iter=  8 NonCon=     1 RMS=1.11D-06 Max=2.78D-05 NDo=     1
 LinEq1:  Iter=  9 NonCon=     1 RMS=3.14D-07 Max=3.58D-06 NDo=     1
 LinEq1:  Iter= 10 NonCon=     1 RMS=7.75D-08 Max=1.04D-06 NDo=     1
 LinEq1:  Iter= 11 NonCon=     1 RMS=3.35D-08 Max=5.85D-07 NDo=     1
 LinEq1:  Iter= 12 NonCon=     1 RMS=8.29D-09 Max=1.04D-07 NDo=     1
 LinEq1:  Iter= 13 NonCon=     1 RMS=2.38D-09 Max=3.56D-08 NDo=     1
 LinEq1:  Iter= 14 NonCon=     1 RMS=6.97D-10 Max=5.58D-09 NDo=     1
 LinEq1:  Iter= 15 NonCon=     1 RMS=1.87D-10 Max=1.90D-09 NDo=     1
 LinEq1:  Iter= 16 NonCon=     0 RMS=3.22D-11 Max=4.41D-10 NDo=     1
 Linear equations converged to 1.000D-10 1.000D-09 after    16 iterations.
 End of Minotr F.D. properties file   721 does not exist.
 End of Minotr F.D. properties file   722 does not exist.
 End of Minotr F.D. properties file   788 does not exist.

 **********************************************************************

            Population analysis using the SCF Density.

 **********************************************************************

 Orbital symmetries:
       Occupied  (A) (A) (A) (A) (A) (A) (A) (A) (A) (A) (A) (A)
                 (A) (A) (A) (A) (A) (A) (A) (A) (A) (A) (A) (A)
       Virtual   (A) (A) (A) (A) (A) (A) (A) (A) (A) (A) (A) (A)
                 (A) (A) (A) (A) (A) (A) (A) (A) (A) (A) (A) (A)
                 (A) (A) (A) (A) (A) (A) (A) (A) (A) (A) (A) (A)
                 (A) (A) (A) (A) (A) (A) (A) (A) (A) (A) (A) (A)
                 (A) (A) (A) (A) (A) (A) (A) (A) (A) (A) (A) (A)
                 (A) (A) (A) (A) (A) (A) (A) (A) (A) (A) (A) (A)
                 (A) (A) (A) (A) (A) (A) (A) (A) (A) (A) (A) (A)
                 (A) (A) (A) (A) (A) (A) (A) (A) (A) (A) (A) (A)
                 (A) (A) (A) (A) (A) (A) (A) (A) (A) (A) (A) (A)
                 (A) (A) (A) (A) (A) (A) (A) (A) (A) (A) (A) (A)
                 (A) (A) (A) (A) (A) (A) (A) (A) (A) (A) (A) (A)
                 (A) (A) (A) (A) (A) (A) (A) (A) (A) (A) (A) (A)
                 (A) (A) (A) (A) (A) (A) (A) (A) (A) (A) (A) (A)
                 (A) (A) (A) (A) (A) (A) (A) (A) (A) (A) (A) (A)
 The electronic state is 1-A.
 Alpha  occ. eigenvalues --  -20.63267 -20.59095 -20.53976 -11.32751 -11.32164
 Alpha  occ. eigenvalues --  -11.21831  -1.41084  -1.39072  -1.36536  -1.05076
 Alpha  occ. eigenvalues --   -0.87402  -0.76049  -0.75858  -0.74669  -0.66327
 Alpha  occ. eigenvalues --   -0.64184  -0.61287  -0.58127  -0.56938  -0.56505
 Alpha  occ. eigenvalues --   -0.52033  -0.51465  -0.40905  -0.34501
 Alpha virt. eigenvalues --    0.01576   0.04445   0.04509   0.05954   0.06525
 Alpha virt. eigenvalues --    0.07565   0.08638   0.11688   0.12466   0.13411
 Alpha virt. eigenvalues --    0.15077   0.15081   0.15824   0.16603   0.16819
 Alpha virt. eigenvalues --    0.17849   0.18981   0.19296   0.20684   0.22941
 Alpha virt. eigenvalues --    0.23201   0.24896   0.25336   0.25685   0.26712
 Alpha virt. eigenvalues --    0.29196   0.30681   0.31121   0.31392   0.31968
 Alpha virt. eigenvalues --    0.33744   0.34382   0.35970   0.36006   0.37382
 Alpha virt. eigenvalues --    0.38946   0.39763   0.41180   0.41229   0.44334
 Alpha virt. eigenvalues --    0.44419   0.46447   0.48351   0.49347   0.49935
 Alpha virt. eigenvalues --    0.52991   0.53695   0.54297   0.54367   0.54452
 Alpha virt. eigenvalues --    0.55595   0.59983   0.60816   0.62690   0.63209
 Alpha virt. eigenvalues --    0.63276   0.65751   0.65796   0.66639   0.67426
 Alpha virt. eigenvalues --    0.69736   0.70297   0.72901   0.74701   0.76304
 Alpha virt. eigenvalues --    0.76417   0.80119   0.82238   0.83703   0.83881
 Alpha virt. eigenvalues --    0.85921   0.88724   0.91076   0.91135   0.92019
 Alpha virt. eigenvalues --    0.95417   0.97076   0.97209   0.99492   1.02665
 Alpha virt. eigenvalues --    1.05474   1.09070   1.09560   1.12617   1.16761
 Alpha virt. eigenvalues --    1.19932   1.21820   1.23600   1.25938   1.26834
 Alpha virt. eigenvalues --    1.29266   1.30778   1.33631   1.34160   1.36723
 Alpha virt. eigenvalues --    1.41112   1.44253   1.48341   1.50270   1.52186
 Alpha virt. eigenvalues --    1.53908   1.56168   1.60178   1.62352   1.62424
 Alpha virt. eigenvalues --    1.66259   1.69085   1.72156   1.73283   1.76821
 Alpha virt. eigenvalues --    1.79819   1.80683   1.80825   1.86951   1.92031
 Alpha virt. eigenvalues --    1.94142   1.96987   1.97761   2.00932   2.01781
 Alpha virt. eigenvalues --    2.04242   2.06906   2.09910   2.11509   2.11661
 Alpha virt. eigenvalues --    2.18002   2.18060   2.23120   2.24511   2.24571
 Alpha virt. eigenvalues --    2.27619   2.37467   2.40783   2.41857   2.43284
 Alpha virt. eigenvalues --    2.46795   2.48999   2.51867   2.58298   2.64712
 Alpha virt. eigenvalues --    2.72943   2.76417   2.80599   2.85836   2.91129
 Alpha virt. eigenvalues --    2.95870   3.03136   3.08835   3.23819   3.24130
 Alpha virt. eigenvalues --    3.31287   3.47974   3.55042   3.64673   3.71182
 Alpha virt. eigenvalues --    3.73526   3.76270   3.78573   3.79462   3.81467
 Alpha virt. eigenvalues --    3.83210   3.84102   3.96202   4.03164   4.07753
 Alpha virt. eigenvalues --    4.15162   4.28345   4.50168
          Condensed to atoms (all electrons):
               1          2          3          4          5          6
     1  C    5.259272  -0.035565  -0.050187  -0.129143  -0.124582   0.049493
     2  C   -0.035565   5.608725  -0.078750  -0.006807   0.108480  -0.070517
     3  H   -0.050187  -0.078750   1.642808   0.032321  -0.087592  -0.124745
     4  O   -0.129143  -0.006807   0.032321   8.681244   0.018063   0.296183
     5  C   -0.124582   0.108480  -0.087592   0.018063   4.971533   0.010402
     6  H    0.049493  -0.070517  -0.124745   0.296183   0.010402   0.541347
     7  O   -0.014044  -0.051220   0.003997  -0.007828   0.308121  -0.000313
     8  H    0.048885  -0.086173   0.076796  -0.002306  -0.067881  -0.014054
     9  H    0.017722   0.055978  -0.006607  -0.000264   0.174738  -0.000009
    10  O    0.029550  -0.035409  -0.001061  -0.066640  -0.004801  -0.077403
    11  H    0.001448   0.000843   0.000221  -0.000494  -0.000089  -0.000888
    12  H    0.001382   0.000835   0.000247  -0.000429  -0.000090  -0.000811
               7          8          9         10         11         12
     1  C   -0.014044   0.048885   0.017722   0.029550   0.001448   0.001382
     2  C   -0.051220  -0.086173   0.055978  -0.035409   0.000843   0.000835
     3  H    0.003997   0.076796  -0.006607  -0.001061   0.000221   0.000247
     4  O   -0.007828  -0.002306  -0.000264  -0.066640  -0.000494  -0.000429
     5  C    0.308121  -0.067881   0.174738  -0.004801  -0.000089  -0.000090
     6  H   -0.000313  -0.014054  -0.000009  -0.077403  -0.000888  -0.000811
     7  O    8.570548  -0.003769  -0.060114   0.000992   0.000116   0.000116
     8  H   -0.003769   1.559545  -0.067086  -0.000068   0.000054   0.000049
     9  H   -0.060114  -0.067086   0.998164  -0.000355   0.000003   0.000003
    10  O    0.000992  -0.000068  -0.000355   7.975497   0.350863   0.350780
    11  H    0.000116   0.000054   0.000003   0.350863   0.476223  -0.041067
    12  H    0.000116   0.000049   0.000003   0.350780  -0.041067   0.476052
 Mulliken charges:
               1
     1  C    0.945768
     2  C    0.589580
     3  H   -0.407448
     4  O   -0.813901
     5  C    0.693699
     6  H    0.391315
     7  O   -0.746603
     8  H   -0.443994
     9  H   -0.112173
    10  O   -0.521944
    11  H    0.212768
    12  H    0.212933
 Sum of Mulliken charges =  -0.00000
 Mulliken charges with hydrogens summed into heavy atoms:
               1
     1  C    0.538320
     2  C    0.145586
     4  O   -0.422586
     5  C    0.581526
     7  O   -0.746603
    10  O   -0.096243
 Electronic spatial extent (au):  <R**2>=           1018.6077
 Charge=             -0.0000 electrons
 Dipole moment (field-independent basis, Debye):
    X=              5.3336    Y=              0.2065    Z=              0.0006  Tot=              5.3376
 Quadrupole moment (field-independent basis, Debye-Ang):
   XX=            -19.4383   YY=            -39.8792   ZZ=            -35.0632
   XY=             16.9770   XZ=              0.0448   YZ=             -0.0546
 Traceless Quadrupole moment (field-independent basis, Debye-Ang):
   XX=             12.0219   YY=             -8.4190   ZZ=             -3.6029
   XY=             16.9770   XZ=              0.0448   YZ=             -0.0546
 Octapole moment (field-independent basis, Debye-Ang**2):
  XXX=            103.9138  YYY=              1.5356  ZZZ=              0.0068  XYY=             18.5210
  XXY=             11.8144  XXZ=              0.2719  XZZ=             16.0396  YZZ=              5.5117
  YYZ=             -0.1016  XYZ=             -0.1590
 Hexadecapole moment (field-independent basis, Debye-Ang**3):
 XXXX=           -643.0706 YYYY=           -189.4952 ZZZZ=            -37.9806 XXXY=            180.5672
 XXXZ=              1.5790 YYYX=             31.2758 YYYZ=             -0.1640 ZZZX=              0.0510
 ZZZY=             -0.0611 XXYY=           -192.7115 XXZZ=           -138.0769 YYZZ=            -37.1664
 XXYZ=             -0.4958 YYXZ=             -0.3096 ZZXY=              9.7373
 N-N= 2.146553464047D+02 E-N=-1.235037700012D+03  KE= 3.411284944210D+02
 Calling FoFJK, ICntrl=  10002127 FMM=F ISym2X=0 I1Cent= 0 IOpClX= 0 NMat=1 NMatS=1 NMatT=0.
 ***** Axes restored to original set *****
 -------------------------------------------------------------------
 Center     Atomic                   Forces (Hartrees/Bohr)
 Number     Number              X              Y              Z
 -------------------------------------------------------------------
      1        6           0.027876989    0.027959450    0.016178335
      2        6          -0.020229179   -0.017620008   -0.016651778
      3        1          -0.004916149   -0.008895660    0.004395172
      4        8          -0.003200254   -0.007095619    0.005286377
      5        6           0.011855062    0.016647276   -0.001846063
      6        1          -0.004378159    0.000343528   -0.011180653
      7        8          -0.005390468   -0.012962620    0.010749618
      8        1           0.002061151    0.005993289   -0.006017013
      9        1          -0.005520923   -0.004368271   -0.005358542
     10        8           0.008907982    0.002184537    0.017545861
     11        1          -0.005202737    0.000106094   -0.005852861
     12        1          -0.001863316   -0.002291996   -0.007248453
 -------------------------------------------------------------------
 Cartesian Forces:  Max     0.027959450 RMS     0.011274312

 GradGradGradGradGradGradGradGradGradGradGradGradGradGradGradGradGradGrad
 Berny optimization.
 FormGI is forming the generalized inverse of G from B-inverse, IUseBI=4.
 Internal  Forces:  Max     0.028028761 RMS     0.006771600
 Search for a local minimum.
 Step number   1 out of a maximum of   49
 All quantities printed in internal units (Hartrees-Bohrs-Radians)
 Mixed Optimization -- RFO/linear search
 Second derivative matrix not updated -- first step.
 ITU=  0
     Eigenvalues ---    0.00230   0.00230   0.00230   0.00930   0.01074
     Eigenvalues ---    0.01074   0.02063   0.02103   0.02723   0.02974
     Eigenvalues ---    0.07703   0.15982   0.16000   0.16000   0.16000
     Eigenvalues ---    0.16000   0.16000   0.22000   0.22000   0.22000
     Eigenvalues ---    0.33401   0.34952   0.35502   0.35816   0.49520
     Eigenvalues ---    0.51181   0.52627   0.52628   0.58792   0.93464
 RFO step:  Lambda=-4.95631426D-03 EMin= 2.30000000D-03
 Linear search not attempted -- first point.
 Iteration  1 RMS(Cart)=  0.12073024 RMS(Int)=  0.00885093
 Iteration  2 RMS(Cart)=  0.03347934 RMS(Int)=  0.00057042
 Iteration  3 RMS(Cart)=  0.00042891 RMS(Int)=  0.00048915
 Iteration  4 RMS(Cart)=  0.00000021 RMS(Int)=  0.00048915
 Variable       Old X    -DE/DX   Delta X   Delta X   Delta X     New X
                                 (Linear)    (Quad)   (Total)
    R1        2.51909   0.02803   0.00000   0.04728   0.04728   2.56637
    R2        2.04867   0.00796   0.00000   0.02211   0.02211   2.07078
    R3        2.58692  -0.00877   0.00000  -0.01698  -0.01698   2.56994
    R4        2.79053   0.00024   0.00000   0.00067   0.00067   2.79120
    R5        2.04371   0.00822   0.00000   0.02265   0.02265   2.06635
    R6        1.87052  -0.00709   0.00000  -0.01418  -0.01411   1.85641
    R7        2.31377   0.01657   0.00000   0.01764   0.01764   2.33140
    R8        2.08353   0.00821   0.00000   0.02421   0.02421   2.10774
    R9        3.17553   0.00476   0.00000   0.05811   0.05807   3.23360
   R10        1.84003  -0.00640   0.00000  -0.01205  -0.01205   1.82798
   R11        1.84003  -0.00640   0.00000  -0.01205  -0.01205   1.82798
    A1        2.17129  -0.00872   0.00000  -0.05152  -0.05152   2.11977
    A2        2.12849   0.00167   0.00000   0.00742   0.00742   2.13590
    A3        1.98341   0.00705   0.00000   0.04411   0.04411   2.02752
    A4        2.09968  -0.00000   0.00000  -0.00001  -0.00001   2.09966
    A5        2.12705  -0.00302   0.00000  -0.01832  -0.01832   2.10873
    A6        2.05646   0.00302   0.00000   0.01834   0.01834   2.07479
    A7        1.88198   0.00046   0.00000   0.00282   0.00282   1.88480
    A8        2.16208   0.00721   0.00000   0.03204   0.03204   2.19412
    A9        1.99607  -0.00016   0.00000   0.00488   0.00488   2.00095
   A10        2.12503  -0.00705   0.00000  -0.03692  -0.03692   2.08811
   A11        2.24508  -0.00278   0.00000  -0.01733  -0.01728   2.22780
   A12        2.24723  -0.00275   0.00000  -0.01715  -0.01722   2.23001
   A13        1.78884   0.00551   0.00000   0.03292   0.03282   1.82166
   A14        3.16013  -0.00168   0.00000  -0.23200  -0.23288   2.92725
   A15        3.14139  -0.00001   0.00000  -0.00150  -0.00152   3.13987
    D1        0.00006   0.00000   0.00000   0.00008   0.00008   0.00014
    D2       -3.14155   0.00000   0.00000   0.00011   0.00010  -3.14144
    D3       -3.14154  -0.00000   0.00000  -0.00008  -0.00008   3.14157
    D4        0.00004  -0.00000   0.00000  -0.00005  -0.00005  -0.00001
    D5        3.14123  -0.00000   0.00000  -0.00019  -0.00019   3.14105
    D6       -0.00036  -0.00001   0.00000  -0.00033  -0.00034  -0.00070
    D7        0.00029  -0.00000   0.00000  -0.00005  -0.00005   0.00023
    D8       -3.14134   0.00000   0.00000   0.00002   0.00002  -3.14132
    D9       -3.14129  -0.00000   0.00000  -0.00008  -0.00008  -3.14137
   D10        0.00027  -0.00000   0.00000  -0.00001  -0.00001   0.00027
   D11        1.63555  -0.00042   0.00000  -0.05746  -0.05590   1.57965
   D12       -1.59780   0.00037   0.00000   0.05117   0.04962  -1.54819
   D13        3.07711  -0.00047   0.00000  -0.02487  -0.02296   3.05415
         Item               Value     Threshold  Converged?
 Maximum Force            0.028029     0.000450     NO 
 RMS     Force            0.006772     0.000300     NO 
 Maximum Displacement     0.335285     0.001800     NO 
 RMS     Displacement     0.150604     0.001200     NO 
 Predicted change in Energy=-2.671520D-03
 GradGradGradGradGradGradGradGradGradGradGradGradGradGradGradGradGradGrad

                          Input orientation:                          
 ---------------------------------------------------------------------
 Center     Atomic      Atomic             Coordinates (Angstroms)
 Number     Number       Type             X           Y           Z
 ---------------------------------------------------------------------
      1          6           0       -0.552276    0.993350   -0.113197
      2          6           0       -1.323649    0.528316   -1.129596
      3          1           0       -0.528692    0.493431    0.861649
      4          8           0        0.231573    2.097406   -0.240150
      5          6           0       -2.157976   -0.675870   -0.941219
      6          1           0        0.692990    2.241894    0.614993
      7          8           0       -2.236619   -1.342836    0.093697
      8          1           0       -1.339197    1.035268   -2.098321
      9          1           0       -2.752773   -0.974301   -1.836315
     10          8           0        1.315580    2.192773    2.208101
     11          1           0        2.137633    1.780971    2.508712
     12          1           0        0.968610    2.637754    2.993800
 ---------------------------------------------------------------------
                    Distance matrix (angstroms):
                    1          2          3          4          5
     1  C    0.000000
     2  C    1.358065   0.000000
     3  H    1.095810   2.144348   0.000000
     4  O    1.359955   2.381570   2.089187   0.000000
     5  C    2.459713   1.477041   2.696695   3.727265   0.000000
     6  H    1.907829   3.169665   2.147200   0.982371   4.366137
     7  O    2.887487   2.414781   2.622716   4.247198   1.233726
     8  H    2.135818   1.093467   3.116397   2.654855   2.221999
     9  H    3.418036   2.190822   3.792068   4.570498   1.115366
    10  O    3.211842   4.569045   2.846408   2.679197   5.496628
    11  H    3.838016   5.175607   3.388195   3.359976   6.032441
    12  H    3.830221   5.167841   3.374330   3.360600   6.019968
                    6          7          8          9         10
     6  H    0.000000
     7  O    4.658824   0.000000
     8  H    3.598306   3.356440   0.000000
     9  H    5.312824   2.031547   2.470873   0.000000
    10  O    1.711147   5.439609   5.189695   6.552797   0.000000
    11  H    2.426028   5.892753   5.819723   7.098370   0.967325
    12  H    2.427220   5.876154   5.815809   7.087005   0.967327
                   11         12
    11  H    0.000000
    12  H    1.528399   0.000000
 Stoichiometry    C3H6O3
 Framework group  C1[X(C3H6O3)]
 Deg. of freedom    30
 Full point group                 C1      NOp   1
 Largest Abelian subgroup         C1      NOp   1
 Largest concise Abelian subgroup C1      NOp   1
                         Standard orientation:                         
 ---------------------------------------------------------------------
 Center     Atomic      Atomic             Coordinates (Angstroms)
 Number     Number       Type             X           Y           Z
 ---------------------------------------------------------------------
      1          6           0        0.083207   -0.349017   -0.000374
      2          6           0       -1.176733   -0.855861    0.000024
      3          1           0        0.264819    0.731638   -0.000252
      4          8           0        1.187493   -1.142762   -0.000761
      5          6           0       -2.344072    0.049109    0.000457
      6          1           0        1.979203   -0.561171   -0.001514
      7          8           0       -2.299495    1.282029    0.000266
      8          1           0       -1.346043   -1.936141    0.000038
      9          1           0       -3.332788   -0.467110    0.001043
     10          8           0        3.111211    0.722019    0.000276
     11          1           0        3.541429    1.129251    0.764994
     12          1           0        3.525305    1.147860   -0.763207
 ---------------------------------------------------------------------
 Rotational constants (GHZ):           6.8256510           1.3020664           1.0990716
 Standard basis: Aug-CC-pVDZ (5D, 7F)
 There are   204 symmetry adapted cartesian basis functions of A   symmetry.
 There are   192 symmetry adapted basis functions of A   symmetry.
   192 basis functions,   324 primitive gaussians,   204 cartesian basis functions
    24 alpha electrons       24 beta electrons
       nuclear repulsion energy       214.8941719832 Hartrees.
 NAtoms=   12 NActive=   12 NUniq=   12 SFac= 1.00D+00 NAtFMM=   60 NAOKFM=F Big=F
 Integral buffers will be    131072 words long.
 Raffenetti 1 integral format.
 Two-electron integral symmetry is turned on.
 One-electron integrals computed using PRISM.
 NBasis=   192 RedAO= T EigKep=  2.68D-05  NBF=   192
 NBsUse=   192 1.00D-06 EigRej= -1.00D+00 NBFU=   192
 Initial guess from the checkpoint file:  "/scr/Gau-35124.chk"
 B after Tr=     0.000000    0.000000    0.000000
         Rot=    0.999995    0.000159    0.000003   -0.003201 Ang=   0.37 deg.
 ExpMin= 2.97D-02 ExpMax= 1.17D+04 ExpMxC= 4.01D+02 IAcc=3 IRadAn=         5 AccDes= 0.00D+00
 Harris functional with IExCor=  205 and IRadAn=       5 diagonalized for initial guess.
 HarFok:  IExCor=  205 AccDes= 0.00D+00 IRadAn=         5 IDoV= 1 UseB2=F ITyADJ=14
 ICtDFT=  3500011 ScaDFX=  1.000000  1.000000  1.000000  1.000000
 FoFCou: FMM=F IPFlag=           0 FMFlag=      100000 FMFlg1=           0
         NFxFlg=           0 DoJE=T BraDBF=F KetDBF=T FulRan=T
         wScrn=  0.000000 ICntrl=       500 IOpCl=  0 I1Cent=   200000004 NGrid=           0
         NMat0=    1 NMatS0=      1 NMatT0=    0 NMatD0=    1 NMtDS0=    0 NMtDT0=    0
 Petite list used in FoFCou.
 Keep R1 ints in memory in canonical form, NReq=180603442.
 Requested convergence on RMS density matrix=1.00D-08 within 128 cycles.
 Requested convergence on MAX density matrix=1.00D-06.
 Requested convergence on             energy=1.00D-06.
 No special actions if energy rises.
 SCF Done:  E(RHF) =  -341.711347929     A.U. after   13 cycles
            NFock= 13  Conv=0.24D-08     -V/T= 2.0021
 ExpMin= 2.97D-02 ExpMax= 1.17D+04 ExpMxC= 4.01D+02 IAcc=3 IRadAn=         5 AccDes= 0.00D+00
 HarFok:  IExCor=  205 AccDes= 0.00D+00 IRadAn=         5 IDoV=-2 UseB2=F ITyADJ=14
 ICtDFT= 12500011 ScaDFX=  1.000000  1.000000  1.000000  1.000000
 Range of M.O.s used for correlation:     7   192
 NBasis=   192 NAE=    24 NBE=    24 NFC=     6 NFV=     0
 NROrb=    186 NOA=    18 NOB=    18 NVA=   168 NVB=   168

 **** Warning!!: The largest alpha MO coefficient is  0.46571101D+02

 Fully direct method using O(ONN) memory.
 JobTyp=1 Pass  1:  I=   7 to  24 NPSUse= 40 ParTrn=T ParDer=T DoDerP=T.
 Spin components of T(2) and E(2):
     alpha-alpha T2 =       0.4250162171D-01 E2=     -0.1338001039D+00
     alpha-beta  T2 =       0.2347189498D+00 E2=     -0.7567616044D+00
     beta-beta   T2 =       0.4250162171D-01 E2=     -0.1338001039D+00
 ANorm=    0.1148791623D+01
 E2 =    -0.1024361812D+01 EUMP2 =    -0.34273570974136D+03
          IDoAtm=111111111111
          Differentiating once with respect to electric field.
                with respect to dipole field.
          Differentiating once with respect to nuclear coordinates.
 Keep R1 ints in memory in canonical form, NReq=180617894.
          There are     1 degrees of freedom in the 1st order CPHF.  IDoFFX=0 NUNeed=     1.
 LinEq1:  Iter=  0 NonCon=     1 RMS=4.87D-03 Max=1.21D-01 NDo=     1
 AX will form     1 AO Fock derivatives at one time.
 LinEq1:  Iter=  1 NonCon=     1 RMS=1.46D-03 Max=1.93D-02 NDo=     1
 LinEq1:  Iter=  2 NonCon=     1 RMS=5.62D-04 Max=1.23D-02 NDo=     1
 LinEq1:  Iter=  3 NonCon=     1 RMS=2.02D-04 Max=3.12D-03 NDo=     1
 LinEq1:  Iter=  4 NonCon=     1 RMS=7.44D-05 Max=1.15D-03 NDo=     1
 LinEq1:  Iter=  5 NonCon=     1 RMS=2.65D-05 Max=5.70D-04 NDo=     1
 LinEq1:  Iter=  6 NonCon=     1 RMS=1.02D-05 Max=3.20D-04 NDo=     1
 LinEq1:  Iter=  7 NonCon=     1 RMS=3.10D-06 Max=3.96D-05 NDo=     1
 LinEq1:  Iter=  8 NonCon=     1 RMS=1.19D-06 Max=2.71D-05 NDo=     1
 LinEq1:  Iter=  9 NonCon=     1 RMS=3.25D-07 Max=3.35D-06 NDo=     1
 LinEq1:  Iter= 10 NonCon=     1 RMS=7.34D-08 Max=7.04D-07 NDo=     1
 LinEq1:  Iter= 11 NonCon=     1 RMS=3.09D-08 Max=5.18D-07 NDo=     1
 LinEq1:  Iter= 12 NonCon=     1 RMS=8.28D-09 Max=9.67D-08 NDo=     1
 LinEq1:  Iter= 13 NonCon=     1 RMS=2.51D-09 Max=3.91D-08 NDo=     1
 LinEq1:  Iter= 14 NonCon=     1 RMS=7.54D-10 Max=5.67D-09 NDo=     1
 LinEq1:  Iter= 15 NonCon=     1 RMS=2.02D-10 Max=2.55D-09 NDo=     1
 LinEq1:  Iter= 16 NonCon=     0 RMS=3.43D-11 Max=4.60D-10 NDo=     1
 Linear equations converged to 1.000D-10 1.000D-09 after    16 iterations.
 End of Minotr F.D. properties file   721 does not exist.
 End of Minotr F.D. properties file   722 does not exist.
 End of Minotr F.D. properties file   788 does not exist.
 Calling FoFJK, ICntrl=  10002127 FMM=F ISym2X=0 I1Cent= 0 IOpClX= 0 NMat=1 NMatS=1 NMatT=0.
 ***** Axes restored to original set *****
 -------------------------------------------------------------------
 Center     Atomic                   Forces (Hartrees/Bohr)
 Number     Number              X              Y              Z
 -------------------------------------------------------------------
      1        6           0.006825548    0.008435944    0.001023836
      2        6          -0.003958949   -0.004795630   -0.000784405
      3        1          -0.001246004   -0.001304072   -0.000647484
      4        8          -0.003603401   -0.004831618    0.000209033
      5        6           0.002730118    0.005112910   -0.002793578
      6        1          -0.002915486   -0.001785387   -0.003809473
      7        8           0.000144452   -0.001238661    0.002633999
      8        1           0.000346844    0.000173149    0.000523067
      9        1          -0.000096234   -0.000100036   -0.000040747
     10        8           0.003232833    0.000161490    0.007505615
     11        1          -0.000636795   -0.000003389   -0.001949225
     12        1          -0.000822928    0.000175301   -0.001870639
 -------------------------------------------------------------------
 Cartesian Forces:  Max     0.008435944 RMS     0.003117576

 GradGradGradGradGradGradGradGradGradGradGradGradGradGradGradGradGradGrad
 Berny optimization.
 Using GEDIIS/GDIIS optimizer.
 FormGI is forming the generalized inverse of G from B-inverse, IUseBI=4.
 Internal  Forces:  Max     0.007844565 RMS     0.001874936
 Search for a local minimum.
 Step number   2 out of a maximum of   49
 All quantities printed in internal units (Hartrees-Bohrs-Radians)
 Mixed Optimization -- RFO/linear search
 Update second derivatives using D2CorX and points    1    2
 DE= -2.61D-03 DEPred=-2.67D-03 R= 9.78D-01
 TightC=F SS=  1.41D+00  RLast= 2.79D-01 DXNew= 5.0454D-01 8.3815D-01
 Trust test= 9.78D-01 RLast= 2.79D-01 DXMaxT set to 5.05D-01
 ITU=  1  0
 Use linear search instead of GDIIS.
     Eigenvalues ---    0.00230   0.00230   0.00326   0.00954   0.01074
     Eigenvalues ---    0.01074   0.02043   0.02103   0.02703   0.02974
     Eigenvalues ---    0.06661   0.13863   0.15982   0.16000   0.16000
     Eigenvalues ---    0.16000   0.16120   0.21796   0.22000   0.22572
     Eigenvalues ---    0.32867   0.34526   0.35640   0.36790   0.46767
     Eigenvalues ---    0.49922   0.52628   0.52734   0.60118   0.91944
 RFO step:  Lambda=-1.91589449D-03 EMin= 2.29988838D-03
 Quartic linear search produced a step of  0.06178.
 Iteration  1 RMS(Cart)=  0.15291208 RMS(Int)=  0.04102217
 Iteration  2 RMS(Cart)=  0.13405552 RMS(Int)=  0.00928576
 Iteration  3 RMS(Cart)=  0.02392422 RMS(Int)=  0.00112608
 Iteration  4 RMS(Cart)=  0.00051426 RMS(Int)=  0.00110178
 Iteration  5 RMS(Cart)=  0.00000019 RMS(Int)=  0.00110178
 Variable       Old X    -DE/DX   Delta X   Delta X   Delta X     New X
                                 (Linear)    (Quad)   (Total)
    R1        2.56637   0.00111   0.00292   0.02453   0.02745   2.59382
    R2        2.07078  -0.00001   0.00137   0.01044   0.01180   2.08258
    R3        2.56994  -0.00784  -0.00105  -0.02493  -0.02598   2.54396
    R4        2.79120  -0.00467   0.00004  -0.01437  -0.01433   2.77687
    R5        2.06635  -0.00039   0.00140   0.00953   0.01093   2.07728
    R6        1.85641  -0.00084  -0.00087  -0.00855  -0.00927   1.84714
    R7        2.33140   0.00287   0.00109   0.01178   0.01287   2.34427
    R8        2.10774   0.00011   0.00150   0.01181   0.01331   2.12105
    R9        3.23360   0.00406   0.00359   0.08345   0.08695   3.32055
   R10        1.82798  -0.00115  -0.00074  -0.00812  -0.00886   1.81912
   R11        1.82798  -0.00114  -0.00074  -0.00811  -0.00885   1.81913
    A1        2.11977  -0.00235  -0.00318  -0.03952  -0.04271   2.07706
    A2        2.13590   0.00074   0.00046   0.00715   0.00761   2.14352
    A3        2.02752   0.00162   0.00273   0.03237   0.03509   2.06261
    A4        2.09966  -0.00134  -0.00000  -0.00668  -0.00668   2.09298
    A5        2.10873   0.00013  -0.00113  -0.00893  -0.01006   2.09866
    A6        2.07479   0.00121   0.00113   0.01562   0.01675   2.09154
    A7        1.88480  -0.00089   0.00017  -0.00477  -0.00459   1.88021
    A8        2.19412  -0.00085   0.00198   0.01084   0.01282   2.20694
    A9        2.00095   0.00052   0.00030   0.00504   0.00534   2.00629
   A10        2.08811   0.00033  -0.00228  -0.01588  -0.01816   2.06995
   A11        2.22780  -0.00101  -0.00107  -0.01425  -0.01536   2.21244
   A12        2.23001  -0.00103  -0.00106  -0.01438  -0.01525   2.21476
   A13        1.82166   0.00206   0.00203   0.03015   0.03158   1.85324
   A14        2.92725   0.00190  -0.01439   0.45845   0.44593   3.37318
   A15        3.13987   0.00002  -0.00009   0.00452   0.00444   3.14431
    D1        0.00014   0.00000   0.00000   0.00009   0.00010   0.00024
    D2       -3.14144   0.00000   0.00001   0.00009   0.00010  -3.14134
    D3        3.14157  -0.00000  -0.00000  -0.00008  -0.00009   3.14149
    D4       -0.00001  -0.00000  -0.00000  -0.00009  -0.00009  -0.00010
    D5        3.14105  -0.00001  -0.00001  -0.00038  -0.00039   3.14066
    D6       -0.00070  -0.00001  -0.00002  -0.00055  -0.00058  -0.00127
    D7        0.00023   0.00000  -0.00000   0.00016   0.00015   0.00039
    D8       -3.14132  -0.00000   0.00000  -0.00023  -0.00023  -3.14155
    D9       -3.14137   0.00000  -0.00000   0.00016   0.00015  -3.14121
   D10        0.00027  -0.00000  -0.00000  -0.00023  -0.00023   0.00004
   D11        1.57965   0.00043  -0.00345   0.11342   0.10639   1.68604
   D12       -1.54819  -0.00048   0.00307  -0.12754  -0.12089  -1.66908
   D13        3.05415   0.00034  -0.00142   0.01749   0.01185   3.06600
         Item               Value     Threshold  Converged?
 Maximum Force            0.007845     0.000450     NO 
 RMS     Force            0.001875     0.000300     NO 
 Maximum Displacement     0.666353     0.001800     NO 
 RMS     Displacement     0.300253     0.001200     NO 
 Predicted change in Energy=-1.213890D-03
 GradGradGradGradGradGradGradGradGradGradGradGradGradGradGradGradGradGrad

                          Input orientation:                          
 ---------------------------------------------------------------------
 Center     Atomic      Atomic             Coordinates (Angstroms)
 Number     Number       Type             X           Y           Z
 ---------------------------------------------------------------------
      1          6           0       -0.632974    0.849685   -0.050591
      2          6           0       -1.364150    0.490384   -1.155255
      3          1           0       -0.712863    0.240638    0.864399
      4          8           0        0.183892    1.919585   -0.032791
      5          6           0       -2.236559   -0.690974   -1.104254
      6          1           0        0.589685    1.969492    0.855061
      7          8           0       -2.402027   -1.443536   -0.132042
      8          1           0       -1.299722    1.083221   -2.078696
      9          1           0       -2.795411   -0.908210   -2.053093
     10          8           0        1.499772    2.389250    2.298373
     11          1           0        2.398440    2.118246    2.511964
     12          1           0        1.227120    2.990373    2.999080
 ---------------------------------------------------------------------
                    Distance matrix (angstroms):
                    1          2          3          4          5
     1  C    0.000000
     2  C    1.372589   0.000000
     3  H    1.102056   2.136715   0.000000
     4  O    1.346206   2.387252   2.104277   0.000000
     5  C    2.460757   1.469458   2.658034   3.717746   0.000000
     6  H    1.889197   3.169637   2.164637   0.977466   4.347947
     7  O    2.897421   2.421612   2.585075   4.243514   1.240534
     8  H    2.147628   1.099249   3.117075   2.662019   2.230464
     9  H    3.431669   2.193329   3.764123   4.577586   1.122410
    10  O    3.526541   4.871887   3.401260   2.717802   5.918261
    11  H    4.167181   5.500501   3.989998   3.379270   6.515517
    12  H    4.164491   5.497556   3.985152   3.380407   6.510510
                    6          7          8          9         10
     6  H    0.000000
     7  O    4.644725   0.000000
     8  H    3.600314   3.374765   0.000000
     9  H    5.310123   2.032674   2.490691   0.000000
    10  O    1.757158   5.985082   5.357389   6.946733   0.000000
    11  H    2.457448   6.536172   5.985135   7.548197   0.962637
    12  H    2.458728   6.529485   5.983809   7.543485   0.962641
                   11         12
    11  H    0.000000
    12  H    1.539441   0.000000
 Stoichiometry    C3H6O3
 Framework group  C1[X(C3H6O3)]
 Deg. of freedom    30
 Full point group                 C1      NOp   1
 Largest Abelian subgroup         C1      NOp   1
 Largest concise Abelian subgroup C1      NOp   1
                         Standard orientation:                         
 ---------------------------------------------------------------------
 Center     Atomic      Atomic             Coordinates (Angstroms)
 Number     Number       Type             X           Y           Z
 ---------------------------------------------------------------------
      1          6           0        0.006506   -0.228178    0.001094
      2          6           0       -1.221642   -0.841078   -0.001119
      3          1           0        0.054297    0.872839    0.003287
      4          8           0        1.164472   -0.914754    0.001097
      5          6           0       -2.446156   -0.028752   -0.000847
      6          1           0        1.895330   -0.265689    0.002014
      7          8           0       -2.508669    1.210205    0.000866
      8          1           0       -1.293023   -1.938006   -0.003087
      9          1           0       -3.403288   -0.615009   -0.002716
     10          8           0        3.441902    0.568405   -0.000883
     11          1           0        3.969713    0.806171    0.768241
     12          1           0        3.963076    0.816895   -0.771148
 ---------------------------------------------------------------------
 Rotational constants (GHZ):           8.6613667           1.1195263           0.9960517
 Standard basis: Aug-CC-pVDZ (5D, 7F)
 There are   204 symmetry adapted cartesian basis functions of A   symmetry.
 There are   192 symmetry adapted basis functions of A   symmetry.
   192 basis functions,   324 primitive gaussians,   204 cartesian basis functions
    24 alpha electrons       24 beta electrons
       nuclear repulsion energy       211.8509394756 Hartrees.
 NAtoms=   12 NActive=   12 NUniq=   12 SFac= 1.00D+00 NAtFMM=   60 NAOKFM=F Big=F
 Integral buffers will be    131072 words long.
 Raffenetti 1 integral format.
 Two-electron integral symmetry is turned on.
 One-electron integrals computed using PRISM.
 NBasis=   192 RedAO= T EigKep=  2.83D-05  NBF=   192
 NBsUse=   192 1.00D-06 EigRej= -1.00D+00 NBFU=   192
 Initial guess from the checkpoint file:  "/scr/Gau-35124.chk"
 B after Tr=    -0.000000    0.000000   -0.000000
         Rot=    0.999995    0.000200    0.000041    0.003049 Ang=   0.35 deg.
 ExpMin= 2.97D-02 ExpMax= 1.17D+04 ExpMxC= 4.01D+02 IAcc=3 IRadAn=         5 AccDes= 0.00D+00
 Harris functional with IExCor=  205 and IRadAn=       5 diagonalized for initial guess.
 HarFok:  IExCor=  205 AccDes= 0.00D+00 IRadAn=         5 IDoV= 1 UseB2=F ITyADJ=14
 ICtDFT=  3500011 ScaDFX=  1.000000  1.000000  1.000000  1.000000
 FoFCou: FMM=F IPFlag=           0 FMFlag=      100000 FMFlg1=           0
         NFxFlg=           0 DoJE=T BraDBF=F KetDBF=T FulRan=T
         wScrn=  0.000000 ICntrl=       500 IOpCl=  0 I1Cent=   200000004 NGrid=           0
         NMat0=    1 NMatS0=      1 NMatT0=    0 NMatD0=    1 NMtDS0=    0 NMtDT0=    0
 Petite list used in FoFCou.
 Keep R1 ints in memory in canonical form, NReq=180595119.
 Requested convergence on RMS density matrix=1.00D-08 within 128 cycles.
 Requested convergence on MAX density matrix=1.00D-06.
 Requested convergence on             energy=1.00D-06.
 No special actions if energy rises.
 SCF Done:  E(RHF) =  -341.710522675     A.U. after   13 cycles
            NFock= 13  Conv=0.61D-08     -V/T= 2.0022
 ExpMin= 2.97D-02 ExpMax= 1.17D+04 ExpMxC= 4.01D+02 IAcc=3 IRadAn=         5 AccDes= 0.00D+00
 HarFok:  IExCor=  205 AccDes= 0.00D+00 IRadAn=         5 IDoV=-2 UseB2=F ITyADJ=14
 ICtDFT= 12500011 ScaDFX=  1.000000  1.000000  1.000000  1.000000
 Range of M.O.s used for correlation:     7   192
 NBasis=   192 NAE=    24 NBE=    24 NFC=     6 NFV=     0
 NROrb=    186 NOA=    18 NOB=    18 NVA=   168 NVB=   168

 **** Warning!!: The largest alpha MO coefficient is  0.45796406D+02

 Fully direct method using O(ONN) memory.
 JobTyp=1 Pass  1:  I=   7 to  24 NPSUse= 40 ParTrn=T ParDer=T DoDerP=T.
 Spin components of T(2) and E(2):
     alpha-alpha T2 =       0.4258846705D-01 E2=     -0.1338009028D+00
     alpha-beta  T2 =       0.2352892854D+00 E2=     -0.7569279233D+00
     beta-beta   T2 =       0.4258846705D-01 E2=     -0.1338009028D+00
 ANorm=    0.1149115407D+01
 E2 =    -0.1024529729D+01 EUMP2 =    -0.34273505240375D+03
          IDoAtm=111111111111
          Differentiating once with respect to electric field.
                with respect to dipole field.
          Differentiating once with respect to nuclear coordinates.
 Keep R1 ints in memory in canonical form, NReq=180609499.
          There are     1 degrees of freedom in the 1st order CPHF.  IDoFFX=0 NUNeed=     1.
 LinEq1:  Iter=  0 NonCon=     1 RMS=4.91D-03 Max=1.19D-01 NDo=     1
 AX will form     1 AO Fock derivatives at one time.
 LinEq1:  Iter=  1 NonCon=     1 RMS=1.48D-03 Max=2.06D-02 NDo=     1
 LinEq1:  Iter=  2 NonCon=     1 RMS=5.78D-04 Max=1.28D-02 NDo=     1
 LinEq1:  Iter=  3 NonCon=     1 RMS=2.13D-04 Max=3.17D-03 NDo=     1
 LinEq1:  Iter=  4 NonCon=     1 RMS=7.98D-05 Max=1.31D-03 NDo=     1
 LinEq1:  Iter=  5 NonCon=     1 RMS=2.90D-05 Max=6.79D-04 NDo=     1
 LinEq1:  Iter=  6 NonCon=     1 RMS=1.07D-05 Max=3.10D-04 NDo=     1
 LinEq1:  Iter=  7 NonCon=     1 RMS=3.21D-06 Max=4.36D-05 NDo=     1
 LinEq1:  Iter=  8 NonCon=     1 RMS=1.22D-06 Max=2.66D-05 NDo=     1
 LinEq1:  Iter=  9 NonCon=     1 RMS=3.34D-07 Max=3.38D-06 NDo=     1
 LinEq1:  Iter= 10 NonCon=     1 RMS=7.26D-08 Max=7.70D-07 NDo=     1
 LinEq1:  Iter= 11 NonCon=     1 RMS=2.94D-08 Max=5.45D-07 NDo=     1
 LinEq1:  Iter= 12 NonCon=     1 RMS=8.19D-09 Max=9.54D-08 NDo=     1
 LinEq1:  Iter= 13 NonCon=     1 RMS=2.57D-09 Max=3.97D-08 NDo=     1
 LinEq1:  Iter= 14 NonCon=     1 RMS=7.85D-10 Max=6.22D-09 NDo=     1
 LinEq1:  Iter= 15 NonCon=     1 RMS=2.08D-10 Max=2.47D-09 NDo=     1
 LinEq1:  Iter= 16 NonCon=     0 RMS=3.53D-11 Max=4.54D-10 NDo=     1
 Linear equations converged to 1.000D-10 1.000D-09 after    16 iterations.
 End of Minotr F.D. properties file   721 does not exist.
 End of Minotr F.D. properties file   722 does not exist.
 End of Minotr F.D. properties file   788 does not exist.
 Calling FoFJK, ICntrl=  10002127 FMM=F ISym2X=0 I1Cent= 0 IOpClX= 0 NMat=1 NMatS=1 NMatT=0.
 ***** Axes restored to original set *****
 -------------------------------------------------------------------
 Center     Atomic                   Forces (Hartrees/Bohr)
 Number     Number              X              Y              Z
 -------------------------------------------------------------------
      1        6          -0.009916117   -0.008059062   -0.009287949
      2        6           0.006685763    0.004779064    0.007361350
      3        1           0.001149629    0.002730248   -0.002153558
      4        8          -0.001554760   -0.003058549    0.001803400
      5        6          -0.004494495   -0.004843899   -0.001878270
      6        1           0.003413100    0.005192670   -0.001100148
      7        8           0.002766051    0.005138215   -0.002745517
      8        1          -0.000810805   -0.002861376    0.003253872
      9        1           0.002577057    0.001773773    0.002932715
     10        8          -0.002125882   -0.002007621   -0.001565982
     11        1           0.002323705   -0.000260007    0.001213989
     12        1          -0.000013246    0.001476545    0.002166099
 -------------------------------------------------------------------
 Cartesian Forces:  Max     0.009916117 RMS     0.004051584

 GradGradGradGradGradGradGradGradGradGradGradGradGradGradGradGradGradGrad
 Berny optimization.
 Using GEDIIS/GDIIS optimizer.
 FormGI is forming the generalized inverse of G from B-inverse, IUseBI=4.
 Internal  Forces:  Max     0.011807178 RMS     0.002906283
 Search for a local minimum.
 Step number   3 out of a maximum of   49
 All quantities printed in internal units (Hartrees-Bohrs-Radians)
 Mixed Optimization -- RFO/linear search
 Update second derivatives using D2CorX and points    1    3    2
 DE=  6.57D-04 DEPred=-1.21D-03 R=-5.42D-01
 Trust test=-5.42D-01 RLast= 4.90D-01 DXMaxT set to 2.52D-01
 ITU= -1  1  0
 Use linear search instead of GDIIS.
     Eigenvalues ---    0.00230   0.00230   0.00881   0.01074   0.01074
     Eigenvalues ---    0.01343   0.02028   0.02103   0.02687   0.02974
     Eigenvalues ---    0.05392   0.14010   0.15939   0.16000   0.16000
     Eigenvalues ---    0.16065   0.16745   0.21788   0.22010   0.22613
     Eigenvalues ---    0.33198   0.34010   0.35620   0.36664   0.47362
     Eigenvalues ---    0.49710   0.52628   0.52725   0.61675   0.92735
 RFO step:  Lambda=-4.71632138D-04 EMin= 2.29976268D-03
 Quartic linear search produced a step of -0.64818.
 Iteration  1 RMS(Cart)=  0.13335631 RMS(Int)=  0.02582106
 Iteration  2 RMS(Cart)=  0.10505357 RMS(Int)=  0.00366364
 Iteration  3 RMS(Cart)=  0.00615110 RMS(Int)=  0.00053150
 Iteration  4 RMS(Cart)=  0.00000161 RMS(Int)=  0.00053150
 Iteration  5 RMS(Cart)=  0.00000000 RMS(Int)=  0.00053150
 Variable       Old X    -DE/DX   Delta X   Delta X   Delta X     New X
                                 (Linear)    (Quad)   (Total)
    R1        2.59382  -0.01181  -0.01779  -0.00160  -0.01939   2.57443
    R2        2.08258  -0.00338  -0.00765  -0.00177  -0.00942   2.07316
    R3        2.54396   0.00234   0.01684  -0.01575   0.00109   2.54505
    R4        2.77687  -0.00223   0.00929  -0.01622  -0.00694   2.76994
    R5        2.07728  -0.00432  -0.00708  -0.00375  -0.01083   2.06645
    R6        1.84714   0.00239   0.00601  -0.00105   0.00500   1.85214
    R7        2.34427  -0.00564  -0.00834   0.00243  -0.00591   2.33836
    R8        2.12105  -0.00411  -0.00863  -0.00223  -0.01086   2.11019
    R9        3.32055   0.00138  -0.05636   0.06386   0.00748   3.32803
   R10        1.81912   0.00251   0.00574  -0.00149   0.00425   1.82337
   R11        1.81913   0.00250   0.00574  -0.00150   0.00424   1.82337
    A1        2.07706   0.00139   0.02768  -0.01512   0.01256   2.08962
    A2        2.14352   0.00016  -0.00493   0.00428  -0.00065   2.14287
    A3        2.06261  -0.00155  -0.02275   0.01084  -0.01191   2.05070
    A4        2.09298  -0.00058   0.00433  -0.00730  -0.00297   2.09001
    A5        2.09866   0.00118   0.00652   0.00083   0.00736   2.10602
    A6        2.09154  -0.00060  -0.01086   0.00647  -0.00438   2.08716
    A7        1.88021   0.00494   0.00298   0.00527   0.00825   1.88845
    A8        2.20694  -0.00402  -0.00831  -0.00822  -0.01653   2.19040
    A9        2.00629   0.00070  -0.00346   0.00330  -0.00016   2.00613
   A10        2.06995   0.00332   0.01177   0.00493   0.01670   2.08665
   A11        2.21244   0.00049   0.00996  -0.00677   0.00330   2.21574
   A12        2.21476   0.00050   0.00989  -0.00673   0.00312   2.21788
   A13        1.85324  -0.00105  -0.02047   0.01296  -0.00747   1.84577
   A14        3.37318  -0.00439  -0.28904  -0.06457  -0.35453   3.01865
   A15        3.14431  -0.00005  -0.00288  -0.00218  -0.00506   3.13925
    D1        0.00024  -0.00001  -0.00006  -0.00002  -0.00009   0.00015
    D2       -3.14134  -0.00001  -0.00006  -0.00003  -0.00009  -3.14144
    D3        3.14149   0.00000   0.00006   0.00001   0.00006   3.14155
    D4       -0.00010   0.00000   0.00006  -0.00000   0.00005  -0.00004
    D5        3.14066   0.00000   0.00025  -0.00019   0.00006   3.14071
    D6       -0.00127   0.00002   0.00037  -0.00017   0.00021  -0.00107
    D7        0.00039  -0.00001  -0.00010  -0.00027  -0.00037   0.00002
    D8       -3.14155   0.00001   0.00015   0.00013   0.00028  -3.14127
    D9       -3.14121  -0.00001  -0.00010  -0.00026  -0.00036  -3.14157
   D10        0.00004   0.00001   0.00015   0.00014   0.00029   0.00033
   D11        1.68604  -0.00059  -0.06896  -0.02025  -0.08750   1.59854
   D12       -1.66908   0.00058   0.07836   0.00864   0.08529  -1.58379
   D13        3.06600  -0.00073  -0.00768  -0.00751  -0.01312   3.05288
         Item               Value     Threshold  Converged?
 Maximum Force            0.011807     0.000450     NO 
 RMS     Force            0.002906     0.000300     NO 
 Maximum Displacement     0.505947     0.001800     NO 
 RMS     Displacement     0.236848     0.001200     NO 
 Predicted change in Energy=-4.302507D-04
 GradGradGradGradGradGradGradGradGradGradGradGradGradGradGradGradGradGrad

                          Input orientation:                          
 ---------------------------------------------------------------------
 Center     Atomic      Atomic             Coordinates (Angstroms)
 Number     Number       Type             X           Y           Z
 ---------------------------------------------------------------------
      1          6           0       -0.574909    0.967011   -0.118534
      2          6           0       -1.341093    0.518019   -1.151640
      3          1           0       -0.584394    0.431167    0.838724
      4          8           0        0.210224    2.057164   -0.213140
      5          6           0       -2.171639   -0.676844   -0.975484
      6          1           0        0.661378    2.185126    0.647501
      7          8           0       -2.252481   -1.349510    0.059966
      8          1           0       -1.343235    1.040166   -2.112442
      9          1           0       -2.766216   -0.973548   -1.872915
     10          8           0        1.369224    2.236178    2.259294
     11          1           0        2.209184    1.850587    2.536405
     12          1           0        1.039161    2.722637    3.024421
 ---------------------------------------------------------------------
                    Distance matrix (angstroms):
                    1          2          3          4          5
     1  C    0.000000
     2  C    1.362329   0.000000
     3  H    1.097070   2.131124   0.000000
     4  O    1.346781   2.378305   2.093252   0.000000
     5  C    2.446665   1.465788   2.652996   3.705299   0.000000
     6  H    1.897108   3.166393   2.159834   0.980111   4.341766
     7  O    2.865725   2.405469   2.561209   4.212473   1.237405
     8  H    2.138071   1.093519   3.107427   2.656100   2.219696
     9  H    3.412543   2.185403   3.753207   4.560621   1.116664
    10  O    3.323327   4.683200   3.015411   2.736468   5.611345
    11  H    3.947224   5.289790   3.563838   3.405659   6.157343
    12  H    3.945328   5.288236   3.558656   3.407609   6.153451
                    6          7          8          9         10
     6  H    0.000000
     7  O    4.618379   0.000000
     8  H    3.598151   3.355091   0.000000
     9  H    5.298879   2.035018   2.477356   0.000000
    10  O    1.761116   5.550762   5.282041   6.669285   0.000000
    11  H    2.464868   6.023273   5.906627   7.223049   0.964885
    12  H    2.466047   6.017083   5.907105   7.219875   0.964886
                   11         12
    11  H    0.000000
    12  H    1.538696   0.000000
 Stoichiometry    C3H6O3
 Framework group  C1[X(C3H6O3)]
 Deg. of freedom    30
 Full point group                 C1      NOp   1
 Largest Abelian subgroup         C1      NOp   1
 Largest concise Abelian subgroup C1      NOp   1
                         Standard orientation:                         
 ---------------------------------------------------------------------
 Center     Atomic      Atomic             Coordinates (Angstroms)
 Number     Number       Type             X           Y           Z
 ---------------------------------------------------------------------
      1          6           0        0.050293   -0.340172   -0.000377
      2          6           0       -1.211933   -0.852740    0.000139
      3          1           0        0.195863    0.747197   -0.000503
      4          8           0        1.151869   -1.114994   -0.000527
      5          6           0       -2.364621    0.052712    0.000325
      6          1           0        1.937923   -0.529559   -0.001731
      7          8           0       -2.307428    1.288794    0.000030
      8          1           0       -1.374788   -1.934064    0.000415
      9          1           0       -3.360396   -0.452629    0.001082
     10          8           0        3.210686    0.687651    0.000228
     11          1           0        3.661747    1.053997    0.770512
     12          1           0        3.656209    1.064650   -0.768137
 ---------------------------------------------------------------------
 Rotational constants (GHZ):           7.0117752           1.2589552           1.0727249
 Standard basis: Aug-CC-pVDZ (5D, 7F)
 There are   204 symmetry adapted cartesian basis functions of A   symmetry.
 There are   192 symmetry adapted basis functions of A   symmetry.
   192 basis functions,   324 primitive gaussians,   204 cartesian basis functions
    24 alpha electrons       24 beta electrons
       nuclear repulsion energy       214.1978217992 Hartrees.
 NAtoms=   12 NActive=   12 NUniq=   12 SFac= 1.00D+00 NAtFMM=   60 NAOKFM=F Big=F
 Integral buffers will be    131072 words long.
 Raffenetti 1 integral format.
 Two-electron integral symmetry is turned on.
 One-electron integrals computed using PRISM.
 NBasis=   192 RedAO= T EigKep=  2.69D-05  NBF=   192
 NBsUse=   192 1.00D-06 EigRej= -1.00D+00 NBFU=   192
 Lowest energy guess from the checkpoint file:  "/scr/Gau-35124.chk"
 B after Tr=     0.000000   -0.000000    0.000000
         Rot=    0.999986    0.000139    0.000034    0.005276 Ang=   0.60 deg.
 B after Tr=     0.000000   -0.000000    0.000000
         Rot=    0.999998   -0.000033   -0.000003    0.001823 Ang=  -0.21 deg.
 Keep R1 ints in memory in canonical form, NReq=180600874.
 Requested convergence on RMS density matrix=1.00D-08 within 128 cycles.
 Requested convergence on MAX density matrix=1.00D-06.
 Requested convergence on             energy=1.00D-06.
 No special actions if energy rises.
 SCF Done:  E(RHF) =  -341.712779284     A.U. after   12 cycles
            NFock= 12  Conv=0.37D-08     -V/T= 2.0020
 ExpMin= 2.97D-02 ExpMax= 1.17D+04 ExpMxC= 4.01D+02 IAcc=3 IRadAn=         5 AccDes= 0.00D+00
 HarFok:  IExCor=  205 AccDes= 0.00D+00 IRadAn=         5 IDoV=-2 UseB2=F ITyADJ=14
 ICtDFT= 12500011 ScaDFX=  1.000000  1.000000  1.000000  1.000000
 Range of M.O.s used for correlation:     7   192
 NBasis=   192 NAE=    24 NBE=    24 NFC=     6 NFV=     0
 NROrb=    186 NOA=    18 NOB=    18 NVA=   168 NVB=   168

 **** Warning!!: The largest alpha MO coefficient is  0.48772122D+02

 Fully direct method using O(ONN) memory.
 JobTyp=1 Pass  1:  I=   7 to  24 NPSUse= 40 ParTrn=T ParDer=T DoDerP=T.
 Spin components of T(2) and E(2):
     alpha-alpha T2 =       0.4244398237D-01 E2=     -0.1337123602D+00
     alpha-beta  T2 =       0.2342656191D+00 E2=     -0.7560368175D+00
     beta-beta   T2 =       0.4244398237D-01 E2=     -0.1337123602D+00
 ANorm=    0.1148544115D+01
 E2 =    -0.1023461538D+01 EUMP2 =    -0.34273624082223D+03
          IDoAtm=111111111111
          Differentiating once with respect to electric field.
                with respect to dipole field.
          Differentiating once with respect to nuclear coordinates.
 Keep R1 ints in memory in canonical form, NReq=180616098.
          There are     1 degrees of freedom in the 1st order CPHF.  IDoFFX=0 NUNeed=     1.
 LinEq1:  Iter=  0 NonCon=     1 RMS=4.88D-03 Max=1.20D-01 NDo=     1
 AX will form     1 AO Fock derivatives at one time.
 LinEq1:  Iter=  1 NonCon=     1 RMS=1.46D-03 Max=1.94D-02 NDo=     1
 LinEq1:  Iter=  2 NonCon=     1 RMS=5.69D-04 Max=1.26D-02 NDo=     1
 LinEq1:  Iter=  3 NonCon=     1 RMS=2.06D-04 Max=3.07D-03 NDo=     1
 LinEq1:  Iter=  4 NonCon=     1 RMS=7.72D-05 Max=1.21D-03 NDo=     1
 LinEq1:  Iter=  5 NonCon=     1 RMS=2.77D-05 Max=6.27D-04 NDo=     1
 LinEq1:  Iter=  6 NonCon=     1 RMS=1.04D-05 Max=3.12D-04 NDo=     1
 LinEq1:  Iter=  7 NonCon=     1 RMS=3.13D-06 Max=4.15D-05 NDo=     1
 LinEq1:  Iter=  8 NonCon=     1 RMS=1.18D-06 Max=2.65D-05 NDo=     1
 LinEq1:  Iter=  9 NonCon=     1 RMS=3.24D-07 Max=3.25D-06 NDo=     1
 LinEq1:  Iter= 10 NonCon=     1 RMS=7.27D-08 Max=8.25D-07 NDo=     1
 LinEq1:  Iter= 11 NonCon=     1 RMS=3.02D-08 Max=4.89D-07 NDo=     1
 LinEq1:  Iter= 12 NonCon=     1 RMS=8.29D-09 Max=9.06D-08 NDo=     1
 LinEq1:  Iter= 13 NonCon=     1 RMS=2.53D-09 Max=3.79D-08 NDo=     1
 LinEq1:  Iter= 14 NonCon=     1 RMS=7.61D-10 Max=5.91D-09 NDo=     1
 LinEq1:  Iter= 15 NonCon=     1 RMS=2.02D-10 Max=2.31D-09 NDo=     1
 LinEq1:  Iter= 16 NonCon=     0 RMS=3.45D-11 Max=4.38D-10 NDo=     1
 Linear equations converged to 1.000D-10 1.000D-09 after    16 iterations.
 End of Minotr F.D. properties file   721 does not exist.
 End of Minotr F.D. properties file   722 does not exist.
 End of Minotr F.D. properties file   788 does not exist.
 Calling FoFJK, ICntrl=  10002127 FMM=F ISym2X=0 I1Cent= 0 IOpClX= 0 NMat=1 NMatS=1 NMatT=0.
 ***** Axes restored to original set *****
 -------------------------------------------------------------------
 Center     Atomic                   Forces (Hartrees/Bohr)
 Number     Number              X              Y              Z
 -------------------------------------------------------------------
      1        6          -0.002280475   -0.002323180   -0.001292184
      2        6           0.002146382    0.002424073    0.000779873
      3        1           0.000361982    0.000561687   -0.000132474
      4        8           0.001388831    0.001329247    0.001027192
      5        6          -0.001377941   -0.001880652   -0.000019604
      6        1          -0.000728296   -0.000069464   -0.001737090
      7        8          -0.000129192    0.000228148   -0.000691200
      8        1          -0.000101611   -0.000297966    0.000306507
      9        1           0.000322835    0.000028162    0.000774959
     10        8          -0.000187299   -0.000230607    0.000002566
     11        1           0.000448867   -0.000007836    0.000425894
     12        1           0.000135915    0.000238388    0.000555561
 -------------------------------------------------------------------
 Cartesian Forces:  Max     0.002424073 RMS     0.001052281

 GradGradGradGradGradGradGradGradGradGradGradGradGradGradGradGradGradGrad
 Berny optimization.
 Using GEDIIS/GDIIS optimizer.
 FormGI is forming the generalized inverse of G from B-inverse, IUseBI=4.
 Internal  Forces:  Max     0.002002869 RMS     0.000601486
 Search for a local minimum.
 Step number   4 out of a maximum of   49
 All quantities printed in internal units (Hartrees-Bohrs-Radians)
 Mixed Optimization -- En-DIIS/RFO-DIIS
 Update second derivatives using D2CorX and points    1    3    2    4
 DE= -5.31D-04 DEPred=-4.30D-04 R= 1.23D+00
 TightC=F SS=  1.41D+00  RLast= 1.51D-01 DXNew= 4.2426D-01 4.5332D-01
 Trust test= 1.23D+00 RLast= 1.51D-01 DXMaxT set to 4.24D-01
 ITU=  1 -1  1  0
 Use linear search instead of GDIIS.
     Eigenvalues ---    0.00230   0.00230   0.00882   0.01074   0.01074
     Eigenvalues ---    0.01384   0.02035   0.02103   0.02692   0.02974
     Eigenvalues ---    0.04564   0.15027   0.15987   0.16000   0.16014
     Eigenvalues ---    0.16152   0.16841   0.21787   0.22032   0.22633
     Eigenvalues ---    0.33598   0.35533   0.35912   0.36676   0.48114
     Eigenvalues ---    0.51123   0.52628   0.52673   0.60306   0.92740
 RFO step:  Lambda=-4.47288892D-05 EMin= 2.29900426D-03
 Quartic linear search produced a step of -0.04409.
 Iteration  1 RMS(Cart)=  0.00807107 RMS(Int)=  0.00002384
 Iteration  2 RMS(Cart)=  0.00003107 RMS(Int)=  0.00000887
 Iteration  3 RMS(Cart)=  0.00000000 RMS(Int)=  0.00000887
 Variable       Old X    -DE/DX   Delta X   Delta X   Delta X     New X
                                 (Linear)    (Quad)   (Total)
    R1        2.57443  -0.00152  -0.00036  -0.00197  -0.00233   2.57210
    R2        2.07316  -0.00039  -0.00010  -0.00091  -0.00101   2.07215
    R3        2.54505   0.00162   0.00110   0.00145   0.00254   2.54759
    R4        2.76994   0.00200   0.00094   0.00409   0.00503   2.77497
    R5        2.06645  -0.00041  -0.00000  -0.00109  -0.00109   2.06536
    R6        1.85214  -0.00082   0.00019  -0.00183  -0.00164   1.85050
    R7        2.33836  -0.00069  -0.00031  -0.00028  -0.00059   2.33777
    R8        2.11019  -0.00080  -0.00011  -0.00212  -0.00223   2.10796
    R9        3.32803   0.00106  -0.00416   0.01877   0.01461   3.34264
   R10        1.82337   0.00052   0.00020   0.00065   0.00085   1.82422
   R11        1.82337   0.00051   0.00020   0.00064   0.00085   1.82422
    A1        2.08962   0.00047   0.00133   0.00111   0.00244   2.09205
    A2        2.14287   0.00021  -0.00031   0.00131   0.00100   2.14387
    A3        2.05070  -0.00068  -0.00102  -0.00242  -0.00344   2.04726
    A4        2.09001   0.00028   0.00043   0.00060   0.00102   2.09103
    A5        2.10602   0.00002   0.00012   0.00018   0.00030   2.10631
    A6        2.08716  -0.00030  -0.00055  -0.00078  -0.00132   2.08584
    A7        1.88845   0.00015  -0.00016   0.00109   0.00093   1.88938
    A8        2.19040   0.00022   0.00016   0.00072   0.00088   2.19129
    A9        2.00613   0.00015  -0.00023   0.00139   0.00117   2.00730
   A10        2.08665  -0.00037   0.00006  -0.00211  -0.00205   2.08460
   A11        2.21574   0.00019   0.00053   0.00014   0.00066   2.21640
   A12        2.21788   0.00020   0.00053   0.00021   0.00073   2.21861
   A13        1.84577  -0.00041  -0.00106  -0.00114  -0.00222   1.84355
   A14        3.01865  -0.00000  -0.00403   0.00512   0.00108   3.01973
   A15        3.13925   0.00003   0.00003   0.01133   0.01136   3.15061
    D1        0.00015  -0.00000  -0.00000  -0.00009  -0.00009   0.00007
    D2       -3.14144  -0.00000  -0.00000  -0.00008  -0.00008  -3.14152
    D3        3.14155  -0.00000   0.00000  -0.00011  -0.00011   3.14145
    D4       -0.00004  -0.00000   0.00000  -0.00010  -0.00010  -0.00014
    D5        3.14071   0.00001   0.00001   0.00032   0.00033   3.14105
    D6       -0.00107   0.00001   0.00002   0.00030   0.00031  -0.00075
    D7        0.00002   0.00001   0.00001   0.00102   0.00103   0.00105
    D8       -3.14127  -0.00001  -0.00000  -0.00115  -0.00116   3.14076
    D9       -3.14157   0.00001   0.00001   0.00101   0.00102  -3.14055
   D10        0.00033  -0.00001  -0.00000  -0.00116  -0.00116  -0.00084
   D11        1.59854   0.00006  -0.00083   0.00359   0.00278   1.60132
   D12       -1.58379  -0.00007   0.00157  -0.01065  -0.00910  -1.59289
   D13        3.05288  -0.00008   0.00006  -0.00920  -0.00911   3.04377
         Item               Value     Threshold  Converged?
 Maximum Force            0.002003     0.000450     NO 
 RMS     Force            0.000601     0.000300     NO 
 Maximum Displacement     0.021841     0.001800     NO 
 RMS     Displacement     0.008068     0.001200     NO 
 Predicted change in Energy=-2.373586D-05
 GradGradGradGradGradGradGradGradGradGradGradGradGradGradGradGradGradGrad

                          Input orientation:                          
 ---------------------------------------------------------------------
 Center     Atomic      Atomic             Coordinates (Angstroms)
 Number     Number       Type             X           Y           Z
 ---------------------------------------------------------------------
      1          6           0       -0.573559    0.963741   -0.121747
      2          6           0       -1.343187    0.518585   -1.152326
      3          1           0       -0.577528    0.426792    0.834316
      4          8           0        0.212483    2.055042   -0.214736
      5          6           0       -2.175040   -0.678889   -0.977906
      6          1           0        0.666862    2.179812    0.643687
      7          8           0       -2.254043   -1.355669    0.054629
      8          1           0       -1.349374    1.043421   -2.110987
      9          1           0       -2.773524   -0.971756   -1.872528
     10          8           0        1.370580    2.238204    2.265473
     11          1           0        2.211153    1.856750    2.547963
     12          1           0        1.040380    2.732122    3.026316
 ---------------------------------------------------------------------
                    Distance matrix (angstroms):
                    1          2          3          4          5
     1  C    0.000000
     2  C    1.361098   0.000000
     3  H    1.096534   2.131058   0.000000
     4  O    1.348127   2.379052   2.091847   0.000000
     5  C    2.448670   1.468450   2.656826   3.709054   0.000000
     6  H    1.898252   3.166329   2.158222   0.979243   4.344899
     7  O    2.869634   2.408158   2.568225   4.217731   1.237094
     8  H    2.136659   1.092941   3.106571   2.656792   2.220799
     9  H    3.413390   2.187617   3.755707   4.563553   1.115483
    10  O    3.332079   4.690733   3.020686   2.743387   5.621420
    11  H    3.959726   5.302467   3.571849   3.415626   6.172512
    12  H    3.955031   5.295488   3.568898   3.412956   6.165040
                    6          7          8          9         10
     6  H    0.000000
     7  O    4.623667   0.000000
     8  H    3.597891   3.356181   0.000000
     9  H    5.300941   2.032532   2.479113   0.000000
    10  O    1.768846   5.562521   5.289523   6.678360   0.000000
    11  H    2.472947   6.039397   5.919854   7.237968   0.965334
    12  H    2.474163   6.032759   5.912235   7.229332   0.965334
                   11         12
    11  H    0.000000
    12  H    1.538118   0.000000
 Stoichiometry    C3H6O3
[...]
 4,0.00009307,-0.00007088,-0.00023665,-0.00039399,0.00002703,-0.0000574
 7,0.00001606,-0.00035950,-0.00026386,-0.00006370,0.00031438,0.00017809
 ,0.00114211,0.00040127,-0.00003528,0.00059702,0.00010597,0.00000343,-0
 .00039904,-0.00000478,-0.00004769,0.00001467,-0.00027699,0.00016313,-0
 .00053708,0.00422253,0.00625682,-0.00230667,-0.00301038,-0.00331309,-0
 .00063959,-0.00025127,-0.00086545,0.00073156,-0.00391204,-0.00501329,-
 0.00697844,0.00104769,0.00229567,-0.00104229,-0.01053976,0.01329305,0.
 02353992,-0.00038628,-0.00118030,0.00115503,0.00019866,0.00003299,0.00
 011290,-0.00016923,-0.00020887,-0.00021200,0.02362775,0.00128685,0.002
 15279,0.00019960,-0.00052355,-0.00074562,-0.00042243,-0.00010185,-0.00
 020826,0.00026805,-0.00329068,0.00031813,-0.00347851,0.00037216,0.0004
 0465,-0.00022655,0.01197402,-0.01651388,0.00356931,-0.00007339,-0.0002
 4884,0.00028167,-0.00000422,0.00007229,0.00008835,-0.00005864,0.000004
 21,-0.00001120,-0.02643800,0.01575895,0.00645753,0.01195388,-0.0053034
 9,-0.00555059,-0.00701847,-0.00103061,-0.00061315,-0.00153455,0.001346
 60,-0.00997410,-0.00753343,-0.00759351,0.00235746,0.00432544,-0.002296
 86,0.02582692,0.00671670,0.01896933,-0.00080475,-0.00234222,0.00224746
 ,0.00017617,0.00017518,0.00023830,-0.00048019,-0.00036630,-0.00040565,
 -0.01669495,-0.00063758,0.01204765,-0.00051052,-0.00053994,-0.00024825
 ,0.00031503,0.00022361,0.00030307,-0.00002305,-0.00006665,0.00007090,0
 .00133003,0.00095981,0.00179482,-0.00020709,-0.00027823,0.00006822,-0.
 00328710,-0.00244230,-0.00610269,0.00006502,0.00016882,-0.00012327,0.0
 0002026,-0.00001083,0.00001657,0.00003092,0.00001100,0.00004352,-0.008
 64430,0.00526019,0.00320178,0.00990975,0.00032696,0.00055402,-0.000118
 70,-0.00018391,-0.00023834,-0.00006225,-0.00005805,-0.00011142,0.00004
 950,-0.00017240,-0.00038038,-0.00004491,0.00007923,0.00013222,-0.00009
 261,0.00083559,-0.00218849,0.00365347,-0.00001111,-0.00008159,0.000096
 54,0.00000621,0.00000257,0.00001749,-0.00001245,-0.00000376,-0.0000060
 8,0.00360906,0.00673036,-0.00183590,-0.00393910,-0.00512391,0.00126032
 ,0.00177835,-0.00063012,-0.00084057,-0.00092888,-0.00023961,-0.0001187
 8,-0.00020190,0.00023172,-0.00125689,-0.00156229,-0.00145956,0.0002955
 5,0.00067257,-0.00027780,-0.00398795,0.00218466,0.01057667,-0.00011059
 ,-0.00034545,0.00031807,0.00005687,0.00000414,0.00002529,-0.00004316,-
 0.00005821,-0.00005440,0.00848324,-0.00297960,-0.01308002,-0.00195027,
 -0.00031856,0.00292526,0.00088835,0.00146334,-0.00033958,-0.00059610,-
 0.00069120,-0.00021672,-0.00007370,-0.00020370,0.00013153,-0.00139425,
 -0.00088735,-0.00081747,0.00026468,0.00045901,-0.00023358,0.00411261,-
 0.00409493,0.00710578,-0.00009008,-0.00024755,0.00026129,0.00001218,0.
 00001862,0.00003188,-0.00004170,-0.00002844,-0.00003525,-0.00218335,0.
 01159710,-0.00390213,0.00100104,-0.00048003,-0.00178776,-0.00189969,-0
 .00067612,-0.00098999,-0.00007314,0.00046136,0.00048001,0.00034608,-0.
 00002497,-0.00000235,0.00000697,0.00184516,0.00102860,0.00193079,-0.00
 027341,-0.00042459,0.00013304,-0.00675725,0.00060924,-0.00542308,0.000
 10313,0.00023349,-0.00019165,-0.00000293,-0.00000849,0.00001219,0.0000
 4488,0.00002395,0.00005225,0.01153140,-0.00772476,-0.00190275,0.000653
 63,0.00070872,0.00175517,-0.00690487,0.00606617,0.00044442,0.00110085,
 -0.00049429,-0.00040933,-0.00057403,-0.00003928,-0.00002056,-0.0001993
 5,0.00017537,-0.00065032,-0.00039054,-0.00014373,0.00021109,0.00027407
 ,-0.00019899,0.00394249,-0.00543147,0.00038422,-0.00005560,-0.00016114
 ,0.00016003,0.,0.00003664,0.00004396,-0.00004111,-0.00002005,-0.000009
 07,-0.00614870,0.00334888,-0.00513919,0.00292561,-0.00133798,0.0016645
 0,-0.00019798,0.00335412,0.00359647,0.00005212,0.00071588,0.00026318,0
 .00020782,-0.00023030,-0.00018479,-0.00026815,-0.00000844,-0.00000058,
 0.00023417,0.00000314,-0.00021479,0.00016705,-0.00020836,0.00047336,0.
 00002449,0.00023624,0.00004782,-0.00009054,-0.00007596,-0.00007782,0.0
 0011194,-0.00012952,-0.00014981,-0.00003479,0.00015335,0.00000342,-0.0
 0006037,-0.00005588,0.00010544,0.00003984,-0.00004829,-0.00002511,-0.0
 0014229,0.00003674,-0.00009890,-0.00007155,-0.00000988,-0.00003418,-0.
 00001644,0.00002641,-0.00009465,0.00000416,0.00004772,-0.00014243,-0.0
 0000740,-0.00082179,0.00013386,0.00017981,0.00015505,0.00005045,-0.000
 06451,0.00006312,-0.00008889,0.00045077,-0.00071446,-0.00048785,0.0003
 1526,0.00029386,0.00023596,0.00004617,0.00001413,-0.00000532,-0.000189
 77,0.00155593,-0.00255167,-0.00020034,-0.00014550,0.00031552,0.0001140
 0,0.00010625,0.00009226,0.00005158,0.00003394,-0.00000256,0.00762589,0
 .00144771,0.01158738,0.00003347,-0.00004060,0.00011206,0.00019525,0.00
 004651,0.00003151,-0.00001315,0.00004826,0.00001282,-0.00002867,-0.000
 03091,-0.00006231,-0.00055759,0.00005248,0.00010331,0.00007428,-0.0000
 9533,-0.00032404,-0.00022479,-0.00004720,0.00004461,0.00000542,-0.0000
 6319,-0.00016387,-0.00009861,-0.00005020,0.00071350,-0.00007935,-0.000
 15411,-0.00011426,-0.00000806,0.00001015,0.00014332,0.00003815,-0.0000
 0587,0.00001719,0.00006402,0.00015390,0.00006381,0.00003753,0.00011621
 ,0.00045897,0.00017595,0.00051253,-0.00028113,-0.00014400,-0.00022050,
 0.00002053,-0.00000789,-0.00010141,0.00005763,-0.00043279,-0.00125719,
 -0.00839045,0.00006010,0.00010010,-0.00008518,-0.00050837,0.00002453,0
 .00005806,-0.00025299,-0.00005659,-0.00002262,0.00003291,-0.00011130,-
 0.00004443,-0.00002197,-0.00101039,0.00341571,-0.00136704,0.00000138,0
 .00001651,-0.00000522,0.00121489,-0.00475605,0.00072615,0.00107287,-0.
 00027863,-0.00037636,-0.00042820,-0.00005680,0.00002914,-0.00006853,0.
 00025769,-0.00886930,-0.00201331,-0.01344939,0.00012082,0.00026789,-0.
 00017091,0.01005559,0.00127012,0.01594447,-0.00001887,-0.00000317,0.00
 000598,-0.00014043,0.00002327,-0.00013191,0.00000412,0.00001645,0.0000
 0398,0.00002749,-0.00002289,0.00001031,0.00022072,0.00011860,0.0000193
 2,-0.00001637,0.00000114,-0.00003312,-0.00005296,-0.00005687,-0.000010
 56,-0.00005295,0.00007894,0.00010391,0.00011029,0.00002008,0.00000770,
 0.00000070,0.00007035,0.00006446,0.00006048,0.00000541,-0.00033332,0.0
 0003764,-0.00005459,-0.00000959,-0.00013711,-0.00007356,0.00016694,0.0
 0006340,0.00007585,0.00011292,-0.00010706,-0.00008512,-0.00001156,-0.0
 0002089,0.00003866,-0.00000038,-0.00005632,-0.00011678,-0.00008147,-0.
 00000363,0.00000092,-0.00029613,0.00006604,0.00001204,0.00015368,-0.00
 000400,0.00000201,0.00022566,0.00005412,-0.00001253,-0.00002090,-0.000
 16701,0.00006479,0.00000570,0.00000287,-0.00001066,-0.00001256,-0.0000
 0672,-0.00001551,-0.00001597,0.00002801,-0.00001377,0.00001088,-0.0000
 0605,0.00002410,0.00004528,-0.00000613,-0.00001192,0.00000509,0.000093
 95,-0.00004798,0.00003170,-0.00001484,0.00008775,-0.00008789,0.0000289
 5,-0.00001980,0.00000945,0.00000226,0.00000389,0.00000120,0.00000014,-
 0.00007299,0.00004626,0.00001156,0.00003019,-0.00001495,0.00001321,0.0
 0004336,-0.00001856,-0.00002022,-0.00002546,0.00001725,-0.00005462,-0.
 00000822,0.00003562,0.00006642,-0.00002598,-0.00009026,-0.00000561,-0.
 00000010,0.00000620,-0.00000888,0.00001128,-0.00003814,-0.00001726,0.0
 0005522,0.00002013,0.00003689,-0.00000079,0.00003782,0.00000375,-0.000
 01480,-0.00000180,-0.00000377,-0.00002204,0.00004330,0.00000665,0.0000
 3990,0.00000447,0.00007438,-0.00008784,0.00003244,0.00001170,-0.000000
 69,-0.00000568,-0.00000744,-0.00001696,0.00001164,0.00010009,0.0000553
 0,-0.00001466,-0.00001317,0.00001013,-0.00001673,-0.00002685,-0.000015
 42,0.00008512,0.00000021,0.00000423,-0.00001029,-0.00014741,0.00000615
 ,-0.00002534,-0.00000154,0.00000034,-0.00004374,-0.00004613,0.00000020
 ,0.00000468,0.00000177,0.00000995,0.00002889,0.00001022,0.00008286,-0.
 00013752,-0.00012676,-0.00001068,-0.00000134,-0.00003114,-0.00010829,0
 .00004284,0.00006895,0.00000089,0.00000572,0.00000029,0.00002039,0.000
 13349,-0.00002115,-0.00000873,-0.00000017,0.00014629,-0.00001643,-0.00
 001361,-0.00000691,-0.00000294,-0.00000436,0.00001424,0.00001781,0.000
 00740,-0.00012770,0.00000330,-0.00022712,-0.00000738,-0.00000119,-0.00
 001839,0.00009583,-0.00010736,0.00001385,0.00000003,0.00000428,-0.0000
 0014,-0.00009898,0.00010959,0.00022901,-0.00021345,0.00025987,-0.00005
 988,0.00005194,-0.00010120,0.00005391,-0.00021482,-0.00001007,0.000011
 89,0.00002095,-0.00006805,0.00035524,-0.00001225,-0.00006699,-0.000025
 82,-0.00017609,0.00053707,-0.00023392,0.00001190,0.00002476,-0.0000022
 2,0.00003693,-0.00000775,-0.00002131,0.00000914,-0.00000403,0.00000418
 ,2.73026736,0.00032956,0.00012460,-0.00011816,-0.00008430,-0.00006319,
 0.00008513,-0.00003012,-0.00020689,-0.00009520,-0.00023149,-0.00015131
 ,-0.00042172,-0.00005171,0.00000188,-0.00003057,0.00027886,-0.00018732
 ,0.00013201,0.00001235,0.00000470,0.00001178,-0.00001109,0.00004184,-0
 .00000787,-0.00000442,0.00000082,0.00000762,-1.29426052,1.00809960,-0.
 00019438,-0.00030256,-0.00031321,0.00003811,0.00005906,0.00008431,0.00
 006488,-0.00002751,-0.00001225,0.00065289,-0.00002449,0.00151561,-0.00
 005537,-0.00007217,0.00004169,0.00022789,0.00075325,-0.00128250,0.0000
 1863,0.00003980,-0.00003062,-0.00001754,-0.00000157,0.00001462,0.00000
 196,0.00000917,0.00000795,-0.07259771,1.81799551,0.29584433,0.00059564
 ,-0.00000669,0.00039351,-0.00019848,-0.00008589,-0.00020307,0.00034404
 ,0.00025135,0.00020619,-0.00045715,-0.00024539,-0.00002165,0.00016624,
 0.00032466,-0.00002451,0.00082654,-0.00031850,0.00068493,-0.00007241,-
 0.00013306,0.00006792,-0.00002051,0.00001128,0.00001656,-0.00003545,-0
 .00002343,-0.00002636,-3.16761995,0.65519416,-0.44836028,3.19000533,-0
 .00038734,-0.00028104,-0.00030582,0.00021187,0.00008754,0.00011200,-0.
 00012094,-0.00005035,0.00000619,0.00041242,0.00010369,0.00039784,-0.00
 013941,-0.00019718,0.00004645,-0.00058262,0.00085697,-0.00105068,0.000
 04899,0.00009635,-0.00005444,-0.00001168,-0.00000699,0.00000842,0.0000
 1724,0.00001755,0.00001925,0.58926182,0.55501348,0.04776056,-0.6639674
 2,-0.55647189,-0.00019006,-0.00054809,-0.00004925,0.00015388,0.0002398
 4,0.00009326,-0.00009915,-0.00004365,-0.00005680,0.00044576,0.00030142
 ,0.00009024,-0.00013256,-0.00017177,0.00006523,-0.00148293,0.00017403,
 -0.00094190,0.00003410,0.00008960,-0.00007522,0.00000363,-0.00000426,-
 0.00001721,0.00002191,0.00001061,0.00001282,-0.50475304,0.06335889,0.5
 9687081,0.45280932,-0.03711833,-0.62023241,-0.00052202,-0.00050547,-0.
 00034529,0.00021736,0.00025773,0.00020304,-0.00007918,-0.00018894,-0.0
 0010158,0.00032567,0.00050744,0.00052205,-0.00019222,-0.00031444,0.000
 06765,0.00024215,-0.00031647,-0.00213248,0.00006976,0.00014587,-0.0000
 9346,-0.00000967,-0.00000673,-0.00000187,0.00002817,0.00002567,0.00002
 791,0.43783837,0.63885870,0.52022091,-0.02353383,0.07525707,0.05318913
 ,-0.41438457,0.00013079,0.00033319,0.00038030,-0.00017142,-0.00011928,
 -0.00016256,0.00023437,0.00025910,0.00022633,-0.00014385,-0.00048990,-
 0.00002371,0.00020141,0.00022989,-0.00005342,0.00009041,0.00068904,0.0
 0097287,-0.00005626,-0.00011490,0.00006634,0.00002283,-0.00002504,0.00
 000459,-0.00002186,-0.00002605,-0.00002520,0.70443507,-1.56267820,-1.8
 6618904,0.00899892,0.00083188,-0.02628829,-0.71372042,1.56111026,-0.00
 021034,0.00002248,0.00046263,0.00008030,0.00002284,-0.00011622,0.00009
 103,0.00013074,0.00006650,0.00003627,0.00005079,-0.00010068,0.00008409
 ,0.00004413,-0.00000194,-0.00021750,-0.00059315,-0.00019514,-0.0000228
 8,-0.00002830,-0.00000894,0.00000013,0.00000254,-0.00001015,-0.0000112
 1,-0.00000503,-0.00000726,0.57726868,-1.88091742,-0.89274072,-0.005542
 56,-0.00982143,0.02424043,-0.57155601,1.89109179,0.86841147,0.00049024
 ,-0.00054369,0.00009310,-0.00030903,-0.00008082,-0.00007388,-0.0001725
 9,0.00005969,-0.00003811,-0.00010425,0.00007139,-0.00000242,0.00004698
 ,-0.00011120,0.00005218,-0.00000503,0.00012102,0.00022391,0.00013413,0
 .00001150,-0.00018664,-0.00012946,-0.00001898,0.00000845,0.00000748,0.
 00010708,0.00006572,0.00001199,0.00006774,-0.00013123,0.00006061,-0.00
 005027,-0.00000593,-0.00009197,-0.00010147,0.00000681,0.00005968,-0.00
 002082,-0.00008291,-0.00003128,-0.00002966,0.00001556,-0.00010648,-0.0
 0007071,0.00002397,-0.00001560,0.00043564,0.00004625,-0.00010669,-0.00
 010894,-0.00011419,0.00007454,-0.00002735,0.00003891,0.00013659,0.0003
 4644,0.00020992,-0.00001800,0.00000266,-0.00007675,-0.00012799,0.00003
 193,0.00003578,0.00005161,-0.00048230,-0.00022017,0.00005995,-0.000012
 47,-0.00021001,-0.00000212,-0.00000255,-0.00001162,-0.00001340,0.00001
 708,0.00002572,0.00021595,0.00014483,0.00062186,-0.00010105,0.00001811
 ,0.00003597,0.00030976,0.00013069,0.00005679,-0.00001526,0.00001021,-0
 .00000171,0.00004517,0.00003637,-0.00001249,-0.00070679,-0.00007711,-0
 .00008504,-0.00015304,0.00011849,-0.00010680,-0.00003723,-0.00007777,0
 .00002789,0.00001940,0.00011450,0.00002673,-0.00000835,-0.00018898,0.0
 0041323,0.00017355,0.00006079,-0.00003746,-0.00020050,-0.00009890,-0.0
 0008882,0.00000977,-0.00001018,-0.00000992,-0.00008214,-0.00001862,0.0
 0002481,-0.00006597,0.00030253,-0.00010479,-0.00019507,0.00000053,0.00
 007397,0.00011837,-0.00002572,0.00002648,-0.00001522,-0.00004207,-0.00
 007253,-0.00017333,0.00019039,-0.00001559,0.00001440,-0.00007089,-0.00
 000292,0.00075648,0.00018483,0.00006290,-0.00012441,-0.00008813,0.0000
 3025,0.00006710,-0.00013341,-0.00005768,-0.00004718,0.00003805,-0.0002
 1578,-0.00014205,-0.00002704,0.00001926,0.00000607,0.00012401,0.000640
 01,-0.00011484,-0.00040047,0.00019410,0.00003220,0.00014415,0.00001388
 ,0.00004298,0.00010000,-0.00000522,0.00021523,0.00016290,-0.00006853,-
 0.00004945,-0.00005982,0.00005232,-0.00027910,0.00050825,-0.00084618,-
 0.00002776,0.00002574,0.00001928,-0.00010690,-0.00000582,-0.00010903,-
 0.00000505,-0.00001091,0.00000998,0.00000670,-0.00003001,-0.00001111,0
 .00031414,0.00010323,0.00002175,0.00000974,0.00000180,0.00001196,-0.00
 017645,0.00006636,0.00005894,0.00005343,-0.00004634,-0.00001117,0.0000
 9682,0.00000706,-0.00000367,0.00000589,-0.00002880,-0.00003338,-0.0000
 1286,-0.00001592,-0.00015116,-0.00014271,0.00001907,-0.00000213,0.0000
 3656,0.00000924,0.00006373,-0.00009052,-0.00004243,-0.00008042,0.00008
 368,0.00012962,0.00011187,-0.00004041,0.00000929,0.00001324,0.00008457
 ,0.00002776,-0.00000892,0.00001146,-0.00016512,0.00012612,-0.00001811,
 0.00001228,-0.00004008,-0.00001794,0.00005649,-0.00007579,0.00002712,0
 .00006538,-0.00000327,-0.00000106,-0.00002722,0.00000172,0.00000140,-0
 .00000319,0.00000249,0.00001341,-0.00001908,-0.00001192,-0.00005864,0.
 00003241,0.00003020,-0.00002348,0.00001816,0.00001246,0.00002779,-0.00
 003062,-0.00001030,0.00002224,0.00000310,0.00000123,-0.00000528,0.0000
 0989,0.00004146,0.00003710,-0.00000059,0.00001387,0.00001676,0.0000009
 1,0.00002345,-0.00001047,-0.00001222,0.00000896,-0.00000931,0.00001434
 ,-0.00002489,-0.00000474,0.00001570,-0.00000679,-0.00000968,-0.0000144
 2,-0.00005006,0.00001309,0.00006893,-0.00003199,0.00003473,-0.00005512
 ,0.00011709,-0.00001169,-0.00001367,0.00000271,-0.00000608,-0.00000106
 ,0.00001105,-0.00002274,0.00000071,-0.00002662,0.00002147,0.00000467,-
 0.00000732,0.00000368,0.00001602,-0.00000237,-0.00001381,-0.00001064,-
 0.00007124,0.00003685,-0.00000754,0.00000066,0.00006777,-0.00002571,0.
 00000837,0.00000664,0.00000712,0.00000141,-0.00002961,-0.00002222,-0.0
 0000260,0.00017753,-0.00002242,0.00011541,-0.00000275,0.00001751,0.000
 01904,-0.00002711,0.00004964,-0.00000671,-0.00000460,-0.00000253,-0.00
 000271,-0.00022069,-0.00003691,-0.00002141,0.00000805,0.00007703,0.000
 02225,-0.00005414,0.00000618,-0.00000005,0.00000005,0.00000680,0.00001
 985,-0.00000300,0.00002863,-0.00015157,-0.00009014,0.00000914,-0.00000
 070,-0.00000299,-0.00009669,0.00008652,0.00000062,0.00000062,-0.000000
 85,0.00000685,0.00001617,0.00004883,-0.00003294,-0.00000957,0.00004075
 ,0.00009559,-0.00006075,-0.00009806,0.00000331,-0.00000027,0.00000145,
 -0.00000393,-0.00000071,-0.00001519,-0.00003655,-0.00001236,0.00009379
 ,0.00000636,-0.00000269,0.00000669,0.00009792,-0.00004960,-0.00009279,
 -0.00000459,-0.00000527,0.00000343,-0.00011900,0.00013980,0.00006833,-
 0.00039441,0.00001092,0.00037106,0.00018670,0.00000251,-0.00008473,-0.
 00007268,0.00008588,0.00001325,0.00085980,0.00002453,-0.00031438,-0.00
 005077,-0.00007543,-0.00000755,-0.00231555,0.00019296,-0.00006068,0.00
 003349,0.00001626,-0.00002076,-0.00000189,-0.00003090,-0.00003834,0.00
 002012,0.00000073,0.00001136,2.77164422,-0.00015923,-0.00097343,0.0003
 6675,0.00013424,0.00036561,0.00004827,0.00014195,0.00005702,-0.0000328
 4,0.00002893,0.00118720,-0.00031177,-0.00013114,-0.00020253,0.00007108
 ,-0.00030914,-0.00210430,-0.00132973,0.00001720,0.00011307,-0.00010558
 ,-0.00005540,-0.00000952,-0.00004853,0.00000906,0.00001719,0.00001816,
 -1.21368292,0.96620785,0.00066130,0.00075298,-0.00032609,-0.00030624,-
 0.00025120,-0.00006565,-0.00007072,-0.00014905,-0.00005530,-0.00031381
 ,-0.00031704,0.00078337,0.00009083,0.00020104,-0.00013543,0.00083981,-
 0.00013300,-0.00020033,-0.00002402,-0.00011029,0.00016993,0.00000447,0
 .00000973,0.00003203,-0.00000643,-0.00000102,0.00001036,0.05529408,1.9
 4350513,0.29239595,0.00052783,-0.00001317,-0.00000236,-0.00016835,-0.0
 0002948,-0.00002402,0.00013456,0.00005113,0.00003762,-0.00056126,0.000
 02635,0.00024360,0.00007709,0.00017161,0.00000043,0.00089375,-0.000560
 97,0.00010912,-0.00005579,-0.00005117,0.00003676,0.00001108,0.00001491
 ,0.00001845,-0.00002035,-0.00001310,-0.00001845,-3.32225356,0.58266766
 ,-0.58039843,3.31560897,0.00002176,0.00023610,-0.00023298,-0.00001446,
 -0.00012281,-0.00000490,0.00002287,-0.00002772,0.00003370,-0.00020132,
 -0.00027735,0.00016654,0.00002120,0.00004273,-0.00002186,0.00049228,0.
 00079479,0.00022279,-0.00000758,-0.00002316,0.00003164,0.00000534,-0.0
 0000181,0.00001122,-0.00000567,-0.00000274,-0.00000021,0.58092718,0.65
 301098,0.06445648,-0.57930055,-0.65546114,-0.00011180,-0.00038455,0.00
 006063,0.00006891,0.00013819,0.00002210,0.00006102,0.00004198,0.000023
 54,-0.00005978,0.00008411,-0.00062177,-0.00005548,-0.00005910,0.000070
 06,-0.00042227,0.00019489,0.00050107,-0.00000825,0.00005188,-0.0000623
 6,0.00000507,-0.00001737,-0.00002235,0.00000699,-0.00000437,-0.0000084
 1,-0.57934256,0.06407749,0.65467174,0.57960531,-0.06873290,-0.65507509
 ,-0.00004608,-0.00003264,-0.00020279,-0.00003022,0.00002242,0.00004372
 ,0.00000105,0.00001318,0.00004865,-0.00024973,-0.00010505,-0.00013588,
 -0.00000555,-0.00002761,0.00000797,0.00093268,0.00023224,0.00006107,0.
 00000721,0.00000522,-0.00001173,-0.00001336,0.00000181,0.00000395,-0.0
 0000381,0.00000141,0.00000091,0.55234456,0.63133878,0.52422916,0.00580
 603,-0.00196106,0.00025283,-0.55874277,0.00005531,0.00055127,0.0000788
 2,-0.00009158,-0.00018577,-0.00006566,0.00001514,0.00008490,0.00007380
 ,0.00022389,-0.00067950,0.00017508,0.00013010,0.00015832,-0.00004875,-
 0.00040193,0.00085826,0.00062312,-0.00002190,-0.00009083,0.00005509,0.
 00002801,0.00000495,0.00002060,-0.00001340,-0.00001731,-0.00001653,0.6
 3252826,-1.61766912,-2.00796376,-0.00296321,0.00183214,0.00460976,-0.6
 2948869,1.61515269,-0.00030336,-0.00005250,0.00032335,0.00012893,0.000
 02764,-0.00005359,0.00005144,0.00010688,0.00004716,-0.00002099,0.00001
 221,-0.00053081,0.00004936,-0.00002862,0.00003595,-0.00015758,-0.00034
 392,0.00039958,0.00000576,-0.00000162,-0.00005846,-0.00001252,0.000009
 16,-0.00000442,-0.00001441,0.00000030,-0.00001035,0.52417926,-2.006258
 45,-0.94728056,0.00039197,0.00407050,0.00044086,-0.52429785,2.00245843
 ,0.94669129\\@
 The archive entry for this job was punched.


 LAW OF COMPENSATION:
      NO CALCULATION IS EVER A COMPLETE FAILURE; IT 
      CAN ALWAYS SERVE AS A BAD EXAMPLE.

                                           -- ANON
 Job cpu time:       6 days 18 hours 49 minutes 57.7 seconds.
 Elapsed time:       0 days  4 hours  8 minutes 10.2 seconds.
 File lengths (MBytes):  RWF=   6518 Int=      0 D2E=      0 Chk=     47 Scr=      1
 Normal termination of Gaussian 16 at Sat Mar 22 20:21:43 2025.
