 Entering Gaussian System, Link 0=g16
 Input=enoloneco_nh3_mp2_avdz_opt_anharm.gjf
 Output=enoloneco_nh3_mp2_avdz_opt_anharm.log
 Initial command:
 /sw/contrib/chem-src/g16/c01/g16/l1.exe "/scr/Gau-84704.inp" -scrdir="/scr/"
 Entering Link 1 = /sw/contrib/chem-src/g16/c01/g16/l1.exe PID=     84705.
  
 Copyright (c) 1988-2019, Gaussian, Inc.  All Rights Reserved.
  
 This is part of the Gaussian(R) 16 program.  It is based on
 the Gaussian(R) 09 system (copyright 2009, Gaussian, Inc.),
 the Gaussian(R) 03 system (copyright 2003, Gaussian, Inc.),
 the Gaussian(R) 98 system (copyright 1998, Gaussian, Inc.),
 the Gaussian(R) 94 system (copyright 1995, Gaussian, Inc.),
 the Gaussian 92(TM) system (copyright 1992, Gaussian, Inc.),
 the Gaussian 90(TM) system (copyright 1990, Gaussian, Inc.),
 the Gaussian 88(TM) system (copyright 1988, Gaussian, Inc.),
 the Gaussian 86(TM) system (copyright 1986, Carnegie Mellon
 University), and the Gaussian 82(TM) system (copyright 1983,
 Carnegie Mellon University). Gaussian is a federally registered
 trademark of Gaussian, Inc.
  
 This software contains proprietary and confidential information,
 including trade secrets, belonging to Gaussian, Inc.
  
 This software is provided under written license and may be
 used, copied, transmitted, or stored only in accord with that
 written license.
  
 The following legend is applicable only to US Government
 contracts under FAR:
  
                    RESTRICTED RIGHTS LEGEND
  
 Use, reproduction and disclosure by the US Government is
 subject to restrictions as set forth in subparagraphs (a)
 and (c) of the Commercial Computer Software - Restricted
 Rights clause in FAR 52.227-19.
  
 Gaussian, Inc.
 340 Quinnipiac St., Bldg. 40, Wallingford CT 06492
  
  
 ---------------------------------------------------------------
 Warning -- This program may not be used in any manner that
 competes with the business of Gaussian, Inc. or will provide
 assistance to any competitor of Gaussian, Inc.  The licensee
 of this program is prohibited from giving any competitor of
 Gaussian, Inc. access to this program.  By using this program,
 the user acknowledges that Gaussian, Inc. is engaged in the
 business of creating and licensing software in the field of
 computational chemistry and represents and warrants to the
 licensee that it is not a competitor of Gaussian, Inc. and that
 it will not use this program in any manner prohibited above.
 ---------------------------------------------------------------
  

 Cite this work as:
 Gaussian 16, Revision C.01,
 M. J. Frisch, G. W. Trucks, H. B. Schlegel, G. E. Scuseria, 
 M. A. Robb, J. R. Cheeseman, G. Scalmani, V. Barone, 
 G. A. Petersson, H. Nakatsuji, X. Li, M. Caricato, A. V. Marenich, 
 J. Bloino, B. G. Janesko, R. Gomperts, B. Mennucci, H. P. Hratchian, 
 J. V. Ortiz, A. F. Izmaylov, J. L. Sonnenberg, D. Williams-Young, 
 F. Ding, F. Lipparini, F. Egidi, J. Goings, B. Peng, A. Petrone, 
 T. Henderson, D. Ranasinghe, V. G. Zakrzewski, J. Gao, N. Rega, 
 G. Zheng, W. Liang, M. Hada, M. Ehara, K. Toyota, R. Fukuda, 
 J. Hasegawa, M. Ishida, T. Nakajima, Y. Honda, O. Kitao, H. Nakai, 
 T. Vreven, K. Throssell, J. A. Montgomery, Jr., J. E. Peralta, 
 F. Ogliaro, M. J. Bearpark, J. J. Heyd, E. N. Brothers, K. N. Kudin, 
 V. N. Staroverov, T. A. Keith, R. Kobayashi, J. Normand, 
 K. Raghavachari, A. P. Rendell, J. C. Burant, S. S. Iyengar, 
 J. Tomasi, M. Cossi, J. M. Millam, M. Klene, C. Adamo, R. Cammi, 
 J. W. Ochterski, R. L. Martin, K. Morokuma, O. Farkas, 
 J. B. Foresman, and D. J. Fox, Gaussian, Inc., Wallingford CT, 2019.
 
 ******************************************
 Gaussian 16:  EM64L-G16RevC.01  3-Jul-2019
                22-Mar-2025 
 ******************************************
 %nprocshared=40
 Will use up to   40 processors via shared memory.
 %mem=50gb
 ----------------------------------------------
 # MP2/aug-cc-pVDZ opt freq=(vibrot,anharmonic)
 ----------------------------------------------
 1/18=20,19=15,38=1,80=1/1,3;
 2/9=110,12=2,17=6,18=5,40=1/2;
 3/5=16,7=10,11=9,25=1,30=1,71=1/1,2,3;
 4//1;
 5/5=2,38=5/2;
 8/6=4,10=1/1;
 9/15=2,16=-3/6;
 10/5=1/2;
 6/7=2,8=2,9=2,10=2/1;
 7/12=2/1,2,3,16;
 1/18=20,19=15,80=1/3(2);
 2/9=110/2;
 99//99;
 2/9=110/2;
 3/5=16,7=10,11=9,25=1,30=1,71=1/1,2,3;
 4/5=5,16=3,69=1/1;
 5/5=2,38=5/2;
 8/6=4,10=1/1;
 9/15=2,16=-3/6;
 10/5=1/2;
 7/12=2/1,2,3,16;
 1/18=20,19=15,80=1/3(-8);
 2/9=110/2;
 6/7=2,8=2,9=2,10=2/1;
 99/9=10/99;
 ----
 blah
 ----
 Symbolic Z-matrix:
 Charge =  0 Multiplicity = 1
 C                    -0.27961   0.94837   0.10993 
 C                    -0.99455   0.54011  -0.94193 
 H                     0.02638   0.27717   0.9032 
 O                     0.14435   2.22762   0.3179 
 C                    -1.44861   1.39947  -2.06342 
 H                     0.6586    2.26476   1.16179 
 O                    -1.20888   2.58999  -2.20086 
 H                    -1.28999  -0.49955  -1.01985 
 H                    -2.0522    0.85911  -2.81203 
 N                     1.58508   2.55508   2.58825 
 H                     2.53173   2.17091   2.66127 
 H                     1.73119   3.5684    2.51533 
 H                     1.1828    2.42707   3.52131 
 
 Add virtual bond connecting atoms N10        and H6         Dist= 3.26D+00.

 GradGradGradGradGradGradGradGradGradGradGradGradGradGradGradGradGradGrad
 Berny optimization.
 Initialization pass.
                           ----------------------------
                           !    Initial Parameters    !
                           ! (Angstroms and Degrees)  !
 --------------------------                            --------------------------
 ! Name  Definition              Value          Derivative Info.                !
 --------------------------------------------------------------------------------
 ! R1    R(1,2)                  1.3358         estimate D2E/DX2                !
 ! R2    R(1,3)                  1.0832         estimate D2E/DX2                !
 ! R3    R(1,4)                  1.3636         estimate D2E/DX2                !
 ! R4    R(2,5)                  1.484          estimate D2E/DX2                !
 ! R5    R(2,8)                  1.0836         estimate D2E/DX2                !
 ! R6    R(4,6)                  0.9889         estimate D2E/DX2                !
 ! R7    R(5,7)                  1.2222         estimate D2E/DX2                !
 ! R8    R(5,9)                  1.1031         estimate D2E/DX2                !
 ! R9    R(6,10)                 1.7255         estimate D2E/DX2                !
 ! R10   R(10,11)                1.0242         estimate D2E/DX2                !
 ! R11   R(10,12)                1.0264         estimate D2E/DX2                !
 ! R12   R(10,13)                1.0241         estimate D2E/DX2                !
 ! A1    A(2,1,3)              122.5804         estimate D2E/DX2                !
 ! A2    A(2,1,4)              124.976          estimate D2E/DX2                !
 ! A3    A(3,1,4)              112.4435         estimate D2E/DX2                !
 ! A4    A(1,2,5)              125.5816         estimate D2E/DX2                !
 ! A5    A(1,2,8)              119.7221         estimate D2E/DX2                !
 ! A6    A(5,2,8)              114.6963         estimate D2E/DX2                !
 ! A7    A(1,4,6)              109.0896         estimate D2E/DX2                !
 ! A8    A(2,5,7)              126.0886         estimate D2E/DX2                !
 ! A9    A(2,5,9)              113.3674         estimate D2E/DX2                !
 ! A10   A(7,5,9)              120.5439         estimate D2E/DX2                !
 ! A11   A(6,10,11)            119.4777         estimate D2E/DX2                !
 ! A12   A(6,10,12)            100.5918         estimate D2E/DX2                !
 ! A13   A(6,10,13)            121.4158         estimate D2E/DX2                !
 ! A14   A(11,10,12)           104.1099         estimate D2E/DX2                !
 ! A15   A(11,10,13)           104.5494         estimate D2E/DX2                !
 ! A16   A(12,10,13)           104.1253         estimate D2E/DX2                !
 ! A17   L(4,6,10,3,-1)        187.7089         estimate D2E/DX2                !
 ! A18   L(4,6,10,3,-2)        179.9207         estimate D2E/DX2                !
 ! D1    D(3,1,2,5)            179.9942         estimate D2E/DX2                !
 ! D2    D(3,1,2,8)              0.1062         estimate D2E/DX2                !
 ! D3    D(4,1,2,5)              0.1182         estimate D2E/DX2                !
 ! D4    D(4,1,2,8)           -179.7698         estimate D2E/DX2                !
 ! D5    D(2,1,4,6)           -179.5269         estimate D2E/DX2                !
 ! D6    D(3,1,4,6)              0.5861         estimate D2E/DX2                !
 ! D7    D(1,2,5,7)              1.8149         estimate D2E/DX2                !
 ! D8    D(1,2,5,9)           -178.3128         estimate D2E/DX2                !
 ! D9    D(8,2,5,7)           -178.2922         estimate D2E/DX2                !
 ! D10   D(8,2,5,9)              1.5801         estimate D2E/DX2                !
 ! D11   D(1,4,10,11)           70.7827         estimate D2E/DX2                !
 ! D12   D(1,4,10,12)         -177.7784         estimate D2E/DX2                !
 ! D13   D(1,4,10,13)          -65.4306         estimate D2E/DX2                !
 --------------------------------------------------------------------------------
 Trust Radius=3.00D-01 FncErr=1.00D-07 GrdErr=1.00D-07 EigMax=2.50D+02 EigMin=1.00D-04
 Number of steps in this run=     53 maximum allowed number of steps=    100.
 GradGradGradGradGradGradGradGradGradGradGradGradGradGradGradGradGradGrad

                          Input orientation:                          
 ---------------------------------------------------------------------
 Center     Atomic      Atomic             Coordinates (Angstroms)
 Number     Number       Type             X           Y           Z
 ---------------------------------------------------------------------
      1          6           0       -0.279606    0.948370    0.109929
      2          6           0       -0.994548    0.540110   -0.941933
      3          1           0        0.026381    0.277173    0.903203
      4          8           0        0.144348    2.227623    0.317898
      5          6           0       -1.448607    1.399466   -2.063418
      6          1           0        0.658596    2.264763    1.161787
      7          8           0       -1.208875    2.589986   -2.200859
      8          1           0       -1.289995   -0.499550   -1.019855
      9          1           0       -2.052197    0.859112   -2.812033
     10          7           0        1.585075    2.555077    2.588248
     11          1           0        2.531735    2.170910    2.661268
     12          1           0        1.731193    3.568397    2.515330
     13          1           0        1.182799    2.427073    3.521307
 ---------------------------------------------------------------------
                    Distance matrix (angstroms):
                    1          2          3          4          5
     1  C    0.000000
     2  C    1.335752   0.000000
     3  H    1.083243   2.125078   0.000000
     4  O    1.363626   2.394151   2.039793   0.000000
     5  C    2.508683   1.484045   3.497995   2.982283   0.000000
     6  H    1.928606   3.183230   2.101685   0.988929   3.948543
     7  O    2.982983   2.415124   4.063270   2.882127   1.222170
     8  H    2.096132   1.083630   2.456479   3.359225   2.172658
     9  H    3.418758   2.172017   4.296756   4.061293   1.103054
    10  N    3.492937   4.814221   3.233845   2.708766   5.672447
    11  H    3.988430   5.298797   3.599144   3.345776   6.225826
    12  H    4.085806   5.343487   4.041967   3.023981   5.981665
    13  H    3.995334   5.312437   3.579644   3.373425   6.258549
                    6          7          8          9         10
     6  H    0.000000
     7  O    3.860131   0.000000
     8  H    4.024673   3.308562   0.000000
     9  H    5.011537   2.020062   2.374620   0.000000
    10  N    1.725524   5.544630   5.533098   6.728230   0.000000
    11  H    2.401229   6.148827   5.940340   7.258807   1.024246
    12  H    2.163794   5.643025   6.178454   7.073547   1.026395
    13  H    2.422492   6.204018   5.941547   7.282507   1.024114
                   11         12         13
    11  H    0.000000
    12  H    1.617138   0.000000
    13  H    1.620158   1.617204   0.000000
 Stoichiometry    C3H7NO2
 Framework group  C1[X(C3H7NO2)]
 Deg. of freedom    33
 Full point group                 C1      NOp   1
 Largest Abelian subgroup         C1      NOp   1
 Largest concise Abelian subgroup C1      NOp   1
                         Standard orientation:                         
 ---------------------------------------------------------------------
 Center     Atomic      Atomic             Coordinates (Angstroms)
 Number     Number       Type             X           Y           Z
 ---------------------------------------------------------------------
      1          6           0        0.046595    0.860469    0.000557
      2          6           0       -1.276956    1.040535    0.005233
      3          1           0        0.747652    1.686223    0.008739
      4          8           0        0.670467   -0.351945   -0.017112
      5          6           0       -2.295319   -0.038915   -0.005386
      6          1           0        1.649424   -0.212083   -0.009109
      7          8           0       -2.071205   -1.240243    0.011437
      8          1           0       -1.682418    2.045394    0.015910
      9          1           0       -3.331828    0.337686   -0.028790
     10          7           0        3.374850   -0.199397    0.004253
     11          1           0        3.870126    0.104961    0.847549
     12          1           0        3.571354   -1.205232   -0.052042
     13          1           0        3.911719    0.203807   -0.769056
 ---------------------------------------------------------------------
 Rotational constants (GHZ):           8.5797957           1.3318813           1.1599574
 Standard basis: Aug-CC-pVDZ (5D, 7F)
 There are   213 symmetry adapted cartesian basis functions of A   symmetry.
 There are   201 symmetry adapted basis functions of A   symmetry.
   201 basis functions,   335 primitive gaussians,   213 cartesian basis functions
    24 alpha electrons       24 beta electrons
       nuclear repulsion energy       220.0510240519 Hartrees.
 NAtoms=   13 NActive=   13 NUniq=   13 SFac= 1.00D+00 NAtFMM=   60 NAOKFM=F Big=F
 Integral buffers will be    131072 words long.
 Raffenetti 1 integral format.
 Two-electron integral symmetry is turned on.
 One-electron integrals computed using PRISM.
 NBasis=   201 RedAO= T EigKep=  2.60D-05  NBF=   201
 NBsUse=   201 1.00D-06 EigRej= -1.00D+00 NBFU=   201
 ExpMin= 2.97D-02 ExpMax= 1.17D+04 ExpMxC= 4.01D+02 IAcc=3 IRadAn=         5 AccDes= 0.00D+00
 Harris functional with IExCor=  205 and IRadAn=       5 diagonalized for initial guess.
 HarFok:  IExCor=  205 AccDes= 0.00D+00 IRadAn=         5 IDoV= 1 UseB2=F ITyADJ=14
 ICtDFT=  3500011 ScaDFX=  1.000000  1.000000  1.000000  1.000000
 FoFCou: FMM=F IPFlag=           0 FMFlag=      100000 FMFlg1=           0
         NFxFlg=           0 DoJE=T BraDBF=F KetDBF=T FulRan=T
         wScrn=  0.000000 ICntrl=       500 IOpCl=  0 I1Cent=   200000004 NGrid=           0
         NMat0=    1 NMatS0=      1 NMatT0=    0 NMatD0=    1 NMtDS0=    0 NMtDT0=    0
 Petite list used in FoFCou.
 Requested convergence on RMS density matrix=1.00D-08 within 128 cycles.
 Requested convergence on MAX density matrix=1.00D-06.
 Requested convergence on             energy=1.00D-06.
 No special actions if energy rises.
 SCF Done:  E(RHF) =  -321.870652760     A.U. after   14 cycles
            NFock= 14  Conv=0.97D-08     -V/T= 2.0018
 ExpMin= 2.97D-02 ExpMax= 1.17D+04 ExpMxC= 4.01D+02 IAcc=3 IRadAn=         5 AccDes= 0.00D+00
 HarFok:  IExCor=  205 AccDes= 0.00D+00 IRadAn=         5 IDoV=-2 UseB2=F ITyADJ=14
 ICtDFT= 12500011 ScaDFX=  1.000000  1.000000  1.000000  1.000000
 Range of M.O.s used for correlation:     7   201
 NBasis=   201 NAE=    24 NBE=    24 NFC=     6 NFV=     0
 NROrb=    195 NOA=    18 NOB=    18 NVA=   177 NVB=   177

 **** Warning!!: The largest alpha MO coefficient is  0.60691742D+02

 Fully direct method using O(ONN) memory.
 JobTyp=1 Pass  1:  I=   7 to  24 NPSUse= 40 ParTrn=T ParDer=T DoDerP=T.
 Spin components of T(2) and E(2):
     alpha-alpha T2 =       0.4238382250D-01 E2=     -0.1294162254D+00
     alpha-beta  T2 =       0.2383527051D+00 E2=     -0.7475137060D+00
     beta-beta   T2 =       0.4238382250D-01 E2=     -0.1294162254D+00
 ANorm=    0.1150269686D+01
 E2 =    -0.1006346157D+01 EUMP2 =    -0.32287699891709D+03
          IDoAtm=1111111111111
          Differentiating once with respect to electric field.
                with respect to dipole field.
          Differentiating once with respect to nuclear coordinates.
 Keep R1 ints in memory in canonical form, NReq=215111742.
          There are     1 degrees of freedom in the 1st order CPHF.  IDoFFX=0 NUNeed=     1.
 LinEq1:  Iter=  0 NonCon=     1 RMS=4.56D-03 Max=1.25D-01 NDo=     1
 AX will form     1 AO Fock derivatives at one time.
 LinEq1:  Iter=  1 NonCon=     1 RMS=1.43D-03 Max=2.12D-02 NDo=     1
 LinEq1:  Iter=  2 NonCon=     1 RMS=5.31D-04 Max=1.04D-02 NDo=     1
 LinEq1:  Iter=  3 NonCon=     1 RMS=1.75D-04 Max=3.41D-03 NDo=     1
 LinEq1:  Iter=  4 NonCon=     1 RMS=6.01D-05 Max=9.68D-04 NDo=     1
 LinEq1:  Iter=  5 NonCon=     1 RMS=2.16D-05 Max=2.69D-04 NDo=     1
 LinEq1:  Iter=  6 NonCon=     1 RMS=7.53D-06 Max=1.51D-04 NDo=     1
 LinEq1:  Iter=  7 NonCon=     1 RMS=2.41D-06 Max=3.31D-05 NDo=     1
 LinEq1:  Iter=  8 NonCon=     1 RMS=8.93D-07 Max=3.12D-05 NDo=     1
 LinEq1:  Iter=  9 NonCon=     1 RMS=2.78D-07 Max=2.61D-06 NDo=     1
 LinEq1:  Iter= 10 NonCon=     1 RMS=6.56D-08 Max=1.17D-06 NDo=     1
 LinEq1:  Iter= 11 NonCon=     1 RMS=1.50D-08 Max=1.63D-07 NDo=     1
 LinEq1:  Iter= 12 NonCon=     1 RMS=4.05D-09 Max=6.20D-08 NDo=     1
 LinEq1:  Iter= 13 NonCon=     1 RMS=1.54D-09 Max=1.50D-08 NDo=     1
 LinEq1:  Iter= 14 NonCon=     1 RMS=3.75D-10 Max=7.06D-09 NDo=     1
 LinEq1:  Iter= 15 NonCon=     1 RMS=7.95D-11 Max=2.43D-09 NDo=     1
 LinEq1:  Iter= 16 NonCon=     0 RMS=2.41D-11 Max=5.86D-10 NDo=     1
 Linear equations converged to 1.000D-10 1.000D-09 after    16 iterations.
 End of Minotr F.D. properties file   721 does not exist.
 End of Minotr F.D. properties file   722 does not exist.
 End of Minotr F.D. properties file   788 does not exist.

 **********************************************************************

            Population analysis using the SCF Density.

 **********************************************************************

 Orbital symmetries:
       Occupied  (A) (A) (A) (A) (A) (A) (A) (A) (A) (A) (A) (A)
                 (A) (A) (A) (A) (A) (A) (A) (A) (A) (A) (A) (A)
       Virtual   (A) (A) (A) (A) (A) (A) (A) (A) (A) (A) (A) (A)
                 (A) (A) (A) (A) (A) (A) (A) (A) (A) (A) (A) (A)
                 (A) (A) (A) (A) (A) (A) (A) (A) (A) (A) (A) (A)
                 (A) (A) (A) (A) (A) (A) (A) (A) (A) (A) (A) (A)
                 (A) (A) (A) (A) (A) (A) (A) (A) (A) (A) (A) (A)
                 (A) (A) (A) (A) (A) (A) (A) (A) (A) (A) (A) (A)
                 (A) (A) (A) (A) (A) (A) (A) (A) (A) (A) (A) (A)
                 (A) (A) (A) (A) (A) (A) (A) (A) (A) (A) (A) (A)
                 (A) (A) (A) (A) (A) (A) (A) (A) (A) (A) (A) (A)
                 (A) (A) (A) (A) (A) (A) (A) (A) (A) (A) (A) (A)
                 (A) (A) (A) (A) (A) (A) (A) (A) (A) (A) (A) (A)
                 (A) (A) (A) (A) (A) (A) (A) (A) (A) (A) (A) (A)
                 (A) (A) (A) (A) (A) (A) (A) (A) (A) (A) (A) (A)
                 (A) (A) (A) (A) (A) (A) (A) (A) (A) (A) (A) (A)
                 (A) (A) (A) (A) (A) (A) (A) (A) (A)
 The electronic state is 1-A.
 Alpha  occ. eigenvalues --  -20.57531 -20.53370 -15.60415 -11.32035 -11.31832
 Alpha  occ. eigenvalues --  -11.21851  -1.38437  -1.35569  -1.19400  -1.04473
 Alpha  occ. eigenvalues --   -0.87226  -0.74562  -0.73868  -0.66943  -0.66737
 Alpha  occ. eigenvalues --   -0.63809  -0.62444  -0.56503  -0.55918  -0.53654
 Alpha  occ. eigenvalues --   -0.49922  -0.48110  -0.39514  -0.34170
 Alpha virt. eigenvalues --    0.01822   0.04060   0.04669   0.04837   0.06015
 Alpha virt. eigenvalues --    0.07178   0.08453   0.09197   0.11932   0.12507
 Alpha virt. eigenvalues --    0.14091   0.15167   0.15262   0.15701   0.16458
 Alpha virt. eigenvalues --    0.16966   0.17165   0.18228   0.19160   0.19487
 Alpha virt. eigenvalues --    0.20859   0.22819   0.24072   0.24200   0.25398
 Alpha virt. eigenvalues --    0.26172   0.28154   0.29223   0.31278   0.31720
 Alpha virt. eigenvalues --    0.32174   0.32726   0.34115   0.35269   0.35826
 Alpha virt. eigenvalues --    0.36982   0.39186   0.39761   0.40396   0.41305
 Alpha virt. eigenvalues --    0.42734   0.44359   0.44692   0.46194   0.47971
 Alpha virt. eigenvalues --    0.49644   0.50197   0.50818   0.51957   0.52364
 Alpha virt. eigenvalues --    0.54043   0.54678   0.54864   0.55130   0.57381
 Alpha virt. eigenvalues --    0.58991   0.59266   0.61058   0.61902   0.64038
 Alpha virt. eigenvalues --    0.64141   0.65338   0.65802   0.67637   0.68162
 Alpha virt. eigenvalues --    0.69253   0.71373   0.72617   0.73001   0.74751
 Alpha virt. eigenvalues --    0.75363   0.76533   0.79283   0.81354   0.83943
 Alpha virt. eigenvalues --    0.85069   0.86002   0.87141   0.90614   0.91730
 Alpha virt. eigenvalues --    0.93481   0.93717   0.98222   0.99320   1.00092
 Alpha virt. eigenvalues --    1.00898   1.01829   1.07142   1.10242   1.12302
 Alpha virt. eigenvalues --    1.14664   1.19846   1.21411   1.22278   1.23570
 Alpha virt. eigenvalues --    1.25884   1.27933   1.29382   1.31227   1.32969
 Alpha virt. eigenvalues --    1.34155   1.39044   1.42539   1.48059   1.52171
 Alpha virt. eigenvalues --    1.53370   1.56263   1.58266   1.60214   1.61377
 Alpha virt. eigenvalues --    1.65372   1.70186   1.71551   1.75235   1.77693
 Alpha virt. eigenvalues --    1.78638   1.81723   1.82062   1.83045   1.85036
 Alpha virt. eigenvalues --    1.86058   1.88729   1.91225   1.93189   1.96711
 Alpha virt. eigenvalues --    1.97479   1.98113   2.03419   2.04902   2.07114
 Alpha virt. eigenvalues --    2.10251   2.10434   2.14550   2.17965   2.20343
 Alpha virt. eigenvalues --    2.22873   2.27014   2.27795   2.31781   2.32729
 Alpha virt. eigenvalues --    2.34368   2.38068   2.38303   2.41350   2.42641
 Alpha virt. eigenvalues --    2.43428   2.47464   2.50391   2.53110   2.66469
 Alpha virt. eigenvalues --    2.71354   2.80016   2.83456   2.85148   2.85779
 Alpha virt. eigenvalues --    2.86460   2.96719   2.98378   3.06022   3.11088
 Alpha virt. eigenvalues --    3.14592   3.21885   3.31607   3.37257   3.52239
 Alpha virt. eigenvalues --    3.52671   3.68193   3.72257   3.77877   3.78727
 Alpha virt. eigenvalues --    3.80344   3.83718   3.90024   4.02260   4.06558
 Alpha virt. eigenvalues --    4.16612   4.51834
          Condensed to atoms (all electrons):
               1          2          3          4          5          6
     1  C    5.469480  -0.162556  -0.314701   0.022787  -0.309694   0.069328
     2  C   -0.162556   5.524107   0.133266  -0.030509   0.299606  -0.080954
     3  H   -0.314701   0.133266   1.783253  -0.000326   0.035501  -0.134061
     4  O    0.022787  -0.030509  -0.000326   8.540478   0.004367   0.349952
     5  C   -0.309694   0.299606   0.035501   0.004367   4.857444  -0.015748
     6  H    0.069328  -0.080954  -0.134061   0.349952  -0.015748   0.551034
     7  O    0.020050  -0.066154  -0.003410  -0.029771   0.324880   0.007467
     8  H    0.128697  -0.089000  -0.087424   0.022698  -0.103858   0.003873
     9  H    0.043610   0.028092   0.002379  -0.000307   0.172987  -0.000217
    10  N    0.017933  -0.032979   0.008866  -0.043493  -0.002789  -0.147112
    11  H    0.000750   0.000216  -0.001976  -0.004784   0.000082  -0.008357
    12  H   -0.000029  -0.003049   0.003430  -0.000318   0.000682  -0.013200
    13  H   -0.000029   0.000132  -0.001241  -0.003269  -0.000103  -0.006273
               7          8          9         10         11         12
     1  C    0.020050   0.128697   0.043610   0.017933   0.000750  -0.000029
     2  C   -0.066154  -0.089000   0.028092  -0.032979   0.000216  -0.003049
     3  H   -0.003410  -0.087424   0.002379   0.008866  -0.001976   0.003430
     4  O   -0.029771   0.022698  -0.000307  -0.043493  -0.004784  -0.000318
     5  C    0.324880  -0.103858   0.172987  -0.002789   0.000082   0.000682
     6  H    0.007467   0.003873  -0.000217  -0.147112  -0.008357  -0.013200
     7  O    8.535188  -0.003664  -0.061248   0.001372   0.000017  -0.000207
     8  H   -0.003664   1.646523  -0.049970   0.000331   0.000125  -0.000379
     9  H   -0.061248  -0.049970   0.990282  -0.000002   0.000007   0.000019
    10  N    0.001372   0.000331  -0.000002   6.250142   0.403009   0.426210
    11  H    0.000017   0.000125   0.000007   0.403009   0.686093  -0.053468
    12  H   -0.000207  -0.000379   0.000019   0.426210  -0.053468   0.646315
    13  H    0.000054   0.000128   0.000001   0.401070  -0.093683  -0.060722
              13
     1  C   -0.000029
     2  C    0.000132
     3  H   -0.001241
     4  O   -0.003269
     5  C   -0.000103
     6  H   -0.006273
     7  O    0.000054
     8  H    0.000128
     9  H    0.000001
    10  N    0.401070
    11  H   -0.093683
    12  H   -0.060722
    13  H    0.693788
 Mulliken charges:
               1
     1  C    1.014373
     2  C    0.479783
     3  H   -0.423556
     4  O   -0.827503
     5  C    0.736644
     6  H    0.424270
     7  O   -0.724574
     8  H   -0.468079
     9  H   -0.125634
    10  N   -0.282558
    11  H    0.071972
    12  H    0.054717
    13  H    0.070147
 Sum of Mulliken charges =  -0.00000
 Mulliken charges with hydrogens summed into heavy atoms:
               1
     1  C    0.590817
     2  C    0.011704
     4  O   -0.403234
     5  C    0.611010
     7  O   -0.724574
    10  N   -0.085723
 Electronic spatial extent (au):  <R**2>=            975.2328
 Charge=             -0.0000 electrons
 Dipole moment (field-independent basis, Debye):
    X=              5.9142    Y=              3.5627    Z=              0.0092  Tot=              6.9044
 Quadrupole moment (field-independent basis, Debye-Ang):
   XX=            -16.7123   YY=            -38.6520   ZZ=            -37.1750
   XY=             -7.0271   XZ=              0.1483   YZ=              0.0531
 Traceless Quadrupole moment (field-independent basis, Debye-Ang):
   XX=             14.1341   YY=             -7.8055   ZZ=             -6.3286
   XY=             -7.0271   XZ=              0.1483   YZ=              0.0531
 Octapole moment (field-independent basis, Debye-Ang**2):
  XXX=             81.1866  YYY=             -0.3779  ZZZ=              0.2196  XYY=             17.7282
  XXY=              7.0017  XXZ=             -0.1479  XZZ=             10.0105  YZZ=             -3.7486
  YYZ=             -0.1278  XYZ=             -0.1441
 Hexadecapole moment (field-independent basis, Debye-Ang**3):
 XXXX=           -689.6280 YYYY=           -184.6412 ZZZZ=            -42.4465 XXXY=            -43.6008
 XXXZ=              0.3675 YYYX=            -17.2683 YYYZ=              0.3949 ZZZX=              0.9463
 ZZZY=             -0.0928 XXYY=           -196.0329 XXZZ=           -153.3486 YYZZ=            -42.3122
 XXYZ=             -0.1196 YYXZ=             -0.6602 ZZXY=              5.6651
 N-N= 2.200510240519D+02 E-N=-1.197366420568D+03  KE= 3.212889524408D+02
 Calling FoFJK, ICntrl=  10002127 FMM=F ISym2X=0 I1Cent= 0 IOpClX= 0 NMat=1 NMatS=1 NMatT=0.
 ***** Axes restored to original set *****
 -------------------------------------------------------------------
 Center     Atomic                   Forces (Hartrees/Bohr)
 Number     Number              X              Y              Z
 -------------------------------------------------------------------
      1        6           0.023391318    0.031554041    0.026802476
      2        6          -0.018792254    0.001297002   -0.032403950
      3        1           0.000139222   -0.011867398    0.005016204
      4        8          -0.009766857   -0.010800600   -0.012603293
      5        6           0.005259094   -0.013289942    0.014148180
      6        1           0.000550484   -0.002692897    0.002486191
      7        8           0.002096922    0.015629129   -0.003076144
      8        1           0.000346365   -0.007179868    0.003854744
      9        1          -0.005251782   -0.003793214   -0.007031426
     10        7           0.007134371    0.005806172    0.009265032
     11        1          -0.001906517   -0.001256392   -0.002466408
     12        1          -0.001298407   -0.002062985   -0.001413362
     13        1          -0.001901961   -0.001343050   -0.002578245
 -------------------------------------------------------------------
 Cartesian Forces:  Max     0.032403950 RMS     0.011590169

 GradGradGradGradGradGradGradGradGradGradGradGradGradGradGradGradGradGrad
 Berny optimization.
 FormGI is forming the generalized inverse of G from B-inverse, IUseBI=4.
 Internal  Forces:  Max     0.030288835 RMS     0.006725980
 Search for a local minimum.
 Step number   1 out of a maximum of   53
 All quantities printed in internal units (Hartrees-Bohrs-Radians)
 Mixed Optimization -- RFO/linear search
 Second derivative matrix not updated -- first step.
 ITU=  0
     Eigenvalues ---    0.00230   0.00230   0.00230   0.00977   0.00977
     Eigenvalues ---    0.02002   0.02173   0.02714   0.02939   0.07041
     Eigenvalues ---    0.07377   0.10321   0.16000   0.16000   0.16000
     Eigenvalues ---    0.16000   0.16000   0.16000   0.16000   0.22000
     Eigenvalues ---    0.22000   0.22000   0.33347   0.34111   0.35559
     Eigenvalues ---    0.35605   0.43333   0.43667   0.43688   0.49686
     Eigenvalues ---    0.52221   0.58168   0.94428
 RFO step:  Lambda=-4.65443387D-03 EMin= 2.30000000D-03
 Linear search not attempted -- first point.
 Iteration  1 RMS(Cart)=  0.05531372 RMS(Int)=  0.00121670
 Iteration  2 RMS(Cart)=  0.00228391 RMS(Int)=  0.00016661
 Iteration  3 RMS(Cart)=  0.00000199 RMS(Int)=  0.00016661
 Iteration  4 RMS(Cart)=  0.00000000 RMS(Int)=  0.00016661
 Variable       Old X    -DE/DX   Delta X   Delta X   Delta X     New X
                                 (Linear)    (Quad)   (Total)
    R1        2.52421   0.03029   0.00000   0.05166   0.05166   2.57586
    R2        2.04703   0.01107   0.00000   0.03068   0.03068   2.07771
    R3        2.57688  -0.01494   0.00000  -0.02835  -0.02835   2.54853
    R4        2.80444  -0.00454   0.00000  -0.01313  -0.01313   2.79131
    R5        2.04776   0.00652   0.00000   0.01809   0.01809   2.06585
    R6        1.86881   0.00582   0.00000   0.01157   0.01157   1.88037
    R7        2.30957   0.01598   0.00000   0.01684   0.01684   2.32641
    R8        2.08447   0.00950   0.00000   0.02811   0.02811   2.11258
    R9        3.26077   0.00359   0.00000   0.04792   0.04793   3.30869
   R10        1.93555  -0.00147   0.00000  -0.00332  -0.00332   1.93222
   R11        1.93961  -0.00212   0.00000  -0.00484  -0.00484   1.93476
   R12        1.93530  -0.00143   0.00000  -0.00325  -0.00325   1.93205
    A1        2.13943  -0.00527   0.00000  -0.03442  -0.03442   2.10501
    A2        2.18124  -0.00297   0.00000  -0.01322  -0.01322   2.16802
    A3        1.96251   0.00824   0.00000   0.04764   0.04763   2.01014
    A4        2.19181   0.00160   0.00000   0.00712   0.00712   2.19893
    A5        2.08954  -0.00582   0.00000  -0.03404  -0.03404   2.05550
    A6        2.00183   0.00422   0.00000   0.02692   0.02692   2.02875
    A7        1.90397  -0.00394   0.00000  -0.02393  -0.02393   1.88004
    A8        2.20066   0.00179   0.00000   0.00798   0.00796   2.20863
    A9        1.97863   0.00019   0.00000   0.00260   0.00258   1.98122
   A10        2.10389  -0.00198   0.00000  -0.01056  -0.01058   2.09331
   A11        2.08528  -0.00250   0.00000  -0.01742  -0.01775   2.06753
   A12        1.75566  -0.00097   0.00000  -0.00157  -0.00132   1.75434
   A13        2.11911  -0.00279   0.00000  -0.01911  -0.01943   2.09968
   A14        1.81706   0.00226   0.00000   0.01758   0.01781   1.83487
   A15        1.82473   0.00299   0.00000   0.01392   0.01339   1.83812
   A16        1.81733   0.00228   0.00000   0.01746   0.01769   1.83502
   A17        3.27614  -0.00006   0.00000  -0.06048  -0.06067   3.21547
   A18        3.14021  -0.00003   0.00000  -0.00677  -0.00678   3.13343
    D1        3.14149  -0.00007   0.00000  -0.00261  -0.00258   3.13891
    D2        0.00185  -0.00003   0.00000  -0.00047  -0.00048   0.00137
    D3        0.00206  -0.00004   0.00000  -0.00143  -0.00142   0.00065
    D4       -3.13758   0.00001   0.00000   0.00071   0.00068  -3.13689
    D5       -3.13334  -0.00017   0.00000  -0.00606  -0.00608  -3.13942
    D6        0.01023  -0.00012   0.00000  -0.00490  -0.00489   0.00534
    D7        0.03168  -0.00018   0.00000  -0.01358  -0.01356   0.01812
    D8       -3.11215  -0.00003   0.00000  -0.00279  -0.00277  -3.11491
    D9       -3.11179  -0.00024   0.00000  -0.01567  -0.01569  -3.12748
   D10        0.02758  -0.00008   0.00000  -0.00488  -0.00490   0.02268
   D11        1.23539  -0.00109   0.00000  -0.02614  -0.02564   1.20975
   D12       -3.10282   0.00005   0.00000  -0.00035  -0.00036  -3.10318
   D13       -1.14198   0.00104   0.00000   0.02649   0.02600  -1.11598
         Item               Value     Threshold  Converged?
 Maximum Force            0.030289     0.000450     NO 
 RMS     Force            0.006726     0.000300     NO 
 Maximum Displacement     0.123717     0.001800     NO 
 RMS     Displacement     0.056292     0.001200     NO 
 Predicted change in Energy=-2.376072D-03
 GradGradGradGradGradGradGradGradGradGradGradGradGradGradGradGradGradGrad

                          Input orientation:                          
 ---------------------------------------------------------------------
 Center     Atomic      Atomic             Coordinates (Angstroms)
 Number     Number       Type             X           Y           Z
 ---------------------------------------------------------------------
      1          6           0       -0.258429    1.003302    0.119737
      2          6           0       -0.988306    0.558912   -0.942246
      3          1           0        0.043440    0.312358    0.919939
      4          8           0        0.142039    2.280651    0.283427
      5          6           0       -1.458458    1.379755   -2.076703
      6          1           0        0.656071    2.330231    1.133977
      7          8           0       -1.250832    2.581051   -2.248000
      8          1           0       -1.260017   -0.499712   -0.966318
      9          1           0       -2.064782    0.806694   -2.820837
     10          7           0        1.588585    2.540906    2.600822
     11          1           0        2.515281    2.112196    2.654902
     12          1           0        1.762155    3.549406    2.568687
     13          1           0        1.159552    2.372762    3.513484
 ---------------------------------------------------------------------
                    Distance matrix (angstroms):
                    1          2          3          4          5
     1  C    0.000000
     2  C    1.363088   0.000000
     3  H    1.099478   2.143134   0.000000
     4  O    1.348625   2.396735   2.071001   0.000000
     5  C    2.531034   1.477098   3.517797   2.990555   0.000000
     6  H    1.904137   3.186260   2.119656   0.995049   3.960190
     7  O    3.013359   2.421355   4.105843   2.904902   1.231082
     8  H    2.107544   1.093203   2.432370   3.355301   2.191970
     9  H    3.456666   2.179289   4.322311   4.084001   1.117928
    10  N    3.454197   4.808534   3.190497   2.744185   5.701929
    11  H    3.917931   5.256167   3.515610   3.359248   6.222151
    12  H    4.069738   5.369799   4.018810   3.075212   6.054699
    13  H    3.924744   5.268480   3.495347   3.387785   6.252218
                    6          7          8          9         10
     6  H    0.000000
     7  O    3.890625   0.000000
     8  H    4.011386   3.336749   0.000000
     9  H    5.036345   2.034453   2.406987   0.000000
    10  N    1.750886   5.619162   5.484923   6.763799   0.000000
    11  H    2.411931   6.200152   5.847066   7.257068   1.022488
    12  H    2.183621   5.763357   6.166453   7.156458   1.023832
    13  H    2.432561   6.248843   5.845858   7.278223   1.022396
                   11         12         13
    11  H    0.000000
    12  H    1.624870   0.000000
    13  H    1.625748   1.624889   0.000000
 Stoichiometry    C3H7NO2
 Framework group  C1[X(C3H7NO2)]
 Deg. of freedom    33
 Full point group                 C1      NOp   1
 Largest Abelian subgroup         C1      NOp   1
 Largest concise Abelian subgroup C1      NOp   1
                         Standard orientation:                         
 ---------------------------------------------------------------------
 Center     Atomic      Atomic             Coordinates (Angstroms)
 Number     Number       Type             X           Y           Z
 ---------------------------------------------------------------------
      1          6           0        0.089861    0.820180   -0.000569
      2          6           0       -1.255105    1.041660    0.004227
      3          1           0        0.796005    1.662918    0.001639
      4          8           0        0.656958   -0.403365   -0.011875
      5          6           0       -2.305779    0.003452   -0.001204
      6          1           0        1.644274   -0.279560   -0.010981
      7          8           0       -2.132106   -1.215290    0.007075
      8          1           0       -1.600529    2.078844    0.008964
      9          1           0       -3.343373    0.419008   -0.022995
     10          7           0        3.392844   -0.190645    0.003122
     11          1           0        3.856462    0.153455    0.847003
     12          1           0        3.630928   -1.185200   -0.045936
     13          1           0        3.893653    0.242534   -0.775877
 ---------------------------------------------------------------------
 Rotational constants (GHZ):           8.7382193           1.3128007           1.1482599
 Standard basis: Aug-CC-pVDZ (5D, 7F)
 There are   213 symmetry adapted cartesian basis functions of A   symmetry.
 There are   201 symmetry adapted basis functions of A   symmetry.
   201 basis functions,   335 primitive gaussians,   213 cartesian basis functions
    24 alpha electrons       24 beta electrons
       nuclear repulsion energy       219.1490739713 Hartrees.
 NAtoms=   13 NActive=   13 NUniq=   13 SFac= 1.00D+00 NAtFMM=   60 NAOKFM=F Big=F
 Integral buffers will be    131072 words long.
 Raffenetti 1 integral format.
 Two-electron integral symmetry is turned on.
 One-electron integrals computed using PRISM.
 NBasis=   201 RedAO= T EigKep=  2.73D-05  NBF=   201
 NBsUse=   201 1.00D-06 EigRej= -1.00D+00 NBFU=   201
 Initial guess from the checkpoint file:  "/scr/Gau-84705.chk"
 B after Tr=     0.000000   -0.000000   -0.000000
         Rot=    0.999990    0.000475    0.000003    0.004495 Ang=   0.52 deg.
 ExpMin= 2.97D-02 ExpMax= 1.17D+04 ExpMxC= 4.01D+02 IAcc=3 IRadAn=         5 AccDes= 0.00D+00
 Harris functional with IExCor=  205 and IRadAn=       5 diagonalized for initial guess.
 HarFok:  IExCor=  205 AccDes= 0.00D+00 IRadAn=         5 IDoV= 1 UseB2=F ITyADJ=14
 ICtDFT=  3500011 ScaDFX=  1.000000  1.000000  1.000000  1.000000
 FoFCou: FMM=F IPFlag=           0 FMFlag=      100000 FMFlg1=           0
         NFxFlg=           0 DoJE=T BraDBF=F KetDBF=T FulRan=T
         wScrn=  0.000000 ICntrl=       500 IOpCl=  0 I1Cent=   200000004 NGrid=           0
         NMat0=    1 NMatS0=      1 NMatT0=    0 NMatD0=    1 NMtDS0=    0 NMtDT0=    0
 Petite list used in FoFCou.
 Requested convergence on RMS density matrix=1.00D-08 within 128 cycles.
 Requested convergence on MAX density matrix=1.00D-06.
 Requested convergence on             energy=1.00D-06.
 No special actions if energy rises.
 SCF Done:  E(RHF) =  -321.870721097     A.U. after   14 cycles
            NFock= 14  Conv=0.34D-08     -V/T= 2.0023
 ExpMin= 2.97D-02 ExpMax= 1.17D+04 ExpMxC= 4.01D+02 IAcc=3 IRadAn=         5 AccDes= 0.00D+00
 HarFok:  IExCor=  205 AccDes= 0.00D+00 IRadAn=         5 IDoV=-2 UseB2=F ITyADJ=14
 ICtDFT= 12500011 ScaDFX=  1.000000  1.000000  1.000000  1.000000
 Range of M.O.s used for correlation:     7   201
 NBasis=   201 NAE=    24 NBE=    24 NFC=     6 NFV=     0
 NROrb=    195 NOA=    18 NOB=    18 NVA=   177 NVB=   177

 **** Warning!!: The largest alpha MO coefficient is  0.58256405D+02

 Fully direct method using O(ONN) memory.
 JobTyp=1 Pass  1:  I=   7 to  24 NPSUse= 40 ParTrn=T ParDer=T DoDerP=T.
 Spin components of T(2) and E(2):
     alpha-alpha T2 =       0.4275790292D-01 E2=     -0.1297988963D+00
     alpha-beta  T2 =       0.2404836318D+00 E2=     -0.7494354497D+00
     beta-beta   T2 =       0.4275790292D-01 E2=     -0.1297988963D+00
 ANorm=    0.1151520489D+01
 E2 =    -0.1009033242D+01 EUMP2 =    -0.32287975433913D+03
          IDoAtm=1111111111111
          Differentiating once with respect to electric field.
                with respect to dipole field.
          Differentiating once with respect to nuclear coordinates.
 Keep R1 ints in memory in canonical form, NReq=215111637.
          There are     1 degrees of freedom in the 1st order CPHF.  IDoFFX=0 NUNeed=     1.
 LinEq1:  Iter=  0 NonCon=     1 RMS=4.63D-03 Max=1.25D-01 NDo=     1
 AX will form     1 AO Fock derivatives at one time.
 LinEq1:  Iter=  1 NonCon=     1 RMS=1.46D-03 Max=2.11D-02 NDo=     1
 LinEq1:  Iter=  2 NonCon=     1 RMS=5.48D-04 Max=1.10D-02 NDo=     1
 LinEq1:  Iter=  3 NonCon=     1 RMS=1.88D-04 Max=3.70D-03 NDo=     1
 LinEq1:  Iter=  4 NonCon=     1 RMS=6.41D-05 Max=1.10D-03 NDo=     1
 LinEq1:  Iter=  5 NonCon=     1 RMS=2.39D-05 Max=3.77D-04 NDo=     1
 LinEq1:  Iter=  6 NonCon=     1 RMS=8.90D-06 Max=2.40D-04 NDo=     1
 LinEq1:  Iter=  7 NonCon=     1 RMS=2.81D-06 Max=3.15D-05 NDo=     1
 LinEq1:  Iter=  8 NonCon=     1 RMS=1.10D-06 Max=3.82D-05 NDo=     1
 LinEq1:  Iter=  9 NonCon=     1 RMS=3.37D-07 Max=3.34D-06 NDo=     1
 LinEq1:  Iter= 10 NonCon=     1 RMS=7.53D-08 Max=1.06D-06 NDo=     1
 LinEq1:  Iter= 11 NonCon=     1 RMS=1.77D-08 Max=1.68D-07 NDo=     1
 LinEq1:  Iter= 12 NonCon=     1 RMS=5.66D-09 Max=6.88D-08 NDo=     1
 LinEq1:  Iter= 13 NonCon=     1 RMS=2.03D-09 Max=1.91D-08 NDo=     1
 LinEq1:  Iter= 14 NonCon=     1 RMS=3.96D-10 Max=3.94D-09 NDo=     1
 LinEq1:  Iter= 15 NonCon=     1 RMS=6.86D-11 Max=1.53D-09 NDo=     1
 LinEq1:  Iter= 16 NonCon=     0 RMS=2.03D-11 Max=6.07D-10 NDo=     1
 Linear equations converged to 1.000D-10 1.000D-09 after    16 iterations.
 End of Minotr F.D. properties file   721 does not exist.
 End of Minotr F.D. properties file   722 does not exist.
 End of Minotr F.D. properties file   788 does not exist.
 Calling FoFJK, ICntrl=  10002127 FMM=F ISym2X=0 I1Cent= 0 IOpClX= 0 NMat=1 NMatS=1 NMatT=0.
 ***** Axes restored to original set *****
 -------------------------------------------------------------------
 Center     Atomic                   Forces (Hartrees/Bohr)
 Number     Number              X              Y              Z
 -------------------------------------------------------------------
      1        6           0.004168586    0.008707815    0.003708627
      2        6          -0.003823177    0.000593611   -0.007226241
      3        1          -0.001052921   -0.001389369   -0.001280863
      4        8          -0.001922047   -0.006115103   -0.001037997
      5        6           0.000272824   -0.005891805    0.004834197
      6        1          -0.000662142   -0.000698456   -0.000824931
      7        8           0.000881987    0.003575307   -0.000528200
      8        1           0.000962693   -0.000060714    0.001720793
      9        1           0.000281323    0.000224392   -0.000456860
     10        7           0.003745310    0.003007115    0.004902170
     11        1          -0.001065859   -0.000509653   -0.001804654
     12        1          -0.000380174   -0.000935818   -0.000313963
     13        1          -0.001406403   -0.000507321   -0.001692078
 -------------------------------------------------------------------
 Cartesian Forces:  Max     0.008707815 RMS     0.003024665

 GradGradGradGradGradGradGradGradGradGradGradGradGradGradGradGradGradGrad
 Berny optimization.
 Using GEDIIS/GDIIS optimizer.
 FormGI is forming the generalized inverse of G from B-inverse, IUseBI=4.
 Internal  Forces:  Max     0.006050708 RMS     0.001670222
 Search for a local minimum.
 Step number   2 out of a maximum of   53
 All quantities printed in internal units (Hartrees-Bohrs-Radians)
 Mixed Optimization -- RFO/linear search
 Update second derivatives using D2CorX and points    1    2
 DE= -2.76D-03 DEPred=-2.38D-03 R= 1.16D+00
 TightC=F SS=  1.41D+00  RLast= 1.48D-01 DXNew= 5.0454D-01 4.4371D-01
 Trust test= 1.16D+00 RLast= 1.48D-01 DXMaxT set to 4.44D-01
 ITU=  1  0
 Use linear search instead of GDIIS.
     Eigenvalues ---    0.00230   0.00230   0.00235   0.00974   0.00982
     Eigenvalues ---    0.01971   0.02172   0.02700   0.02938   0.06753
     Eigenvalues ---    0.07628   0.10339   0.13415   0.16000   0.16000
     Eigenvalues ---    0.16000   0.16000   0.16000   0.16347   0.21999
     Eigenvalues ---    0.22000   0.22392   0.32561   0.33906   0.35571
     Eigenvalues ---    0.37255   0.43206   0.43586   0.43679   0.48959
     Eigenvalues ---    0.49943   0.60504   0.93139
 RFO step:  Lambda=-4.92168218D-04 EMin= 2.29968862D-03
 Quartic linear search produced a step of  0.25182.
 Iteration  1 RMS(Cart)=  0.05241369 RMS(Int)=  0.00120761
 Iteration  2 RMS(Cart)=  0.00229663 RMS(Int)=  0.00021509
 Iteration  3 RMS(Cart)=  0.00000193 RMS(Int)=  0.00021509
 Iteration  4 RMS(Cart)=  0.00000000 RMS(Int)=  0.00021509
 Variable       Old X    -DE/DX   Delta X   Delta X   Delta X     New X
                                 (Linear)    (Quad)   (Total)
    R1        2.57586   0.00256   0.01301  -0.00161   0.01140   2.58727
    R2        2.07771  -0.00035   0.00773  -0.00542   0.00231   2.08002
    R3        2.54853  -0.00605  -0.00714  -0.01059  -0.01773   2.53080
    R4        2.79131  -0.00458  -0.00331  -0.01497  -0.01828   2.77303
    R5        2.06585  -0.00022   0.00456  -0.00324   0.00131   2.06717
    R6        1.88037   0.00037   0.00291  -0.00068   0.00223   1.88260
    R7        2.32641   0.00371   0.00424   0.00259   0.00683   2.33324
    R8        2.11258   0.00004   0.00708  -0.00370   0.00337   2.11595
    R9        3.30869   0.00151   0.01207   0.02069   0.03275   3.34145
   R10        1.93222  -0.00085  -0.00084  -0.00197  -0.00281   1.92941
   R11        1.93476  -0.00098  -0.00122  -0.00215  -0.00337   1.93139
   R12        1.93205  -0.00084  -0.00082  -0.00195  -0.00277   1.92928
    A1        2.10501  -0.00268  -0.00867  -0.01534  -0.02401   2.08100
    A2        2.16802   0.00093  -0.00333   0.00708   0.00375   2.17177
    A3        2.01014   0.00175   0.01200   0.00827   0.02027   2.03041
    A4        2.19893  -0.00031   0.00179  -0.00273  -0.00094   2.19799
    A5        2.05550  -0.00187  -0.00857  -0.01034  -0.01892   2.03658
    A6        2.02875   0.00218   0.00678   0.01308   0.01986   2.04861
    A7        1.88004   0.00088  -0.00603   0.01006   0.00403   1.88407
    A8        2.20863  -0.00047   0.00201  -0.00364  -0.00240   2.20623
    A9        1.98122   0.00067   0.00065   0.00455   0.00444   1.98566
   A10        2.09331  -0.00019  -0.00266  -0.00036  -0.00379   2.08952
   A11        2.06753  -0.00186  -0.00447  -0.01430  -0.01889   2.04864
   A12        1.75434   0.00041  -0.00033   0.00752   0.00706   1.76140
   A13        2.09968  -0.00208  -0.00489  -0.01570  -0.02079   2.07889
   A14        1.83487   0.00103   0.00448   0.00939   0.01388   1.84875
   A15        1.83812   0.00210   0.00337   0.01020   0.01340   1.85153
   A16        1.83502   0.00107   0.00445   0.00959   0.01381   1.84882
   A17        3.21547   0.00049  -0.01528   0.08774   0.07246   3.28793
   A18        3.13343   0.00013  -0.00171   0.04827   0.04658   3.18001
    D1        3.13891  -0.00001  -0.00065  -0.00026  -0.00092   3.13799
    D2        0.00137  -0.00003  -0.00012  -0.00102  -0.00116   0.00021
    D3        0.00065  -0.00009  -0.00036  -0.00357  -0.00392  -0.00327
    D4       -3.13689  -0.00010   0.00017  -0.00434  -0.00416  -3.14105
    D5       -3.13942  -0.00004  -0.00153  -0.00172  -0.00323   3.14054
    D6        0.00534  -0.00010  -0.00123  -0.00482  -0.00607  -0.00073
    D7        0.01812   0.00021  -0.00341   0.02684   0.02340   0.04152
    D8       -3.11491  -0.00041  -0.00070  -0.04937  -0.05005   3.11822
    D9       -3.12748   0.00022  -0.00395   0.02754   0.02357  -3.10391
   D10        0.02268  -0.00040  -0.00123  -0.04867  -0.04988  -0.02721
   D11        1.20975  -0.00068  -0.00646   0.00209  -0.00426   1.20549
   D12       -3.10318   0.00002  -0.00009   0.00213   0.00185  -3.10133
   D13       -1.11598   0.00064   0.00655  -0.01130  -0.00466  -1.12064
         Item               Value     Threshold  Converged?
 Maximum Force            0.006051     0.000450     NO 
 RMS     Force            0.001670     0.000300     NO 
 Maximum Displacement     0.134967     0.001800     NO 
 RMS     Displacement     0.052596     0.001200     NO 
 Predicted change in Energy=-3.642893D-04
 GradGradGradGradGradGradGradGradGradGradGradGradGradGradGradGradGradGrad

                          Input orientation:                          
 ---------------------------------------------------------------------
 Center     Atomic      Atomic             Coordinates (Angstroms)
 Number     Number       Type             X           Y           Z
 ---------------------------------------------------------------------
      1          6           0       -0.254134    0.971899    0.106772
      2          6           0       -1.008177    0.554614   -0.957083
      3          1           0        0.039672    0.242083    0.876565
      4          8           0        0.165202    2.230465    0.290458
      5          6           0       -1.483278    1.398429   -2.059621
      6          1           0        0.689910    2.258810    1.136835
      7          8           0       -1.243763    2.599104   -2.219258
      8          1           0       -1.281213   -0.504403   -0.980447
      9          1           0       -2.065841    0.840535   -2.836239
     10          7           0        1.600233    2.573707    2.619654
     11          1           0        2.526469    2.151815    2.700515
     12          1           0        1.756638    3.580625    2.540700
     13          1           0        1.144580    2.430827    3.522021
 ---------------------------------------------------------------------
                    Distance matrix (angstroms):
                    1          2          3          4          5
     1  C    0.000000
     2  C    1.369122   0.000000
     3  H    1.100698   2.134931   0.000000
     4  O    1.339243   2.396175   2.076763   0.000000
     5  C    2.527050   1.467424   3.503956   2.988753   0.000000
     6  H    1.899576   3.189401   2.134886   0.996232   3.959841
     7  O    3.006256   2.414234   4.097179   2.901680   1.234696
     8  H    2.101524   1.093897   2.398014   3.344670   2.196865
     9  H    3.458446   2.175231   4.310017   4.084812   1.119714
    10  N    3.509849   4.865551   3.303056   2.757224   5.725813
    11  H    3.981389   5.331304   3.627399   3.374928   6.269335
    12  H    4.095444   5.388454   4.106480   3.069070   6.035064
    13  H    3.968475   5.311959   3.606917   3.382651   6.255095
                    6          7          8          9         10
     6  H    0.000000
     7  O    3.888220   0.000000
     8  H    4.000444   3.341828   0.000000
     9  H    5.038947   2.036920   2.422492   0.000000
    10  N    1.768219   5.612844   5.544205   6.797849   0.000000
    11  H    2.414433   6.214409   5.924813   7.311936   1.021002
    12  H    2.203620   5.711653   6.189868   7.143592   1.022047
    13  H    2.434219   6.220513   5.896800   7.298171   1.020931
                   11         12         13
    11  H    0.000000
    12  H    1.630852   0.000000
    13  H    1.631667   1.630842   0.000000
 Stoichiometry    C3H7NO2
 Framework group  C1[X(C3H7NO2)]
 Deg. of freedom    33
 Full point group                 C1      NOp   1
 Largest Abelian subgroup         C1      NOp   1
 Largest concise Abelian subgroup C1      NOp   1
                         Standard orientation:                         
 ---------------------------------------------------------------------
 Center     Atomic      Atomic             Coordinates (Angstroms)
 Number     Number       Type             X           Y           Z
 ---------------------------------------------------------------------
      1          6           0        0.066069    0.843339    0.014029
      2          6           0       -1.289658    1.033647   -0.002807
      3          1           0        0.731781    1.719802    0.027351
      4          8           0        0.662482   -0.355769    0.015257
      5          6           0       -2.307425   -0.023210   -0.025978
      6          1           0        1.647703   -0.208623    0.028075
      7          8           0       -2.101149   -1.240095    0.007409
      8          1           0       -1.640370    2.069800   -0.002227
      9          1           0       -3.358639    0.362199   -0.012998
     10          7           0        3.415471   -0.205414   -0.011752
     11          1           0        3.903089    0.144477    0.814231
     12          1           0        3.610140   -1.208074   -0.048591
     13          1           0        3.893423    0.202566   -0.816372
 ---------------------------------------------------------------------
 Rotational constants (GHZ):           8.6070599           1.3070914           1.1417414
 Standard basis: Aug-CC-pVDZ (5D, 7F)
 There are   213 symmetry adapted cartesian basis functions of A   symmetry.
 There are   201 symmetry adapted basis functions of A   symmetry.
   201 basis functions,   335 primitive gaussians,   213 cartesian basis functions
    24 alpha electrons       24 beta electrons
       nuclear repulsion energy       218.9956492612 Hartrees.
 NAtoms=   13 NActive=   13 NUniq=   13 SFac= 1.00D+00 NAtFMM=   60 NAOKFM=F Big=F
 Integral buffers will be    131072 words long.
 Raffenetti 1 integral format.
 Two-electron integral symmetry is turned on.
 One-electron integrals computed using PRISM.
 NBasis=   201 RedAO= T EigKep=  2.86D-05  NBF=   201
 NBsUse=   201 1.00D-06 EigRej= -1.00D+00 NBFU=   201
 Initial guess from the checkpoint file:  "/scr/Gau-84705.chk"
 B after Tr=    -0.000000   -0.000000   -0.000000
         Rot=    0.999994    0.000892   -0.000176   -0.003335 Ang=   0.40 deg.
 ExpMin= 2.97D-02 ExpMax= 1.17D+04 ExpMxC= 4.01D+02 IAcc=3 IRadAn=         5 AccDes= 0.00D+00
 Harris functional with IExCor=  205 and IRadAn=       5 diagonalized for initial guess.
 HarFok:  IExCor=  205 AccDes= 0.00D+00 IRadAn=         5 IDoV= 1 UseB2=F ITyADJ=14
 ICtDFT=  3500011 ScaDFX=  1.000000  1.000000  1.000000  1.000000
 FoFCou: FMM=F IPFlag=           0 FMFlag=      100000 FMFlg1=           0
         NFxFlg=           0 DoJE=T BraDBF=F KetDBF=T FulRan=T
         wScrn=  0.000000 ICntrl=       500 IOpCl=  0 I1Cent=   200000004 NGrid=           0
         NMat0=    1 NMatS0=      1 NMatT0=    0 NMatD0=    1 NMtDS0=    0 NMtDT0=    0
 Petite list used in FoFCou.
 Requested convergence on RMS density matrix=1.00D-08 within 128 cycles.
 Requested convergence on MAX density matrix=1.00D-06.
 Requested convergence on             energy=1.00D-06.
 No special actions if energy rises.
 SCF Done:  E(RHF) =  -321.870846823     A.U. after   14 cycles
            NFock= 14  Conv=0.33D-08     -V/T= 2.0023
 ExpMin= 2.97D-02 ExpMax= 1.17D+04 ExpMxC= 4.01D+02 IAcc=3 IRadAn=         5 AccDes= 0.00D+00
 HarFok:  IExCor=  205 AccDes= 0.00D+00 IRadAn=         5 IDoV=-2 UseB2=F ITyADJ=14
 ICtDFT= 12500011 ScaDFX=  1.000000  1.000000  1.000000  1.000000
 Range of M.O.s used for correlation:     7   201
 NBasis=   201 NAE=    24 NBE=    24 NFC=     6 NFV=     0
 NROrb=    195 NOA=    18 NOB=    18 NVA=   177 NVB=   177

 **** Warning!!: The largest alpha MO coefficient is  0.52311284D+02

 Fully direct method using O(ONN) memory.
 JobTyp=1 Pass  1:  I=   7 to  24 NPSUse= 40 ParTrn=T ParDer=T DoDerP=T.
 Spin components of T(2) and E(2):
     alpha-alpha T2 =       0.4278666806D-01 E2=     -0.1298514468D+00
     alpha-beta  T2 =       0.2405076684D+00 E2=     -0.7493571987D+00
     beta-beta   T2 =       0.4278666806D-01 E2=     -0.1298514468D+00
 ANorm=    0.1151555906D+01
 E2 =    -0.1009060092D+01 EUMP2 =    -0.32287990691512D+03
          IDoAtm=1111111111111
          Differentiating once with respect to electric field.
                with respect to dipole field.
          Differentiating once with respect to nuclear coordinates.
 Keep R1 ints in memory in canonical form, NReq=215110536.
          There are     1 degrees of freedom in the 1st order CPHF.  IDoFFX=0 NUNeed=     1.
 LinEq1:  Iter=  0 NonCon=     1 RMS=4.65D-03 Max=1.25D-01 NDo=     1
 AX will form     1 AO Fock derivatives at one time.
 LinEq1:  Iter=  1 NonCon=     1 RMS=1.46D-03 Max=2.06D-02 NDo=     1
 LinEq1:  Iter=  2 NonCon=     1 RMS=5.53D-04 Max=1.13D-02 NDo=     1
 LinEq1:  Iter=  3 NonCon=     1 RMS=1.93D-04 Max=3.71D-03 NDo=     1
 LinEq1:  Iter=  4 NonCon=     1 RMS=6.56D-05 Max=1.14D-03 NDo=     1
 LinEq1:  Iter=  5 NonCon=     1 RMS=2.49D-05 Max=4.60D-04 NDo=     1
 LinEq1:  Iter=  6 NonCon=     1 RMS=9.47D-06 Max=2.68D-04 NDo=     1
 LinEq1:  Iter=  7 NonCon=     1 RMS=2.95D-06 Max=2.95D-05 NDo=     1
 LinEq1:  Iter=  8 NonCon=     1 RMS=1.15D-06 Max=3.79D-05 NDo=     1
 LinEq1:  Iter=  9 NonCon=     1 RMS=3.50D-07 Max=3.46D-06 NDo=     1
 LinEq1:  Iter= 10 NonCon=     1 RMS=7.72D-08 Max=9.94D-07 NDo=     1
 LinEq1:  Iter= 11 NonCon=     1 RMS=1.81D-08 Max=1.72D-07 NDo=     1
 LinEq1:  Iter= 12 NonCon=     1 RMS=5.75D-09 Max=6.64D-08 NDo=     1
 LinEq1:  Iter= 13 NonCon=     1 RMS=2.09D-09 Max=1.94D-08 NDo=     1
 LinEq1:  Iter= 14 NonCon=     1 RMS=4.33D-10 Max=8.11D-09 NDo=     1
 LinEq1:  Iter= 15 NonCon=     1 RMS=9.07D-11 Max=2.77D-09 NDo=     1
 LinEq1:  Iter= 16 NonCon=     0 RMS=2.91D-11 Max=7.14D-10 NDo=     1
 Linear equations converged to 1.000D-10 1.000D-09 after    16 iterations.
 End of Minotr F.D. properties file   721 does not exist.
 End of Minotr F.D. properties file   722 does not exist.
 End of Minotr F.D. properties file   788 does not exist.
 Calling FoFJK, ICntrl=  10002127 FMM=F ISym2X=0 I1Cent= 0 IOpClX= 0 NMat=1 NMatS=1 NMatT=0.
 ***** Axes restored to original set *****
 -------------------------------------------------------------------
 Center     Atomic                   Forces (Hartrees/Bohr)
 Number     Number              X              Y              Z
 -------------------------------------------------------------------
      1        6          -0.001455468   -0.000838948   -0.002139622
      2        6          -0.001102246    0.000007118    0.002506041
      3        1          -0.000001168    0.000662910   -0.000752402
      4        8           0.001367198   -0.001787790    0.002213150
      5        6           0.005301182   -0.002956274   -0.004548104
      6        1          -0.001287168    0.001849795   -0.000846293
      7        8          -0.002018365    0.000860090    0.001462768
      8        1           0.000090665    0.000740103    0.000288884
      9        1          -0.001531361    0.001371119    0.001747753
     10        7           0.001734018    0.000784644    0.001452957
     11        1          -0.000301695   -0.000129874   -0.000710864
     12        1           0.000006722   -0.000315451    0.000153869
     13        1          -0.000802314   -0.000247441   -0.000828136
 -------------------------------------------------------------------
 Cartesian Forces:  Max     0.005301182 RMS     0.001694029

 GradGradGradGradGradGradGradGradGradGradGradGradGradGradGradGradGradGrad
 Berny optimization.
 Using GEDIIS/GDIIS optimizer.
 FormGI is forming the generalized inverse of G from B-inverse, IUseBI=4.
 Internal  Forces:  Max     0.002491610 RMS     0.001008624
 Search for a local minimum.
 Step number   3 out of a maximum of   53
 All quantities printed in internal units (Hartrees-Bohrs-Radians)
 Mixed Optimization -- RFO/linear search
 Update second derivatives using D2CorX and points    1    2    3
 DE= -1.53D-04 DEPred=-3.64D-04 R= 4.19D-01
 Trust test= 4.19D-01 RLast= 1.37D-01 DXMaxT set to 4.44D-01
 ITU=  0  1  0
 Use linear search instead of GDIIS.
     Eigenvalues ---    0.00230   0.00231   0.00270   0.00934   0.01586
     Eigenvalues ---    0.01952   0.02185   0.02694   0.02950   0.05997
     Eigenvalues ---    0.07664   0.10386   0.10830   0.16000   0.16000
     Eigenvalues ---    0.16000   0.16000   0.16025   0.17094   0.22001
     Eigenvalues ---    0.22006   0.22432   0.32584   0.33829   0.35574
     Eigenvalues ---    0.37482   0.42934   0.43526   0.43678   0.48781
     Eigenvalues ---    0.49958   0.61276   0.92219
 RFO step:  Lambda=-1.31998851D-03 EMin= 2.29998179D-03
 Quartic linear search produced a step of -0.36693.
 Iteration  1 RMS(Cart)=  0.12380927 RMS(Int)=  0.00742694
 Iteration  2 RMS(Cart)=  0.01422316 RMS(Int)=  0.00168756
 Iteration  3 RMS(Cart)=  0.00006354 RMS(Int)=  0.00168719
 Iteration  4 RMS(Cart)=  0.00000015 RMS(Int)=  0.00168719
 Variable       Old X    -DE/DX   Delta X   Delta X   Delta X     New X
                                 (Linear)    (Quad)   (Total)
    R1        2.58727  -0.00155  -0.00418   0.03100   0.02681   2.61408
    R2        2.08002  -0.00097  -0.00085   0.00909   0.00825   2.08827
    R3        2.53080   0.00057   0.00651  -0.03909  -0.03258   2.49822
    R4        2.77303   0.00002   0.00671  -0.03750  -0.03079   2.74224
    R5        2.06717  -0.00075  -0.00048   0.00494   0.00446   2.07162
    R6        1.88260  -0.00094  -0.00082   0.00544   0.00462   1.88722
    R7        2.33324   0.00026  -0.00251   0.01683   0.01433   2.34756
    R8        2.11595  -0.00110  -0.00124   0.01017   0.00894   2.12489
    R9        3.34145   0.00040  -0.01202   0.07501   0.06299   3.40444
   R10        1.92941  -0.00028   0.00103  -0.00649  -0.00546   1.92395
   R11        1.93139  -0.00032   0.00124  -0.00796  -0.00673   1.92466
   R12        1.92928  -0.00034   0.00102  -0.00649  -0.00548   1.92380
    A1        2.08100  -0.00037   0.00881  -0.05374  -0.04493   2.03607
    A2        2.17177   0.00095  -0.00137   0.00724   0.00586   2.17763
    A3        2.03041  -0.00058  -0.00744   0.04651   0.03907   2.06948
    A4        2.19799  -0.00013   0.00035  -0.00067  -0.00033   2.19766
    A5        2.03658  -0.00013   0.00694  -0.04361  -0.03667   1.99992
    A6        2.04861   0.00026  -0.00729   0.04428   0.03700   2.08560
    A7        1.88407   0.00228  -0.00148   0.01229   0.01081   1.89489
    A8        2.20623  -0.00043   0.00088  -0.00126  -0.00578   2.20045
    A9        1.98566   0.00083  -0.00163   0.01666   0.00962   1.99528
   A10        2.08952  -0.00013   0.00139  -0.00578  -0.00984   2.07967
   A11        2.04864  -0.00052   0.00693  -0.04219  -0.03629   2.01235
   A12        1.76140   0.00049  -0.00259   0.01524   0.01390   1.77530
   A13        2.07889  -0.00128   0.00763  -0.04954  -0.04336   2.03553
   A14        1.84875   0.00018  -0.00509   0.03108   0.02792   1.87667
   A15        1.85153   0.00111  -0.00492   0.03217   0.02465   1.87618
   A16        1.84882   0.00021  -0.00507   0.03066   0.02611   1.87493
   A17        3.28793  -0.00113  -0.02659  -0.13611  -0.16353   3.12440
   A18        3.18001  -0.00096  -0.01709  -0.12402  -0.14103   3.03899
    D1        3.13799   0.00024   0.00034   0.00349   0.00377  -3.14142
    D2        0.00021   0.00018   0.00042   0.00164   0.00205   0.00226
    D3       -0.00327   0.00022   0.00144  -0.00219  -0.00073  -0.00400
    D4       -3.14105   0.00017   0.00153  -0.00403  -0.00245   3.13968
    D5        3.14054   0.00004   0.00118  -0.00570  -0.00444   3.13609
    D6       -0.00073   0.00002   0.00223  -0.01121  -0.00901  -0.00974
    D7        0.04152  -0.00249  -0.00859  -0.11524  -0.12353  -0.08201
    D8        3.11822   0.00232   0.01836   0.05918   0.07721  -3.08775
    D9       -3.10391  -0.00244  -0.00865  -0.11355  -0.12187   3.05740
   D10       -0.02721   0.00238   0.01830   0.06086   0.07887   0.05166
   D11        1.20549  -0.00040   0.00156  -0.04856  -0.04359   1.16190
   D12       -3.10133   0.00005  -0.00068  -0.00476  -0.00663  -3.10796
   D13       -1.12064   0.00047   0.00171   0.06525   0.06483  -1.05582
         Item               Value     Threshold  Converged?
 Maximum Force            0.002492     0.000450     NO 
 RMS     Force            0.001009     0.000300     NO 
 Maximum Displacement     0.325851     0.001800     NO 
 RMS     Displacement     0.128635     0.001200     NO 
 Predicted change in Energy=-7.974185D-04
 GradGradGradGradGradGradGradGradGradGradGradGradGradGradGradGradGradGrad

                          Input orientation:                          
 ---------------------------------------------------------------------
 Center     Atomic      Atomic             Coordinates (Angstroms)
 Number     Number       Type             X           Y           Z
 ---------------------------------------------------------------------
      1          6           0       -0.271969    1.076701    0.130799
      2          6           0       -0.976623    0.575853   -0.949092
      3          1           0       -0.011652    0.358397    0.929196
      4          8           0        0.107431    2.335971    0.264910
      5          6           0       -1.419302    1.336003   -2.103208
      6          1           0        0.592656    2.431243    1.132570
      7          8           0       -1.304934    2.563207   -2.258577
      8          1           0       -1.203080   -0.495068   -0.888917
      9          1           0       -2.025502    0.744323   -2.842674
     10          7           0        1.612235    2.538350    2.613977
     11          1           0        2.496652    2.035868    2.570721
     12          1           0        1.826198    3.533585    2.646295
     13          1           0        1.164188    2.294078    3.494872
 ---------------------------------------------------------------------
                    Distance matrix (angstroms):
                    1          2          3          4          5
     1  C    0.000000
     2  C    1.383312   0.000000
     3  H    1.105063   2.122834   0.000000
     4  O    1.322002   2.397288   2.089559   0.000000
     5  C    2.524757   1.451129   3.483198   2.989789   0.000000
     6  H    1.893648   3.199753   2.168695   0.998675   3.964566
     7  O    2.997638   2.402522   4.086033   2.900758   1.242276
     8  H    2.092187   1.096255   2.335260   3.326189   2.207730
     9  H    3.467981   2.171216   4.293196   4.091433   1.124443
    10  N    3.442791   4.821725   3.198076   2.797053   5.734779
    11  H    3.812936   5.156003   3.435128   3.333947   6.137599
    12  H    4.094667   5.434224   4.050672   3.171661   6.157956
    13  H    3.855066   5.223426   3.422302   3.398697   6.239457
                    6          7          8          9         10
     6  H    0.000000
     7  O    3.888205   0.000000
     8  H    3.984265   3.352519   0.000000
     9  H    5.050050   2.041746   2.455531   0.000000
    10  N    1.801549   5.679108   5.421981   6.799021   0.000000
    11  H    2.418637   6.168652   5.662398   7.170970   1.018113
    12  H    2.242353   5.899440   6.156646   7.262531   1.018488
    13  H    2.434324   6.266671   5.709719   7.262255   1.018032
                   11         12         13
    11  H    0.000000
    12  H    1.642674   0.000000
    13  H    1.642007   1.641559   0.000000
 Stoichiometry    C3H7NO2
 Framework group  C1[X(C3H7NO2)]
 Deg. of freedom    33
 Full point group                 C1      NOp   1
 Largest Abelian subgroup         C1      NOp   1
 Largest concise Abelian subgroup C1      NOp   1
                         Standard orientation:                         
 ---------------------------------------------------------------------
 Center     Atomic      Atomic             Coordinates (Angstroms)
 Number     Number       Type             X           Y           Z
 ---------------------------------------------------------------------
      1          6           0        0.109756    0.763574   -0.036386
      2          6           0       -1.246469    1.032575    0.006551
      3          1           0        0.787348    1.635804   -0.071734
      4          8           0        0.638479   -0.448091   -0.033315
      5          6           0       -2.308914    0.045433    0.056923
      6          1           0        1.632510   -0.361426   -0.075075
      7          8           0       -2.166602   -1.186678   -0.013066
      8          1           0       -1.500448    2.098972   -0.001688
      9          1           0       -3.345903    0.479455    0.031381
     10          7           0        3.421541   -0.175043    0.025965
     11          1           0        3.768602    0.228680    0.893784
     12          1           0        3.732683   -1.144268   -0.007382
     13          1           0        3.873165    0.316742   -0.742523
 ---------------------------------------------------------------------
 Rotational constants (GHZ):           8.9936938           1.2981273           1.1418638
 Standard basis: Aug-CC-pVDZ (5D, 7F)
 There are   213 symmetry adapted cartesian basis functions of A   symmetry.
 There are   201 symmetry adapted basis functions of A   symmetry.
   201 basis functions,   335 primitive gaussians,   213 cartesian basis functions
    24 alpha electrons       24 beta electrons
       nuclear repulsion energy       219.1929102255 Hartrees.
 NAtoms=   13 NActive=   13 NUniq=   13 SFac= 1.00D+00 NAtFMM=   60 NAOKFM=F Big=F
 Integral buffers will be    131072 words long.
 Raffenetti 1 integral format.
 Two-electron integral symmetry is turned on.
 One-electron integrals computed using PRISM.
 NBasis=   201 RedAO= T EigKep=  2.82D-05  NBF=   201
 NBsUse=   201 1.00D-06 EigRej= -1.00D+00 NBFU=   201
 Initial guess from the checkpoint file:  "/scr/Gau-84705.chk"
 B after Tr=     0.000000    0.000000    0.000000
         Rot=    0.999985    0.000186    0.000455    0.005481 Ang=   0.63 deg.
 ExpMin= 2.97D-02 ExpMax= 1.17D+04 ExpMxC= 4.01D+02 IAcc=3 IRadAn=         5 AccDes= 0.00D+00
 Harris functional with IExCor=  205 and IRadAn=       5 diagonalized for initial guess.
 HarFok:  IExCor=  205 AccDes= 0.00D+00 IRadAn=         5 IDoV= 1 UseB2=F ITyADJ=14
 ICtDFT=  3500011 ScaDFX=  1.000000  1.000000  1.000000  1.000000
 FoFCou: FMM=F IPFlag=           0 FMFlag=      100000 FMFlg1=           0
         NFxFlg=           0 DoJE=T BraDBF=F KetDBF=T FulRan=T
         wScrn=  0.000000 ICntrl=       500 IOpCl=  0 I1Cent=   200000004 NGrid=           0
         NMat0=    1 NMatS0=      1 NMatT0=    0 NMatD0=    1 NMtDS0=    0 NMtDT0=    0
 Petite list used in FoFCou.
 Requested convergence on RMS density matrix=1.00D-08 within 128 cycles.
 Requested convergence on MAX density matrix=1.00D-06.
 Requested convergence on             energy=1.00D-06.
 No special actions if energy rises.
 SCF Done:  E(RHF) =  -321.868706021     A.U. after   14 cycles
            NFock= 14  Conv=0.50D-08     -V/T= 2.0023
 ExpMin= 2.97D-02 ExpMax= 1.17D+04 ExpMxC= 4.01D+02 IAcc=3 IRadAn=         5 AccDes= 0.00D+00
 HarFok:  IExCor=  205 AccDes= 0.00D+00 IRadAn=         5 IDoV=-2 UseB2=F ITyADJ=14
 ICtDFT= 12500011 ScaDFX=  1.000000  1.000000  1.000000  1.000000
 Range of M.O.s used for correlation:     7   201
 NBasis=   201 NAE=    24 NBE=    24 NFC=     6 NFV=     0
 NROrb=    195 NOA=    18 NOB=    18 NVA=   177 NVB=   177

 **** Warning!!: The largest alpha MO coefficient is  0.48019926D+02

 Fully direct method using O(ONN) memory.
 JobTyp=1 Pass  1:  I=   7 to  24 NPSUse= 40 ParTrn=T ParDer=T DoDerP=T.
 Spin components of T(2) and E(2):
     alpha-alpha T2 =       0.4292309459D-01 E2=     -0.1300499180D+00
     alpha-beta  T2 =       0.2409077717D+00 E2=     -0.7495406475D+00
     beta-beta   T2 =       0.4292309459D-01 E2=     -0.1300499180D+00
 ANorm=    0.1151848063D+01
 E2 =    -0.1009640483D+01 EUMP2 =    -0.32287834650457D+03
          IDoAtm=1111111111111
          Differentiating once with respect to electric field.
                with respect to dipole field.
          Differentiating once with respect to nuclear coordinates.
 Keep R1 ints in memory in canonical form, NReq=215112122.
          There are     1 degrees of freedom in the 1st order CPHF.  IDoFFX=0 NUNeed=     1.
 LinEq1:  Iter=  0 NonCon=     1 RMS=4.70D-03 Max=1.25D-01 NDo=     1
 AX will form     1 AO Fock derivatives at one time.
 LinEq1:  Iter=  1 NonCon=     1 RMS=1.48D-03 Max=2.04D-02 NDo=     1
 LinEq1:  Iter=  2 NonCon=     1 RMS=5.67D-04 Max=1.18D-02 NDo=     1
 LinEq1:  Iter=  3 NonCon=     1 RMS=2.03D-04 Max=3.72D-03 NDo=     1
 LinEq1:  Iter=  4 NonCon=     1 RMS=7.04D-05 Max=1.19D-03 NDo=     1
 LinEq1:  Iter=  5 NonCon=     1 RMS=2.77D-05 Max=6.95D-04 NDo=     1
 LinEq1:  Iter=  6 NonCon=     1 RMS=1.06D-05 Max=2.90D-04 NDo=     1
 LinEq1:  Iter=  7 NonCon=     1 RMS=3.21D-06 Max=3.00D-05 NDo=     1
 LinEq1:  Iter=  8 NonCon=     1 RMS=1.21D-06 Max=3.56D-05 NDo=     1
 LinEq1:  Iter=  9 NonCon=     1 RMS=3.72D-07 Max=3.77D-06 NDo=     1
 LinEq1:  Iter= 10 NonCon=     1 RMS=8.15D-08 Max=1.15D-06 NDo=     1
 LinEq1:  Iter= 11 NonCon=     1 RMS=2.02D-08 Max=2.08D-07 NDo=     1
 LinEq1:  Iter= 12 NonCon=     1 RMS=7.06D-09 Max=1.10D-07 NDo=     1
 LinEq1:  Iter= 13 NonCon=     1 RMS=2.71D-09 Max=6.37D-08 NDo=     1
 LinEq1:  Iter= 14 NonCon=     1 RMS=7.10D-10 Max=2.09D-08 NDo=     1
 LinEq1:  Iter= 15 NonCon=     1 RMS=1.57D-10 Max=3.06D-09 NDo=     1
 LinEq1:  Iter= 16 NonCon=     0 RMS=4.36D-11 Max=5.43D-10 NDo=     1
 Linear equations converged to 1.000D-10 1.000D-09 after    16 iterations.
 End of Minotr F.D. properties file   721 does not exist.
 End of Minotr F.D. properties file   722 does not exist.
 End of Minotr F.D. properties file   788 does not exist.
 Calling FoFJK, ICntrl=  10002127 FMM=F ISym2X=0 I1Cent= 0 IOpClX= 0 NMat=1 NMatS=1 NMatT=0.
 ***** Axes restored to original set *****
 -------------------------------------------------------------------
 Center     Atomic                   Forces (Hartrees/Bohr)
 Number     Number              X              Y              Z
 -------------------------------------------------------------------
      1        6          -0.011573007   -0.020331644   -0.012763849
      2        6           0.013558039   -0.002188704    0.017057844
      3        1           0.000938464    0.005821959    0.000292997
      4        8           0.005463988    0.011745695    0.007516833
      5        6          -0.017715188    0.010639317   -0.003626285
      6        1           0.000507327   -0.002527724   -0.003283044
      7        8           0.004253551   -0.007853091   -0.001407002
      8        1          -0.000458313    0.002382365   -0.003215487
      9        1           0.006334276    0.001106316    0.000059988
     10        7          -0.004178474   -0.000278869   -0.003980008
     11        1           0.000989258    0.000258321    0.000239056
     12        1           0.001591771    0.000792425    0.001821455
     13        1           0.000288308    0.000433636    0.001287501
 -------------------------------------------------------------------
 Cartesian Forces:  Max     0.020331644 RMS     0.007318389

 GradGradGradGradGradGradGradGradGradGradGradGradGradGradGradGradGradGrad
 Berny optimization.
 Using GEDIIS/GDIIS optimizer.
 FormGI is forming the generalized inverse of G from B-inverse, IUseBI=4.
 Internal  Forces:  Max     0.011632334 RMS     0.003840455
 Search for a local minimum.
 Step number   4 out of a maximum of   53
 All quantities printed in internal units (Hartrees-Bohrs-Radians)
 Mixed Optimization -- RFO/linear search
 Update second derivatives using D2CorX and points    1    2    4    3
 DE=  1.56D-03 DEPred=-7.97D-04 R=-1.96D+00
 Trust test=-1.96D+00 RLast= 3.38D-01 DXMaxT set to 2.22D-01
 ITU= -1  0  1  0
 Use linear search instead of GDIIS.
     Eigenvalues ---    0.00230   0.00231   0.00293   0.00967   0.01915
     Eigenvalues ---    0.02171   0.02677   0.02921   0.05760   0.05918
     Eigenvalues ---    0.08191   0.10369   0.11604   0.15996   0.16000
     Eigenvalues ---    0.16000   0.16000   0.16436   0.16816   0.21991
     Eigenvalues ---    0.22005   0.22081   0.33229   0.33828   0.35571
     Eigenvalues ---    0.36033   0.43106   0.43546   0.43679   0.49679
     Eigenvalues ---    0.51028   0.58038   0.92782
 RFO step:  Lambda=-2.03536072D-04 EMin= 2.29998478D-03
 Quartic linear search produced a step of -0.75885.
 Iteration  1 RMS(Cart)=  0.06570370 RMS(Int)=  0.00257030
 Iteration  2 RMS(Cart)=  0.00386835 RMS(Int)=  0.00064445
 Iteration  3 RMS(Cart)=  0.00000309 RMS(Int)=  0.00064445
 Iteration  4 RMS(Cart)=  0.00000000 RMS(Int)=  0.00064445
 Variable       Old X    -DE/DX   Delta X   Delta X   Delta X     New X
                                 (Linear)    (Quad)   (Total)
    R1        2.61408  -0.01145  -0.02035  -0.00618  -0.02653   2.58755
    R2        2.08827  -0.00337  -0.00626  -0.00368  -0.00994   2.07833
    R3        2.49822   0.01163   0.02472   0.00604   0.03076   2.52898
    R4        2.74224   0.00817   0.02337   0.00591   0.02928   2.77152
    R5        2.07162  -0.00241  -0.00338  -0.00271  -0.00609   2.06553
    R6        1.88722  -0.00390  -0.00350  -0.00286  -0.00637   1.88086
    R7        2.34756  -0.00719  -0.01087  -0.00174  -0.01261   2.33495
    R8        2.12489  -0.00404  -0.00678  -0.00462  -0.01140   2.11349
    R9        3.40444  -0.00119  -0.04780  -0.00130  -0.04910   3.35533
   R10        1.92395   0.00072   0.00414   0.00009   0.00423   1.92819
   R11        1.92466   0.00117   0.00510   0.00029   0.00539   1.93006
   R12        1.92380   0.00088   0.00416   0.00010   0.00426   1.92806
    A1        2.03607   0.00443   0.03410   0.00625   0.04035   2.07642
    A2        2.17763   0.00121  -0.00445   0.00350  -0.00095   2.17668
    A3        2.06948  -0.00564  -0.02965  -0.00975  -0.03940   2.03008
    A4        2.19766  -0.00000   0.00025  -0.00029  -0.00005   2.19761
    A5        1.99992   0.00329   0.02782   0.00457   0.03239   2.03231
    A6        2.08560  -0.00328  -0.02807  -0.00427  -0.03235   2.05326
    A7        1.89489   0.00026  -0.00821   0.00768  -0.00052   1.89437
    A8        2.20045   0.00007   0.00439  -0.00173   0.00394   2.20439
    A9        1.99528   0.00085  -0.00730   0.00251  -0.00351   1.99177
   A10        2.07967   0.00024   0.00747  -0.00145   0.00730   2.08698
   A11        2.01235  -0.00008   0.02754  -0.00192   0.02610   2.03846
   A12        1.77530   0.00274  -0.01055   0.00596  -0.00558   1.76972
   A13        2.03553   0.00084   0.03290  -0.00286   0.03088   2.06641
   A14        1.87667  -0.00160  -0.02119  -0.00155  -0.02414   1.85254
[...]
 001659,0.00001563,0.00001951,-0.15347757,-0.17067072,0.74377838,-0.006
 92347,-0.00877485,0.02964192,0.00578942,0.00258312,0.01020148,0.154383
 25,-0.00011651,-0.00032912,-0.00003448,0.00007278,0.00002468,0.0000743
 6,-0.00000343,0.00002141,0.00000739,0.00011084,0.00015021,0.00015633,-
 0.00003757,0.00005647,-0.00006369,0.00007742,0.00028237,-0.00067775,-0
 .00000329,-0.00002256,0.00000672,0.00000828,0.00000475,-0.00000172,0.0
 0000680,0.00000242,0.00000584,-0.16939684,0.20326062,0.29637227,0.0149
 0039,0.01218662,-0.01667063,-0.02244014,0.00078195,0.03412857,0.176821
 26,-0.21641980,0.00029869,0.00072950,0.00017473,-0.00014111,-0.0001046
 3,-0.00022637,0.00001718,0.00004569,0.00001522,-0.00043316,-0.00047729
 ,-0.00030179,0.00007694,-0.00012763,0.00019111,0.00051236,-0.00005354,
 0.00131315,0.00002410,0.00007953,-0.00008877,-0.00002080,-0.00001414,-
 0.00002320,-0.00001626,-0.00001291,-0.00002368,0.78297141,0.31430592,-
 1.02047661,-0.00298306,0.00510138,0.00902296,0.00186243,-0.00616866,0.
 00889357,-0.78216871,-0.31330322,1.00152968,0.00019664,-0.00028862,-0.
 00083986,-0.00019960,0.00003016,0.00016449,0.00009951,0.00009315,0.000
 07533,-0.00016991,-0.00005824,0.00020064,-0.00021364,0.00007184,-0.000
 25509,0.00016718,0.00005068,0.00009278,-0.00016049,0.00020786,-0.00025
 943,-0.00009156,0.00005483,0.00004319,0.00002404,-0.00000413,-0.000005
 89,-0.00002848,0.00005370,0.00008703,-0.00000898,0.00001839,-0.0000351
 4,0.00004843,-0.00008527,-0.00010739,0.00000973,-0.00001788,-0.0000523
 4,0.00003842,0.00004971,0.00002055,-0.00006010,-0.00009107,-0.00004235
 ,-0.00024045,0.00015535,0.00005943,0.00005383,-0.00000407,-0.00007735,
 0.00008874,-0.00000365,-0.00001665,0.00022738,0.00026410,0.00047463,0.
 00016180,-0.00012249,0.00004537,-0.00018243,-0.00002234,0.00002010,0.0
 0002207,-0.00020877,-0.00054101,0.00003021,0.00002101,-0.00027136,-0.0
 0004125,0.00000148,0.00003480,-0.00000677,0.00004245,0.00006115,0.0000
 2730,-0.00011640,0.00036554,-0.00005264,-0.00002356,0.00001074,-0.0000
 0079,-0.00000679,0.00006049,0.00000010,0.00000326,-0.00000836,0.000004
 46,-0.00000239,-0.00000497,0.00002490,0.00011025,0.00005637,0.00011616
 ,-0.00012857,0.00006133,-0.00022336,0.00000025,0.00002578,-0.00001699,
 -0.00001355,-0.00006248,-0.00000129,0.00001504,-0.00011371,-0.00003691
 ,-0.00007223,-0.00007897,0.00009347,-0.00005448,0.00017061,0.00000313,
 -0.00001191,-0.00000826,-0.00000023,0.00002641,0.00000501,-0.00014419,
 0.00007051,-0.00022532,0.00002826,-0.00012374,-0.00003916,-0.00001403,
 0.00005683,0.00006696,-0.00000680,-0.00000347,-0.00001521,-0.00007300,
 0.00027896,0.00022861,-0.00001475,0.00001231,-0.00001985,0.00009807,-0
 .00012551,-0.00002445,-0.00015489,0.00006348,-0.00001752,0.00007892,-0
 .00005013,-0.00007131,-0.00008306,0.00040098,0.00018884,0.00049802,-0.
 00001019,0.00000243,-0.00001247,-0.00081845,-0.00077738,-0.00006223,-0
 .00021918,0.00006006,0.00008154,0.00008185,0.00003351,0.00000813,0.000
 02544,0.00000599,0.00018504,0.00031463,-0.00009761,-0.00001538,0.00002
 974,-0.00004298,-0.00073668,-0.00077219,-0.00018754,-0.00001124,-0.000
 00900,-0.00001545,0.00001891,0.00000283,0.00001223,-0.00000393,-0.0000
 0085,0.00000336,0.00001932,0.00000122,-0.00001339,-0.00000514,0.000009
 75,0.00002968,0.00000373,-0.00000009,0.00000578,-0.00001033,-0.0000616
 6,-0.00004297,-0.00007469,0.00008800,0.00000059,0.00012230,0.00000015,
 -0.00000926,0.00000002,-0.00000323,0.00002697,0.00000131,-0.00001176,0
 .00006033,0.00000268,-0.00001494,-0.00001517,-0.00002571,-0.00000173,-
 0.00005547,0.00000044,0.00000105,0.00000490,-0.00001079,-0.00000486,-0
 .00004019,0.00000064,0.00000172,0.00000110,-0.00000998,0.00000503,0.00
 000773,0.00003734,0.00000773,0.00006780,0.00001299,0.00000553,0.000017
 83,-0.00000826,-0.00002214,-0.00003378,0.00001098,-0.00001486,-0.00003
 296,0.00005241,-0.00000006,0.00000729,0.00000813,0.00000105,-0.0000007
 1,-0.00002375,0.00001528,0.00001678,-0.00001240,-0.00000173,-0.0000022
 5,-0.00000433,0.00000568,0.00000368,0.00001197,-0.00000620,-0.00000081
 ,-0.00004149,0.00000454,-0.00001196,0.00002507,-0.00000503,0.00006888,
 -0.00000771,0.00000062,0.00000533,-0.00000041,-0.00000149,-0.00000296,
 -0.00001573,-0.00000571,-0.00001340,-0.00000912,0.00000095,0.00000445,
 -0.00000327,0.00000063,-0.00000510,0.00000679,0.00000670,-0.00003447,-
 0.00003358,-0.00000717,-0.00000509,-0.00000312,-0.00001289,0.00002278,
 -0.00000118,0.00000700,0.00000704,0.00002189,0.00000881,-0.00000846,0.
 00001272,0.00000628,-0.00000225,0.00000489,0.00000272,-0.00000013,-0.0
 0000695,-0.00000149,0.00000746,0.00001555,0.00000133,-0.00001226,0.000
 02832,-0.00000421,-0.00002088,-0.00004482,-0.00000585,0.00001173,-0.00
 000505,0.00000070,-0.00000107,-0.00000153,0.00000422,0.00000307,0.0000
 3040,0.00001724,0.00003440,0.00000038,0.00000111,0.00000432,-0.0000133
 0,-0.00001350,-0.00000817,0.00000247,0.00000383,-0.00000556,0.00000629
 ,-0.00000638,0.00001571,0.00000094,-0.00000756,-0.00001571,-0.00001343
 ,0.00000216,0.00000087,0.00000314,0.00000056,-0.00000399,0.00000112,0.
 00002116,0.00001692,0.00001075,0.00000175,0.00000196,0.00000143,-0.000
 00577,0.00000389,0.00001131,-0.00000101,0.00000209,-0.00000136,-0.0000
 0141,-0.00001892,-0.00001338,0.00000329,0.00000710,0.00000205,-0.00000
 430,-0.00001003,0.00000071,0.00000083,-0.00000566,0.00000147,0.0000007
 3,0.00000049,0.00002599,0.00003166,0.00005583,0.00000540,-0.00000007,0
 .00000548,-0.00000224,-0.00002711,-0.00000762,-0.00000257,0.00000668,-
 0.00000225,-0.00001413,-0.00000895,-0.00003850,-0.00005735,0.00033868,
 0.00013493,-0.00007629,-0.00010056,-0.00017412,0.00001276,-0.00001028,
 0.00007362,0.00039931,-0.00038283,-0.00030568,0.00004775,-0.00006748,0
 .00007313,-0.00197452,0.00030967,0.00102024,0.00002877,0.00006300,-0.0
 0005011,-0.00002810,0.00000243,0.00000227,-0.00000314,-0.00000191,-0.0
 0000283,0.31956197,-0.00013264,-0.00131372,0.00020150,0.00002524,0.000
 21832,-0.00002189,0.00019813,0.00039022,0.00016901,-0.00011136,0.00202
 145,-0.00071629,-0.00012028,-0.00001885,-0.00018652,-0.00106713,-0.003
 90767,-0.00128888,0.00005057,0.00000645,0.00009969,0.00005997,-0.00000
 984,0.00009241,0.00001895,0.00004547,0.00001337,0.64276235,2.98556712,
 0.00032015,0.00100337,-0.00006664,-0.00022383,-0.00023458,-0.00023394,
 -0.00000703,-0.00018180,0.00002863,-0.00040850,-0.00117556,0.00043991,
 0.00009341,-0.00009873,0.00021730,0.00155923,0.00101098,-0.00043760,-0
 .00004540,0.00012101,-0.00007905,-0.00001959,-0.00000393,-0.00006278,-
 0.00001086,-0.00002156,-0.00001121,-0.37854141,0.06075389,-0.26705202,
 0.00003766,-0.00015283,0.00014614,-0.00001051,0.00009507,-0.00003538,0
 .00007019,0.00015148,0.00001873,-0.00001035,0.00027550,0.00030763,0.00
 001972,-0.00003995,0.00003789,0.00077431,-0.00046521,-0.00008357,-0.00
 002066,0.00002488,0.00002464,0.00001315,0.00000702,-0.00000450,-0.0000
 0245,0.00000223,-0.00000771,-0.65430407,0.45184154,-0.01895992,0.66432
 326,0.00004898,0.00008123,-0.00008481,-0.00002458,-0.00002204,-0.00004
 372,-0.00001124,-0.00001146,-0.00000192,-0.00020689,-0.00040772,-0.000
 00325,0.00001320,-0.00001273,0.00004558,0.00019495,0.00085327,0.000315
 86,0.00000514,0.00002075,-0.00005430,-0.00001232,0.00000226,-0.0000083
 3,-0.00000537,-0.00000712,-0.00000658,0.44180707,-0.06643078,0.0092994
 8,-0.45509969,0.04532722,-0.00016113,-0.00033849,-0.00009650,0.0001030
 8,0.00002604,0.00012345,-0.00007127,-0.00005236,-0.00006412,0.00034563
 ,0.00030462,0.00009079,-0.00005318,0.00005050,-0.00009382,-0.00088716,
 0.00003786,-0.00022474,0.00001285,-0.00004714,0.00002251,0.00000552,0.
 00000416,0.00002020,0.00000868,0.00001009,0.00000986,-0.03943554,0.021
 18712,0.17659690,0.02157806,-0.01527512,-0.18001603,0.00020385,0.00016
 575,-0.00000152,0.00002266,-0.00003077,0.00000045,-0.00001817,-0.00000
 389,0.00004637,-0.00030729,-0.00019328,-0.00040730,-0.00001269,0.00003
 601,0.00002324,0.00063806,0.00054518,0.00056689,0.00001283,-0.00003201
 ,-0.00000971,-0.00000529,-0.00001093,-0.00000602,-0.00000442,-0.000009
 01,-0.00000192,0.42625858,-1.01272811,-0.04707516,-0.00728238,0.012449
 25,0.00089198,-0.41828577,0.00020787,0.00120111,-0.00005047,-0.0000285
 2,-0.00025481,0.00006283,-0.00010256,-0.00034653,-0.00005486,-0.000068
 68,-0.00133755,0.00040150,0.00008972,0.00003494,0.00012293,0.00127099,
 0.00304374,0.00099362,-0.00002770,-0.00003243,-0.00002342,-0.00004580,
 -0.00000853,-0.00007333,-0.00000731,-0.00003354,0.00000044,-1.00290322
 ,-3.06640627,-0.20413044,-0.00149643,0.01286824,-0.00063159,0.99660195
 ,3.03843795,-0.00002010,-0.00013066,0.00018209,-0.00000035,0.00006043,
 0.00000543,0.00008561,0.00011283,0.00005447,-0.00045502,0.00019570,-0.
 00085957,0.00000205,0.00003290,-0.00004429,0.00028021,-0.00021710,0.00
 073154,-0.00001126,-0.00003061,0.00001908,0.00000776,-0.00001461,0.000
 01955,-0.00000261,-0.00000230,-0.00000451,-0.05093603,-0.22060485,0.69
 310075,-0.00037909,0.00393503,-0.00084271,0.04520141,0.20959906,-0.685
 50250,-0.00015202,-0.00019095,-0.00016023,0.00004510,-0.00001602,0.000
 12695,-0.00004997,-0.00012120,-0.00008811,-0.00013664,0.00009281,0.000
 16578,-0.00002895,0.00005038,-0.00009154,0.00054461,0.00014347,-0.0009
 7778,-0.00003094,-0.00003100,0.00002179,0.00001626,-0.00000356,0.00000
 359,0.00000686,0.00000516,0.00000916,-0.08986568,-0.08079723,0.4433189
 0,-0.00360788,0.00084148,0.01766247,-0.00121998,0.00650968,0.00622742,
 0.09447923,-0.00001645,0.00011620,0.00005180,-0.00004331,0.00000525,-0
 .00007843,0.00001952,0.00005176,0.00002224,0.00006480,-0.00042162,-0.0
 0011392,0.00003827,-0.00003697,0.00006785,0.00021098,0.00071880,0.0005
 4666,-0.00002499,0.00004143,-0.00003414,-0.00000671,0.00000327,-0.0000
 1398,-0.00000841,-0.00000763,-0.00001000,-0.08181693,0.14983809,0.1336
 5789,0.00485637,0.00773888,-0.00527568,0.00320986,0.01283369,0.0070642
 0,0.07351698,-0.17088115,-0.00000081,-0.00032396,0.00005940,0.00004601
 ,0.00009751,0.00003979,0.00001084,0.00010741,-0.00000619,0.00032696,0.
 00043457,0.00023159,-0.00001672,-0.00000517,-0.00002073,-0.00046022,-0
 .00039422,0.00013618,0.00003905,-0.00001842,0.00001222,0.00000230,0.00
 001075,0.00001620,0.00000109,0.00000879,0.00000104,0.46814153,0.140301
 43,-0.60244025,-0.00264293,0.00188208,0.00447421,0.00077129,-0.0062162
 7,-0.00685934,-0.46621839,-0.13588451,0.60435588,-0.00025714,-0.000012
 75,0.00083114,-0.00015999,-0.00037018,-0.00015730,0.00040669,-0.000010
 38,-0.00000376,-0.00030651,-0.00007054,-0.00037937,0.00013878,0.000125
 74,0.00035461,0.00005098,0.00025183,0.00020325,-0.00005378,-0.00002490
 ,-0.00020670,-0.00013225,0.00003168,0.00004268,-0.00005920,-0.00000203
 ,-0.00001232,0.00014463,0.00002457,-0.00036485,0.00010435,-0.00002716,
 0.00013313,-0.00012435,-0.00004304,0.00014022,0.00001232,0.00010628,-0
 .00013308,0.00005040,-0.00004288,-0.00000295,-0.00007931,-0.00004993,0
 .00008444,-0.00016875,-0.00005669,0.00011169,0.00006200,0.00001562,-0.
 00003988,0.00002424,-0.00000897,-0.00004416,0.00041839,0.00009395,-0.0
 0007449,0.00012732,-0.00004060,0.00002777,-0.00004532,-0.00005113,0.00
 005047,-0.00005656,0.00000847,0.00028265,0.00006573,-0.00008536,-0.000
 08033,-0.00002775,0.00003424,0.00002596,-0.00002518,0.00000369,-0.0000
 0131,0.00019440,-0.00005847,0.00066560,-0.00005721,0.00005477,0.000030
 27,0.00007672,-0.00008132,-0.00000112,0.00003113,-0.00002147,-0.000018
 18,-0.00004715,0.00001780,0.00002836,-0.00001517,0.00007560,0.00011471
 ,0.00002191,-0.00010119,-0.00009154,-0.00006649,0.00000759,-0.00001467
 ,0.00002758,0.00001607,-0.00007576,0.00002404,0.00003914,0.00017360,0.
 00002717,0.00002140,-0.00004351,-0.00000866,-0.00006710,0.00013774,-0.
 00001921,-0.00002107,0.00000053,0.00002959,0.00003618,-0.00002529,-0.0
 0001983,-0.00005032,-0.00009246,0.00020050,0.00003213,-0.00005374,-0.0
 0020234,0.00000296,0.00009431,-0.00005809,0.00001130,0.00003847,-0.000
 38360,-0.00003335,-0.00019276,0.00004058,-0.00003343,-0.00001297,0.000
 38679,-0.00001523,0.00021809,-0.00001000,0.00003832,-0.00004604,-0.000
 02661,-0.00002292,-0.00006619,-0.00007314,-0.00013336,-0.00047558,-0.0
 0013366,0.00000279,0.,0.00003412,0.00025101,0.00061140,-0.00005817,0.0
 0000289,0.00012531,0.00009752,-0.00007135,-0.00007197,0.00005776,0.000
 01571,0.00000608,-0.00014824,0.00005629,-0.00054310,-0.00003147,-0.000
 02182,0.00001202,-0.00020118,0.00036836,-0.00001923,0.00000700,-0.0000
 2042,-0.00001293,-0.00002632,0.00002133,0.00002331,-0.00000413,0.00000
 601,0.00000157,0.00004298,0.00000329,-0.00003720,0.00002365,-0.0000446
 2,-0.00000866,0.00000097,-0.00001803,0.00001504,-0.00003504,-0.0000562
 7,-0.00007091,-0.00004672,0.00004712,0.00000823,0.00002794,-0.00000705
 ,-0.00000330,-0.00001472,-0.00001711,0.00004825,-0.00001566,-0.0000185
 4,-0.00007973,0.00007322,0.00001070,0.00001066,0.00000552,0.00004833,0
 .00008553,-0.00000362,0.00000051,0.00001757,0.00002342,0.00000056,-0.0
 0004146,0.00000435,0.00001057,0.00000315,-0.00002736,0.00001485,0.0000
 1189,-0.00001979,-0.00000221,0.00004134,0.00000520,-0.00003603,0.00001
 701,0.00001935,-0.00001543,-0.00004331,-0.00006147,-0.00000892,0.00000
 788,0.00002751,0.00000646,-0.00001849,0.00001390,-0.00000602,0.0000030
 7,0.00000851,-0.00000353,-0.00000018,-0.00004693,0.00001586,0.00000107
 ,0.00002978,0.00000198,-0.00001695,0.00001205,-0.00000663,-0.00000358,
 0.00003194,0.00002745,0.00000671,0.00001752,-0.00004144,-0.00004324,-0
 .00002828,0.00000167,-0.00000298,0.00000645,0.00000083,0.00000336,0.00
 000409,0.00000103,-0.00001533,-0.00001279,-0.00000098,0.00000262,0.000
 01274,0.00000135,-0.00000449,0.00000850,-0.00000015,0.00005461,0.00000
 044,-0.00004319,-0.00003257,-0.00001187,0.00003850,-0.00002286,-0.0000
 0034,0.00000050,0.00001618,-0.00000339,-0.00000709,0.00000221,0.000020
 31,0.00002074,-0.00003556,-0.00001644,0.00001573,0.00000625,-0.0000102
 6,-0.00000163,0.00000395,0.00001050,-0.00001516,0.00006352,0.00000201,
 0.00001150,-0.00000130,-0.00000369,-0.00002734,0.00001078,-0.00000104,
 -0.00000252,0.00000386,-0.00000353,0.00000145,0.00000065,-0.00000442,0
 .00002968,-0.00000393,0.00000813,-0.00000644,-0.00000277,-0.00000902,-
 0.00001312,-0.00000472,0.00000308,0.00000532,0.00000402,0.00001231,0.0
 0000611,0.00001839,0.00000464,0.00000183,0.00000914,0.00001136,-0.0000
 0198,-0.00000328,-0.00000152,-0.00000221,-0.00000539,-0.00000294,0.000
 01552,-0.00000895,0.00000552,-0.00000147,-0.00000443,0.00000386,-0.000
 01455,-0.00000171,0.00000022,-0.00000194,-0.00000685,-0.00000160,-0.00
 000238,-0.00000089,0.00000759,0.00001243,-0.00000297,-0.00001126,-0.00
 003134,0.00002551,0.00000604,-0.00000227,0.00000625,-0.00000097,-0.000
 00344,-0.00000191,-0.00000529,0.00005773,-0.00002020,-0.00000330,-0.00
 000487,0.00000641,0.00000475,-0.00002364,0.00000466,0.00000811,0.00001
 042,0.00000849,-0.00000335,-0.00001870,-0.00001820,0.00002384,0.000405
 49,0.00018943,0.00007097,-0.00006168,-0.00016301,0.00005806,0.00002683
 ,0.00005631,0.00095905,-0.00026064,-0.00020668,-0.00000184,-0.00001453
 ,0.00007212,-0.00321474,0.00014203,0.00177520,0.00012342,-0.00000441,-
 0.00009531,-0.00008385,0.00001744,0.00004061,-0.00000876,0.00000279,0.
 00000163,1.92014555,0.00032973,0.00055256,0.00026430,-0.00018121,0.000
 00941,-0.00023449,0.00018249,0.00028744,0.00020222,0.00022490,0.000213
 24,0.00074082,0.00009573,-0.00011281,0.00018834,0.00070114,-0.00257540
 ,0.00049598,-0.00000088,0.00007216,0.00004129,0.00000632,-0.00000883,-
 0.00003025,-0.00001924,-0.00001911,-0.00002913,-1.08888079,-0.12222827
 ,0.00021843,0.00039167,0.00003165,-0.00011701,-0.00003613,0.00000099,-
 0.00000464,-0.00006043,0.00003343,-0.00039393,-0.00007417,0.00050267,0
 .00002817,0.00000312,0.00000625,0.00154914,-0.00044028,-0.00152917,-0.
 00009674,0.00003586,0.00000534,0.00004571,-0.00001108,-0.00003275,0.00
 001057,0.00000813,0.00000376,-1.10514236,-0.66498787,1.24657693,0.0001
 0811,-0.00013676,-0.00002063,-0.00003514,0.00010674,-0.00000618,0.0000
 0880,0.00008119,-0.00000390,-0.00014121,0.00026319,0.00026087,0.000013
 54,-0.00004613,0.00002716,0.00137311,-0.00092677,-0.00002272,-0.000044
 23,0.00004426,0.00006466,0.00002676,-0.00000424,-0.00001678,-0.0000021
 7,-0.00000064,-0.00001431,-1.73927047,1.38193772,-0.16025138,1.7196833
 4,-0.00010434,-0.00043768,-0.00018608,0.00005425,0.00000970,0.00014077
 ,-0.00007910,-0.00005877,-0.00001873,0.00013437,-0.00009683,-0.0005683
 2,-0.00004688,0.00005294,-0.00009413,-0.00149960,0.00147225,0.00014354
 ,0.00003947,-0.00003973,-0.00004725,-0.00002250,0.00001287,0.00002200,
 0.00000796,0.00001178,0.00001865,1.36871181,-0.29559101,0.10300079,-1.
 36666969,0.30901343,0.00000218,0.00006373,-0.00000460,-0.00001376,-0.0
 0003391,-0.00003248,0.00004465,-0.00000620,-0.00002171,-0.00027811,-0.
 00023888,-0.00071575,0.00000539,0.00000904,0.00001880,-0.00015276,0.00
 055275,0.00087466,0.00000519,-0.00002053,-0.00001421,-0.00001463,-0.00
 000349,0.00000150,-0.00000315,-0.00000929,-0.00000592,-0.17503416,0.11
 297335,0.52529285,0.17158324,-0.10784173,-0.53169324,-0.00004436,-0.00
 024436,-0.00004319,0.00000314,0.00002628,0.00007288,0.00001600,0.00000
 630,-0.00002744,0.00005249,0.00018440,0.00043198,-0.00001209,0.0000151
 6,-0.00004787,0.00019651,0.00000367,-0.00057485,-0.00001357,-0.0000048
 9,0.00002443,0.00001143,0.00000219,0.00000253,0.00000265,0.00000344,0.
 00000532,-0.01541282,0.00532349,0.00355279,0.01221073,0.00383502,0.002
 82646,-0.00187669,-0.00002101,-0.00000245,-0.00001787,0.00002146,-0.00
 002674,0.00002760,-0.00002880,-0.00005060,-0.00001690,0.00010857,-0.00
 004197,0.00010166,-0.00001698,0.00002572,-0.00003330,-0.00008620,0.000
 27321,-0.00004287,0.00000960,-0.00001934,0.00001304,-0.00000047,-0.000
 00296,0.00000404,0.00000256,0.00000005,0.00000378,0.01858378,0.0160925
 3,0.01736900,-0.01390340,-0.01006200,-0.00413525,-0.00216381,0.0036121
 0,-0.00013102,-0.00039238,-0.00002727,0.00007495,0.00003614,0.00006426
 ,-0.00001332,0.00004231,-0.00000845,0.00046069,0.00022718,0.00043584,-
 0.00003534,0.00002041,-0.00005391,-0.00053784,0.00011080,-0.00040800,0
 .00001880,-0.00001116,0.00000883,0.00000356,0.00000841,0.00001204,0.00
 000560,0.00000522,0.00000617,-0.00165904,-0.00485785,-0.01967650,-0.00
 064909,0.00177488,0.00543182,0.00077952,-0.00566255,0.00170038,-0.0000
 2698,-0.00004533,-0.00008636,-0.00001379,-0.00006211,0.00004251,-0.000
 04207,-0.00004703,0.00000697,-0.00082342,-0.00018329,-0.00049223,-0.00
 000083,0.00004076,-0.00003599,0.00162240,0.00068296,-0.00088916,-0.000
 07778,-0.00002239,0.00001300,0.00002728,-0.00001048,-0.00001934,0.0000
 0446,-0.00000452,0.00000504,-0.16338842,-0.29971940,1.26060124,0.00606
 884,-0.00436077,0.00102946,0.00486658,-0.00250531,0.00168254,0.1517837
 3,-0.00027726,-0.00041188,-0.00004792,0.00011323,0.00003496,0.00009089
 ,0.00001261,-0.00004662,-0.00006817,-0.00029049,0.00014432,-0.00004410
 ,-0.00004156,0.00003187,-0.00008006,0.00064578,0.00057943,-0.00096885,
 -0.00003087,-0.00000560,0.00001138,0.00001955,0.00000453,-0.00000258,0
 .00001257,0.00001125,0.00001037,-0.29866811,0.40330807,0.54480137,-0.0
 0074548,-0.00428695,-0.00130959,-0.00698688,-0.00979756,0.00869858,0.3
 0623691,-0.38956582,-0.00003203,0.00004029,0.00010385,0.00000160,0.000
 05956,-0.00007927,-0.00000117,0.00008708,0.00001742,0.00013970,0.00002
 210,-0.00027648,0.00001850,-0.00004379,0.00005424,-0.00051613,-0.00035
 716,0.00152373,0.00007780,0.00000694,-0.00001476,-0.00002606,0.0000026
 9,0.00000959,-0.00001626,-0.00000493,-0.00001202,1.28016526,0.55523328
 ,-1.75121546,-0.01095095,0.00365562,0.00086828,-0.00700256,-0.00761036
 ,0.01251479,-1.26185769,-0.55109132,1.73650608\\@
 The archive entry for this job was punched.


 A great many people think they are thinking when they
 are merely rearranging their prejudices.
                               -- William James
 Job cpu time:       9 days  5 hours 19 minutes  4.5 seconds.
 Elapsed time:       0 days  5 hours 34 minutes 34.1 seconds.
 File lengths (MBytes):  RWF=   7420 Int=      0 D2E=      0 Chk=     49 Scr=      1
 Normal termination of Gaussian 16 at Sat Mar 22 15:07:54 2025.
