 Entering Gaussian System, Link 0=g16
 Input=enolonetc_nh3_mp2_avdz_opt_anharm.gjf
 Output=enolonetc_nh3_mp2_avdz_opt_anharm.log
 Initial command:
 /sw/contrib/chem-src/g16/c01/g16/l1.exe "/scr/Gau-48732.inp" -scrdir="/scr/"
 Entering Link 1 = /sw/contrib/chem-src/g16/c01/g16/l1.exe PID=     48735.
  
 Copyright (c) 1988-2019, Gaussian, Inc.  All Rights Reserved.
  
 This is part of the Gaussian(R) 16 program.  It is based on
 the Gaussian(R) 09 system (copyright 2009, Gaussian, Inc.),
 the Gaussian(R) 03 system (copyright 2003, Gaussian, Inc.),
 the Gaussian(R) 98 system (copyright 1998, Gaussian, Inc.),
 the Gaussian(R) 94 system (copyright 1995, Gaussian, Inc.),
 the Gaussian 92(TM) system (copyright 1992, Gaussian, Inc.),
 the Gaussian 90(TM) system (copyright 1990, Gaussian, Inc.),
 the Gaussian 88(TM) system (copyright 1988, Gaussian, Inc.),
 the Gaussian 86(TM) system (copyright 1986, Carnegie Mellon
 University), and the Gaussian 82(TM) system (copyright 1983,
 Carnegie Mellon University). Gaussian is a federally registered
 trademark of Gaussian, Inc.
  
 This software contains proprietary and confidential information,
 including trade secrets, belonging to Gaussian, Inc.
  
 This software is provided under written license and may be
 used, copied, transmitted, or stored only in accord with that
 written license.
  
 The following legend is applicable only to US Government
 contracts under FAR:
  
                    RESTRICTED RIGHTS LEGEND
  
 Use, reproduction and disclosure by the US Government is
 subject to restrictions as set forth in subparagraphs (a)
 and (c) of the Commercial Computer Software - Restricted
 Rights clause in FAR 52.227-19.
  
 Gaussian, Inc.
 340 Quinnipiac St., Bldg. 40, Wallingford CT 06492
  
  
 ---------------------------------------------------------------
 Warning -- This program may not be used in any manner that
 competes with the business of Gaussian, Inc. or will provide
 assistance to any competitor of Gaussian, Inc.  The licensee
 of this program is prohibited from giving any competitor of
 Gaussian, Inc. access to this program.  By using this program,
 the user acknowledges that Gaussian, Inc. is engaged in the
 business of creating and licensing software in the field of
 computational chemistry and represents and warrants to the
 licensee that it is not a competitor of Gaussian, Inc. and that
 it will not use this program in any manner prohibited above.
 ---------------------------------------------------------------
  

 Cite this work as:
 Gaussian 16, Revision C.01,
 M. J. Frisch, G. W. Trucks, H. B. Schlegel, G. E. Scuseria, 
 M. A. Robb, J. R. Cheeseman, G. Scalmani, V. Barone, 
 G. A. Petersson, H. Nakatsuji, X. Li, M. Caricato, A. V. Marenich, 
 J. Bloino, B. G. Janesko, R. Gomperts, B. Mennucci, H. P. Hratchian, 
 J. V. Ortiz, A. F. Izmaylov, J. L. Sonnenberg, D. Williams-Young, 
 F. Ding, F. Lipparini, F. Egidi, J. Goings, B. Peng, A. Petrone, 
 T. Henderson, D. Ranasinghe, V. G. Zakrzewski, J. Gao, N. Rega, 
 G. Zheng, W. Liang, M. Hada, M. Ehara, K. Toyota, R. Fukuda, 
 J. Hasegawa, M. Ishida, T. Nakajima, Y. Honda, O. Kitao, H. Nakai, 
 T. Vreven, K. Throssell, J. A. Montgomery, Jr., J. E. Peralta, 
 F. Ogliaro, M. J. Bearpark, J. J. Heyd, E. N. Brothers, K. N. Kudin, 
 V. N. Staroverov, T. A. Keith, R. Kobayashi, J. Normand, 
 K. Raghavachari, A. P. Rendell, J. C. Burant, S. S. Iyengar, 
 J. Tomasi, M. Cossi, J. M. Millam, M. Klene, C. Adamo, R. Cammi, 
 J. W. Ochterski, R. L. Martin, K. Morokuma, O. Farkas, 
 J. B. Foresman, and D. J. Fox, Gaussian, Inc., Wallingford CT, 2019.
 
 ******************************************
 Gaussian 16:  EM64L-G16RevC.01  3-Jul-2019
                22-Mar-2025 
 ******************************************
 %nprocshared=40
 Will use up to   40 processors via shared memory.
 %mem=50gb
 ----------------------------------------------
 # MP2/aug-cc-pVDZ opt freq=(vibrot,anharmonic)
 ----------------------------------------------
 1/18=20,19=15,38=1,80=1/1,3;
 2/9=110,12=2,17=6,18=5,40=1/2;
 3/5=16,7=10,11=9,25=1,30=1,71=1/1,2,3;
 4//1;
 5/5=2,38=5/2;
 8/6=4,10=1/1;
 9/15=2,16=-3/6;
 10/5=1/2;
 6/7=2,8=2,9=2,10=2/1;
 7/12=2/1,2,3,16;
 1/18=20,19=15,80=1/3(2);
 2/9=110/2;
 99//99;
 2/9=110/2;
 3/5=16,7=10,11=9,25=1,30=1,71=1/1,2,3;
 4/5=5,16=3,69=1/1;
 5/5=2,38=5/2;
 8/6=4,10=1/1;
 9/15=2,16=-3/6;
 10/5=1/2;
 7/12=2/1,2,3,16;
 1/18=20,19=15,80=1/3(-8);
 2/9=110/2;
 6/7=2,8=2,9=2,10=2/1;
 99/9=10/99;
 ----
 blah
 ----
 Symbolic Z-matrix:
 Charge =  0 Multiplicity = 1
 C                    -0.89596   0.61753  -0.22406 
 C                    -1.73329   0.2381   -1.19238 
 H                    -0.86107   0.17112   0.76406 
 O                     0.03056   1.61872  -0.34463 
 C                    -2.69659  -0.85834  -0.95315 
 H                    -0.01576   2.01345  -1.24964 
 O                    -2.79156  -1.46937   0.10278 
 H                    -1.74659   0.70086  -2.16917 
 H                    -3.34052  -1.09247  -1.81705 
 N                     0.18948   2.94203  -2.71914 
 H                     0.95598   3.55276  -2.41311 
 H                     0.54434   2.51515  -3.58021 
 H                    -0.5333    3.59511  -3.03652 
 
 Add virtual bond connecting atoms N10        and H6         Dist= 3.31D+00.

 GradGradGradGradGradGradGradGradGradGradGradGradGradGradGradGradGradGrad
 Berny optimization.
 Initialization pass.
                           ----------------------------
                           !    Initial Parameters    !
                           ! (Angstroms and Degrees)  !
 --------------------------                            --------------------------
 ! Name  Definition              Value          Derivative Info.                !
 --------------------------------------------------------------------------------
 ! R1    R(1,2)                  1.3352         estimate D2E/DX2                !
 ! R2    R(1,3)                  1.0848         estimate D2E/DX2                !
 ! R3    R(1,4)                  1.3694         estimate D2E/DX2                !
 ! R4    R(2,5)                  1.479          estimate D2E/DX2                !
 ! R5    R(2,8)                  1.0809         estimate D2E/DX2                !
 ! R6    R(4,6)                  0.9884         estimate D2E/DX2                !
 ! R7    R(5,7)                  1.2237         estimate D2E/DX2                !
 ! R8    R(5,9)                  1.1026         estimate D2E/DX2                !
 ! R9    R(6,10)                 1.7504         estimate D2E/DX2                !
 ! R10   R(10,11)                1.0267         estimate D2E/DX2                !
 ! R11   R(10,12)                1.0245         estimate D2E/DX2                !
 ! R12   R(10,13)                1.0245         estimate D2E/DX2                !
 ! A1    A(2,1,3)              124.3194         estimate D2E/DX2                !
 ! A2    A(2,1,4)              124.6245         estimate D2E/DX2                !
 ! A3    A(3,1,4)              111.056          estimate D2E/DX2                !
 ! A4    A(1,2,5)              120.1214         estimate D2E/DX2                !
 ! A5    A(1,2,8)              122.7796         estimate D2E/DX2                !
 ! A6    A(5,2,8)              117.099          estimate D2E/DX2                !
 ! A7    A(1,4,6)              109.9304         estimate D2E/DX2                !
 ! A8    A(2,5,7)              124.0777         estimate D2E/DX2                !
 ! A9    A(2,5,9)              114.2717         estimate D2E/DX2                !
 ! A10   A(7,5,9)              121.6507         estimate D2E/DX2                !
 ! A11   A(6,10,11)             98.7928         estimate D2E/DX2                !
 ! A12   A(6,10,12)            121.681          estimate D2E/DX2                !
 ! A13   A(6,10,13)            121.0318         estimate D2E/DX2                !
 ! A14   A(11,10,12)           103.874          estimate D2E/DX2                !
 ! A15   A(11,10,13)           103.8762         estimate D2E/DX2                !
 ! A16   A(12,10,13)           104.4538         estimate D2E/DX2                !
 ! A17   L(4,6,10,8,-1)        192.8281         estimate D2E/DX2                !
 ! A18   L(4,6,10,8,-2)        179.9519         estimate D2E/DX2                !
 ! D1    D(3,1,2,5)              0.0015         estimate D2E/DX2                !
 ! D2    D(3,1,2,8)           -179.9964         estimate D2E/DX2                !
 ! D3    D(4,1,2,5)           -179.9994         estimate D2E/DX2                !
 ! D4    D(4,1,2,8)              0.0027         estimate D2E/DX2                !
 ! D5    D(2,1,4,6)              0.02           estimate D2E/DX2                !
 ! D6    D(3,1,4,6)           -179.9807         estimate D2E/DX2                !
 ! D7    D(1,2,5,7)              0.0189         estimate D2E/DX2                !
 ! D8    D(1,2,5,9)           -179.9819         estimate D2E/DX2                !
 ! D9    D(8,2,5,7)           -179.9831         estimate D2E/DX2                !
 ! D10   D(8,2,5,9)              0.0161         estimate D2E/DX2                !
 ! D11   D(1,4,10,11)         -179.2946         estimate D2E/DX2                !
 ! D12   D(1,4,10,12)          -69.6536         estimate D2E/DX2                !
 ! D13   D(1,4,10,13)           71.3118         estimate D2E/DX2                !
 --------------------------------------------------------------------------------
 Trust Radius=3.00D-01 FncErr=1.00D-07 GrdErr=1.00D-07 EigMax=2.50D+02 EigMin=1.00D-04
 Number of steps in this run=     53 maximum allowed number of steps=    100.
 GradGradGradGradGradGradGradGradGradGradGradGradGradGradGradGradGradGrad

                          Input orientation:                          
 ---------------------------------------------------------------------
 Center     Atomic      Atomic             Coordinates (Angstroms)
 Number     Number       Type             X           Y           Z
 ---------------------------------------------------------------------
      1          6           0       -0.895963    0.617533   -0.224055
      2          6           0       -1.733290    0.238100   -1.192378
      3          1           0       -0.861068    0.171124    0.764064
      4          8           0        0.030558    1.618721   -0.344635
      5          6           0       -2.696592   -0.858336   -0.953154
      6          1           0       -0.015759    2.013449   -1.249638
      7          8           0       -2.791563   -1.469366    0.102781
      8          1           0       -1.746591    0.700863   -2.169167
      9          1           0       -3.340519   -1.092466   -1.817050
     10          7           0        0.189482    2.942027   -2.719145
     11          1           0        0.955976    3.552760   -2.413114
     12          1           0        0.544336    2.515155   -3.580215
     13          1           0       -0.533300    3.595111   -3.036517
 ---------------------------------------------------------------------
                    Distance matrix (angstroms):
                    1          2          3          4          5
     1  C    0.000000
     2  C    1.335191   0.000000
     3  H    1.084840   2.143110   0.000000
     4  O    1.369437   2.394982   2.029716   0.000000
     5  C    2.439680   1.478970   2.716205   3.734093   0.000000
     6  H    1.942978   2.470841   2.857220   0.988427   3.939787
     7  O    2.838180   2.390151   2.618265   4.207235   1.223673
     8  H    2.124611   1.080945   3.109440   2.707330   2.193694
     9  H    3.381949   2.178028   3.795587   4.569759   1.102622
    10  N    3.578678   3.652299   4.573216   2.722994   5.088310
    11  H    4.103317   4.439517   4.983129   2.979180   5.910203
    12  H    4.115730   4.009279   5.132485   3.396548   5.365212
    13  H    4.111866   4.013770   5.125968   3.386782   5.371539
                    6          7          8          9         10
     6  H    0.000000
     7  O    4.654474   0.000000
     8  H    2.358855   3.311134   0.000000
     9  H    4.585051   2.032033   2.424999   0.000000
    10  N    1.750380   6.025801   3.012253   5.436158   0.000000
    11  H    2.160422   6.752446   3.936584   6.355571   1.026724
    12  H    2.448877   6.369387   3.245159   5.587108   1.024491
    13  H    2.441811   6.372117   3.255925   5.598300   1.024529
                   11         12         13
    11  H    0.000000
    12  H    1.614990   0.000000
    13  H    1.615044   1.619633   0.000000
 Stoichiometry    C3H7NO2
 Framework group  C1[X(C3H7NO2)]
 Deg. of freedom    33
 Full point group                 C1      NOp   1
 Largest Abelian subgroup         C1      NOp   1
 Largest concise Abelian subgroup C1      NOp   1
                         Standard orientation:                         
 ---------------------------------------------------------------------
 Center     Atomic      Atomic             Coordinates (Angstroms)
 Number     Number       Type             X           Y           Z
 ---------------------------------------------------------------------
      1          6           0        0.171237    0.833478   -0.000143
      2          6           0        0.570765   -0.440535   -0.000673
      3          1           0        0.843142    1.685196    0.000552
      4          8           0       -1.136863    1.238734   -0.000418
      5          6           0        2.013494   -0.765936   -0.000291
      6          1           0       -1.733690    0.450835   -0.000739
      7          8           0        2.905335    0.071916    0.000839
      8          1           0       -0.121290   -1.270898   -0.001420
      9          1           0        2.234483   -1.846185   -0.001104
     10          7           0       -3.074003   -0.674949    0.000265
     11          1           0       -3.846725    0.000991   -0.012693
     12          1           0       -3.266298   -1.283292   -0.801311
     13          1           0       -3.272360   -1.259248    0.818133
 ---------------------------------------------------------------------
 Rotational constants (GHZ):           8.2581164           1.3070663           1.1351590
 Standard basis: Aug-CC-pVDZ (5D, 7F)
 There are   213 symmetry adapted cartesian basis functions of A   symmetry.
 There are   201 symmetry adapted basis functions of A   symmetry.
   201 basis functions,   335 primitive gaussians,   213 cartesian basis functions
    24 alpha electrons       24 beta electrons
       nuclear repulsion energy       218.6096822998 Hartrees.
 NAtoms=   13 NActive=   13 NUniq=   13 SFac= 1.00D+00 NAtFMM=   60 NAOKFM=F Big=F
 Integral buffers will be    131072 words long.
 Raffenetti 1 integral format.
 Two-electron integral symmetry is turned on.
 One-electron integrals computed using PRISM.
 NBasis=   201 RedAO= T EigKep=  3.02D-05  NBF=   201
 NBsUse=   201 1.00D-06 EigRej= -1.00D+00 NBFU=   201
 ExpMin= 2.97D-02 ExpMax= 1.17D+04 ExpMxC= 4.01D+02 IAcc=3 IRadAn=         5 AccDes= 0.00D+00
 Harris functional with IExCor=  205 and IRadAn=       5 diagonalized for initial guess.
 HarFok:  IExCor=  205 AccDes= 0.00D+00 IRadAn=         5 IDoV= 1 UseB2=F ITyADJ=14
 ICtDFT=  3500011 ScaDFX=  1.000000  1.000000  1.000000  1.000000
 FoFCou: FMM=F IPFlag=           0 FMFlag=      100000 FMFlg1=           0
         NFxFlg=           0 DoJE=T BraDBF=F KetDBF=T FulRan=T
         wScrn=  0.000000 ICntrl=       500 IOpCl=  0 I1Cent=   200000004 NGrid=           0
         NMat0=    1 NMatS0=      1 NMatT0=    0 NMatD0=    1 NMtDS0=    0 NMtDT0=    0
 Petite list used in FoFCou.
 Requested convergence on RMS density matrix=1.00D-08 within 128 cycles.
 Requested convergence on MAX density matrix=1.00D-06.
 Requested convergence on             energy=1.00D-06.
 No special actions if energy rises.
 SCF Done:  E(RHF) =  -321.877881812     A.U. after   14 cycles
            NFock= 14  Conv=0.64D-08     -V/T= 2.0018
 ExpMin= 2.97D-02 ExpMax= 1.17D+04 ExpMxC= 4.01D+02 IAcc=3 IRadAn=         5 AccDes= 0.00D+00
 HarFok:  IExCor=  205 AccDes= 0.00D+00 IRadAn=         5 IDoV=-2 UseB2=F ITyADJ=14
 ICtDFT= 12500011 ScaDFX=  1.000000  1.000000  1.000000  1.000000
 Range of M.O.s used for correlation:     7   201
 NBasis=   201 NAE=    24 NBE=    24 NFC=     6 NFV=     0
 NROrb=    195 NOA=    18 NOB=    18 NVA=   177 NVB=   177

 **** Warning!!: The largest alpha MO coefficient is  0.45045100D+02

 Fully direct method using O(ONN) memory.
 JobTyp=1 Pass  1:  I=   7 to  24 NPSUse= 40 ParTrn=T ParDer=T DoDerP=T.
 Spin components of T(2) and E(2):
     alpha-alpha T2 =       0.4222048082D-01 E2=     -0.1292263257D+00
     alpha-beta  T2 =       0.2369834532D+00 E2=     -0.7462385763D+00
     beta-beta   T2 =       0.4222048082D-01 E2=     -0.1292263257D+00
 ANorm=    0.1149532259D+01
 E2 =    -0.1004691228D+01 EUMP2 =    -0.32288257303960D+03
          IDoAtm=1111111111111
          Differentiating once with respect to electric field.
                with respect to dipole field.
          Differentiating once with respect to nuclear coordinates.
 Keep R1 ints in memory in canonical form, NReq=215115130.
          There are     1 degrees of freedom in the 1st order CPHF.  IDoFFX=0 NUNeed=     1.
 LinEq1:  Iter=  0 NonCon=     1 RMS=4.62D-03 Max=1.23D-01 NDo=     1
 AX will form     1 AO Fock derivatives at one time.
 LinEq1:  Iter=  1 NonCon=     1 RMS=1.40D-03 Max=2.28D-02 NDo=     1
 LinEq1:  Iter=  2 NonCon=     1 RMS=5.28D-04 Max=1.09D-02 NDo=     1
 LinEq1:  Iter=  3 NonCon=     1 RMS=1.77D-04 Max=2.77D-03 NDo=     1
 LinEq1:  Iter=  4 NonCon=     1 RMS=6.23D-05 Max=9.73D-04 NDo=     1
 LinEq1:  Iter=  5 NonCon=     1 RMS=2.22D-05 Max=3.87D-04 NDo=     1
 LinEq1:  Iter=  6 NonCon=     1 RMS=9.18D-06 Max=3.08D-04 NDo=     1
 LinEq1:  Iter=  7 NonCon=     1 RMS=2.91D-06 Max=4.85D-05 NDo=     1
 LinEq1:  Iter=  8 NonCon=     1 RMS=1.08D-06 Max=2.90D-05 NDo=     1
 LinEq1:  Iter=  9 NonCon=     1 RMS=2.94D-07 Max=2.68D-06 NDo=     1
 LinEq1:  Iter= 10 NonCon=     1 RMS=6.42D-08 Max=6.86D-07 NDo=     1
 LinEq1:  Iter= 11 NonCon=     1 RMS=1.97D-08 Max=4.11D-07 NDo=     1
 LinEq1:  Iter= 12 NonCon=     1 RMS=5.13D-09 Max=7.63D-08 NDo=     1
 LinEq1:  Iter= 13 NonCon=     1 RMS=1.38D-09 Max=1.20D-08 NDo=     1
 LinEq1:  Iter= 14 NonCon=     1 RMS=2.85D-10 Max=3.03D-09 NDo=     1
 LinEq1:  Iter= 15 NonCon=     0 RMS=5.97D-11 Max=7.83D-10 NDo=     1
 Linear equations converged to 1.000D-10 1.000D-09 after    15 iterations.
 End of Minotr F.D. properties file   721 does not exist.
 End of Minotr F.D. properties file   722 does not exist.
 End of Minotr F.D. properties file   788 does not exist.

 **********************************************************************

            Population analysis using the SCF Density.

 **********************************************************************

 Orbital symmetries:
       Occupied  (A) (A) (A) (A) (A) (A) (A) (A) (A) (A) (A) (A)
                 (A) (A) (A) (A) (A) (A) (A) (A) (A) (A) (A) (A)
       Virtual   (A) (A) (A) (A) (A) (A) (A) (A) (A) (A) (A) (A)
                 (A) (A) (A) (A) (A) (A) (A) (A) (A) (A) (A) (A)
                 (A) (A) (A) (A) (A) (A) (A) (A) (A) (A) (A) (A)
                 (A) (A) (A) (A) (A) (A) (A) (A) (A) (A) (A) (A)
                 (A) (A) (A) (A) (A) (A) (A) (A) (A) (A) (A) (A)
                 (A) (A) (A) (A) (A) (A) (A) (A) (A) (A) (A) (A)
                 (A) (A) (A) (A) (A) (A) (A) (A) (A) (A) (A) (A)
                 (A) (A) (A) (A) (A) (A) (A) (A) (A) (A) (A) (A)
                 (A) (A) (A) (A) (A) (A) (A) (A) (A) (A) (A) (A)
                 (A) (A) (A) (A) (A) (A) (A) (A) (A) (A) (A) (A)
                 (A) (A) (A) (A) (A) (A) (A) (A) (A) (A) (A) (A)
                 (A) (A) (A) (A) (A) (A) (A) (A) (A) (A) (A) (A)
                 (A) (A) (A) (A) (A) (A) (A) (A) (A) (A) (A) (A)
                 (A) (A) (A) (A) (A) (A) (A) (A) (A) (A) (A) (A)
                 (A) (A) (A) (A) (A) (A) (A) (A) (A)
 The electronic state is 1-A.
 Alpha  occ. eigenvalues --  -20.58532 -20.54051 -15.60391 -11.32887 -11.32358
 Alpha  occ. eigenvalues --  -11.22130  -1.39067  -1.36630  -1.19383  -1.04968
 Alpha  occ. eigenvalues --   -0.87801  -0.78911  -0.69263  -0.66974  -0.66884
 Alpha  occ. eigenvalues --   -0.66227  -0.62181  -0.56841  -0.56638  -0.55593
 Alpha  occ. eigenvalues --   -0.51508  -0.47959  -0.40875  -0.34717
 Alpha virt. eigenvalues --    0.01825   0.04077   0.04603   0.05333   0.05997
 Alpha virt. eigenvalues --    0.07208   0.08657   0.09124   0.11446   0.12087
 Alpha virt. eigenvalues --    0.13265   0.14582   0.15301   0.15544   0.16189
 Alpha virt. eigenvalues --    0.17105   0.17877   0.18813   0.19033   0.19538
 Alpha virt. eigenvalues --    0.20126   0.23200   0.24463   0.24555   0.25524
 Alpha virt. eigenvalues --    0.25548   0.27815   0.29180   0.29834   0.31381
 Alpha virt. eigenvalues --    0.31682   0.32346   0.33486   0.35203   0.36201
 Alpha virt. eigenvalues --    0.36541   0.37849   0.39130   0.39895   0.40039
 Alpha virt. eigenvalues --    0.42699   0.43691   0.44105   0.46323   0.47985
 Alpha virt. eigenvalues --    0.48258   0.49873   0.50587   0.51291   0.51532
 Alpha virt. eigenvalues --    0.53542   0.54411   0.54549   0.55543   0.56675
 Alpha virt. eigenvalues --    0.58951   0.60143   0.60864   0.61506   0.63537
 Alpha virt. eigenvalues --    0.64523   0.66544   0.67737   0.67892   0.69390
 Alpha virt. eigenvalues --    0.69929   0.70462   0.70834   0.74153   0.74609
 Alpha virt. eigenvalues --    0.76500   0.78168   0.79843   0.80877   0.81700
 Alpha virt. eigenvalues --    0.84369   0.87961   0.88036   0.90009   0.91490
 Alpha virt. eigenvalues --    0.92136   0.94501   0.96997   0.97838   0.98840
 Alpha virt. eigenvalues --    0.99995   1.04960   1.08250   1.10965   1.11987
 Alpha virt. eigenvalues --    1.14212   1.18319   1.21090   1.22625   1.24327
 Alpha virt. eigenvalues --    1.26527   1.28059   1.32181   1.32824   1.35260
 Alpha virt. eigenvalues --    1.36073   1.36705   1.37620   1.46414   1.50120
 Alpha virt. eigenvalues --    1.53419   1.53551   1.55258   1.62249   1.63165
 Alpha virt. eigenvalues --    1.64453   1.69111   1.69943   1.71707   1.74626
 Alpha virt. eigenvalues --    1.78929   1.79529   1.84950   1.85292   1.85647
 Alpha virt. eigenvalues --    1.89170   1.90942   1.91777   1.95896   1.97257
 Alpha virt. eigenvalues --    1.99368   1.99996   2.00668   2.05756   2.06832
 Alpha virt. eigenvalues --    2.11410   2.13968   2.15546   2.18287   2.19902
 Alpha virt. eigenvalues --    2.21982   2.25305   2.26859   2.28092   2.31982
 Alpha virt. eigenvalues --    2.34600   2.37670   2.39619   2.40484   2.43907
 Alpha virt. eigenvalues --    2.43974   2.46126   2.48633   2.55969   2.64055
 Alpha virt. eigenvalues --    2.71834   2.74022   2.80526   2.83542   2.85870
 Alpha virt. eigenvalues --    2.89535   2.92995   2.97908   3.00499   3.10130
 Alpha virt. eigenvalues --    3.13017   3.17962   3.30509   3.47525   3.52461
 Alpha virt. eigenvalues --    3.55293   3.60320   3.74221   3.75503   3.79366
 Alpha virt. eigenvalues --    3.82173   3.83149   3.87623   3.96202   4.10779
 Alpha virt. eigenvalues --    4.15454   4.46114
          Condensed to atoms (all electrons):
               1          2          3          4          5          6
     1  C    5.005432   0.106634   0.327436  -0.066965  -0.113459  -0.118499
     2  C    0.106634   5.460272  -0.187848  -0.007017  -0.169646  -0.003697
     3  H    0.327436  -0.187848   1.261241  -0.202005   0.036441   0.000681
     4  O   -0.066965  -0.007017  -0.202005   8.892389  -0.015913   0.287457
     5  C   -0.113459  -0.169646   0.036441  -0.015913   5.482185   0.029408
     6  H   -0.118499  -0.003697   0.000681   0.287457   0.029408   0.574019
     7  O   -0.062218   0.041234  -0.011853   0.005025   0.223399  -0.003017
     8  H    0.007734  -0.039670   0.051481  -0.078062  -0.168345   0.009898
     9  H   -0.001756   0.082961   0.000916   0.001280   0.167210   0.000525
    10  N    0.039471  -0.015227   0.001413  -0.066015  -0.021289  -0.128869
    11  H    0.003968  -0.007299   0.002529  -0.008614  -0.002364  -0.010017
    12  H    0.000778   0.000037  -0.000454  -0.003115   0.001300  -0.007378
    13  H    0.000783   0.000156  -0.000404  -0.003261   0.001287  -0.008211
               7          8          9         10         11         12
     1  C   -0.062218   0.007734  -0.001756   0.039471   0.003968   0.000778
     2  C    0.041234  -0.039670   0.082961  -0.015227  -0.007299   0.000037
     3  H   -0.011853   0.051481   0.000916   0.001413   0.002529  -0.000454
     4  O    0.005025  -0.078062   0.001280  -0.066015  -0.008614  -0.003115
     5  C    0.223399  -0.168345   0.167210  -0.021289  -0.002364   0.001300
     6  H   -0.003017   0.009898   0.000525  -0.128869  -0.010017  -0.007378
     7  O    8.591901   0.000523  -0.051566   0.000634   0.000073  -0.000041
     8  H    0.000523   1.863295  -0.076143  -0.013156   0.009765  -0.006565
     9  H   -0.051566  -0.076143   0.982292  -0.000675  -0.000286   0.000222
    10  N    0.000634  -0.013156  -0.000675   6.286719   0.422240   0.409332
    11  H    0.000073   0.009765  -0.000286   0.422240   0.692579  -0.065034
    12  H   -0.000041  -0.006565   0.000222   0.409332  -0.065034   0.678164
    13  H   -0.000037  -0.006526   0.000229   0.410132  -0.062606  -0.092194
              13
     1  C    0.000783
     2  C    0.000156
     3  H   -0.000404
     4  O   -0.003261
     5  C    0.001287
     6  H   -0.008211
     7  O   -0.000037
     8  H   -0.006526
     9  H    0.000229
    10  N    0.410132
    11  H   -0.062606
    12  H   -0.092194
    13  H    0.674955
 Mulliken charges:
               1
     1  C    0.870662
     2  C    0.739110
     3  H   -0.279577
     4  O   -0.735184
     5  C    0.549785
     6  H    0.377699
     7  O   -0.734058
     8  H   -0.554230
     9  H   -0.105208
    10  N   -0.324709
    11  H    0.025065
    12  H    0.084948
    13  H    0.085697
 Sum of Mulliken charges =  -0.00000
 Mulliken charges with hydrogens summed into heavy atoms:
               1
     1  C    0.591085
     2  C    0.184881
     4  O   -0.357485
     5  C    0.444576
     7  O   -0.734058
    10  N   -0.128999
 Electronic spatial extent (au):  <R**2>=            979.6013
 Charge=             -0.0000 electrons
 Dipole moment (field-independent basis, Debye):
    X=             -6.4019    Y=             -3.3045    Z=              0.0017  Tot=              7.2044
 Quadrupole moment (field-independent basis, Debye-Ang):
   XX=            -34.8690   YY=            -33.6712   ZZ=            -37.0297
   XY=              3.0957   XZ=             -0.0147   YZ=              0.0019
 Traceless Quadrupole moment (field-independent basis, Debye-Ang):
   XX=              0.3210   YY=              1.5188   ZZ=             -1.8397
   XY=              3.0957   XZ=             -0.0147   YZ=              0.0019
 Octapole moment (field-independent basis, Debye-Ang**2):
  XXX=           -116.1683  YYY=             -5.6238  ZZZ=              0.0603  XYY=              1.1127
  XXY=            -20.2787  XXZ=             -0.0200  XZZ=             -6.9516  YZZ=             -1.4126
  YYZ=             -0.0380  XYZ=              0.0129
 Hexadecapole moment (field-independent basis, Debye-Ang**3):
 XXXX=           -917.3232 YYYY=           -183.3966 ZZZZ=            -41.8108 XXXY=             14.4599
 XXXZ=              0.0495 YYYX=             19.3028 YYYZ=              0.1158 ZZZX=             -0.1799
 ZZZY=             -0.0512 XXYY=           -168.5414 XXZZ=           -155.3275 YYZZ=            -36.9622
 XXYZ=             -0.0646 YYXZ=              0.1174 ZZXY=              8.7506
 N-N= 2.186096822998D+02 E-N=-1.194227421038D+03  KE= 3.213076867741D+02
 Calling FoFJK, ICntrl=  10002127 FMM=F ISym2X=0 I1Cent= 0 IOpClX= 0 NMat=1 NMatS=1 NMatT=0.
 ***** Axes restored to original set *****
 -------------------------------------------------------------------
 Center     Atomic                   Forces (Hartrees/Bohr)
 Number     Number              X              Y              Z
 -------------------------------------------------------------------
      1        6           0.035006633    0.030480281    0.010508655
      2        6          -0.026421350   -0.020617150   -0.012819471
      3        1          -0.003524220   -0.005355185    0.003626626
      4        8          -0.008546765   -0.013633697    0.010139237
      5        6           0.013333994    0.015630265   -0.004233093
      6        1          -0.001098601    0.000822990   -0.004036849
      7        8          -0.005426026   -0.011256976    0.011769813
      8        1           0.002124922    0.005622778   -0.007101346
      9        1          -0.006539018   -0.004140555   -0.005154506
     10        7           0.005204832    0.009380711   -0.008241529
     11        1          -0.001580051   -0.001903860    0.000660459
     12        1          -0.001308878   -0.002501311    0.002465834
     13        1          -0.001225473   -0.002528291    0.002416169
 -------------------------------------------------------------------
 Cartesian Forces:  Max     0.035006633 RMS     0.011448534

 GradGradGradGradGradGradGradGradGradGradGradGradGradGradGradGradGradGrad
 Berny optimization.
 FormGI is forming the generalized inverse of G from B-inverse, IUseBI=4.
 Internal  Forces:  Max     0.031292802 RMS     0.006777558
 Search for a local minimum.
 Step number   1 out of a maximum of   53
 All quantities printed in internal units (Hartrees-Bohrs-Radians)
 Mixed Optimization -- RFO/linear search
 Second derivative matrix not updated -- first step.
 ITU=  0
     Eigenvalues ---    0.00230   0.00230   0.00230   0.01044   0.01044
     Eigenvalues ---    0.02049   0.02096   0.02707   0.02946   0.06700
     Eigenvalues ---    0.07003   0.10464   0.16000   0.16000   0.16000
     Eigenvalues ---    0.16000   0.16000   0.16000   0.16000   0.22000
     Eigenvalues ---    0.22000   0.22000   0.33394   0.34688   0.35416
     Eigenvalues ---    0.35880   0.43282   0.43623   0.43629   0.49774
     Eigenvalues ---    0.51085   0.58296   0.93774
 RFO step:  Lambda=-4.81947820D-03 EMin= 2.30000000D-03
 Linear search not attempted -- first point.
 Iteration  1 RMS(Cart)=  0.07445531 RMS(Int)=  0.00246546
 Iteration  2 RMS(Cart)=  0.00527425 RMS(Int)=  0.00037872
 Iteration  3 RMS(Cart)=  0.00000963 RMS(Int)=  0.00037869
 Iteration  4 RMS(Cart)=  0.00000001 RMS(Int)=  0.00037869
 Variable       Old X    -DE/DX   Delta X   Delta X   Delta X     New X
                                 (Linear)    (Quad)   (Total)
    R1        2.52314   0.03129   0.00000   0.05324   0.05324   2.57638
    R2        2.05005   0.00539   0.00000   0.01502   0.01502   2.06508
    R3        2.58786  -0.01366   0.00000  -0.02650  -0.02650   2.56136
    R4        2.79485  -0.00068   0.00000  -0.00193  -0.00193   2.79292
    R5        2.04269   0.00880   0.00000   0.02420   0.02420   2.06689
    R6        1.86786   0.00753   0.00000   0.01489   0.01488   1.88273
    R7        2.31241   0.01620   0.00000   0.01719   0.01719   2.32959
    R8        2.08365   0.00874   0.00000   0.02579   0.02579   2.10944
    R9        3.30774   0.00366   0.00000   0.05121   0.05122   3.35896
   R10        1.94023  -0.00212   0.00000  -0.00483  -0.00483   1.93539
   R11        1.93601  -0.00148   0.00000  -0.00336  -0.00336   1.93264
   R12        1.93608  -0.00150   0.00000  -0.00339  -0.00339   1.93269
    A1        2.16978  -0.00882   0.00000  -0.04757  -0.04757   2.12221
    A2        2.17511   0.00736   0.00000   0.03275   0.03275   2.20786
    A3        1.93829   0.00146   0.00000   0.01482   0.01482   1.95311
    A4        2.09651   0.00142   0.00000   0.00630   0.00630   2.10282
    A5        2.14291  -0.00380   0.00000  -0.02190  -0.02190   2.12101
    A6        2.04376   0.00238   0.00000   0.01560   0.01560   2.05936
    A7        1.91865  -0.00014   0.00000  -0.00086  -0.00086   1.91778
    A8        2.16556   0.00655   0.00000   0.02913   0.02913   2.19469
    A9        1.99442   0.00004   0.00000   0.00557   0.00557   1.99999
   A10        2.12320  -0.00659   0.00000  -0.03470  -0.03470   2.08851
   A11        1.72426  -0.00023   0.00000   0.00573   0.00645   1.73071
   A12        2.12373  -0.00295   0.00000  -0.02150  -0.02216   2.10157
   A13        2.11240  -0.00284   0.00000  -0.02092  -0.02160   2.09080
   A14        1.81294   0.00222   0.00000   0.01960   0.02025   1.83319
   A15        1.81298   0.00221   0.00000   0.01954   0.02015   1.83313
   A16        1.82306   0.00310   0.00000   0.01264   0.01153   1.83460
   A17        3.36549  -0.00026   0.00000  -0.11887  -0.11932   3.24617
   A18        3.14075   0.00001   0.00000   0.00017   0.00016   3.14091
    D1        0.00003  -0.00000   0.00000  -0.00005  -0.00004  -0.00002
    D2       -3.14153  -0.00000   0.00000  -0.00004  -0.00004  -3.14157
    D3       -3.14158   0.00000   0.00000   0.00000   0.00000  -3.14158
    D4        0.00005   0.00000   0.00000   0.00001   0.00001   0.00006
    D5        0.00035  -0.00001   0.00000  -0.00026  -0.00026   0.00009
    D6       -3.14126  -0.00001   0.00000  -0.00021  -0.00021  -3.14147
    D7        0.00033  -0.00000   0.00000  -0.00015  -0.00015   0.00018
    D8       -3.14128   0.00000   0.00000   0.00002   0.00002  -3.14126
    D9       -3.14130  -0.00000   0.00000  -0.00016  -0.00016  -3.14145
   D10        0.00028   0.00000   0.00000   0.00001   0.00001   0.00029
   D11       -3.12928   0.00000   0.00000  -0.00062  -0.00059  -3.12987
   D12       -1.21568   0.00167   0.00000   0.04814   0.04700  -1.16868
   D13        1.24463  -0.00168   0.00000  -0.04893  -0.04782   1.19681
         Item               Value     Threshold  Converged?
 Maximum Force            0.031293     0.000450     NO 
 RMS     Force            0.006778     0.000300     NO 
 Maximum Displacement     0.161906     0.001800     NO 
 RMS     Displacement     0.077489     0.001200     NO 
 Predicted change in Energy=-2.487189D-03
 GradGradGradGradGradGradGradGradGradGradGradGradGradGradGradGradGradGrad

                          Input orientation:                          
 ---------------------------------------------------------------------
 Center     Atomic      Atomic             Coordinates (Angstroms)
 Number     Number       Type             X           Y           Z
 ---------------------------------------------------------------------
      1          6           0       -0.862214    0.641967   -0.204066
      2          6           0       -1.711639    0.265002   -1.201630
      3          1           0       -0.873958    0.152990    0.773153
      4          8           0        0.071346    1.622564   -0.267650
      5          6           0       -2.682873   -0.827996   -0.986241
      6          1           0        0.055994    2.047054   -1.168862
      7          8           0       -2.819948   -1.475011    0.054095
      8          1           0       -1.698896    0.755181   -2.179305
      9          1           0       -3.329097   -1.055554   -1.867529
     10          7           0        0.164854    2.915206   -2.716087
     11          1           0        0.926726    3.560454   -2.487779
     12          1           0        0.473014    2.429478   -3.561690
     13          1           0       -0.607601    3.513341   -3.018632
 ---------------------------------------------------------------------
                    Distance matrix (angstroms):
                    1          2          3          4          5
     1  C    0.000000
     2  C    1.363363   0.000000
     3  H    1.092791   2.148028   0.000000
     4  O    1.355414   2.427824   2.033843   0.000000
     5  C    2.467263   1.477949   2.707392   3.755974   0.000000
     6  H    1.936029   2.510241   2.867702   0.996299   3.975004
     7  O    2.894989   2.415127   2.637102   4.249478   1.232768
     8  H    2.148122   1.093749   3.124127   2.746004   2.213156
     9  H    3.425522   2.191680   3.802826   4.614644   1.116269
    10  N    3.540161   3.583070   4.569876   2.770292   5.011335
    11  H    4.115000   4.413066   5.048460   3.068561   5.877271
    12  H    4.031337   3.876539   5.078149   3.415136   5.215717
    13  H    4.028821   3.882281   5.073514   3.406452   5.223464
                    6          7          8          9         10
     6  H    0.000000
     7  O    4.708673   0.000000
     8  H    2.401994   3.349416   0.000000
     9  H    4.644691   2.031703   2.456322   0.000000
    10  N    1.777483   5.988068   2.903001   5.356742   0.000000
    11  H    2.188172   6.771602   3.854686   6.309062   1.024166
    12  H    2.458817   6.257997   3.071067   5.428782   1.022711
    13  H    2.451939   6.262570   3.082668   5.441175   1.022734
                   11         12         13
    11  H    0.000000
    12  H    1.624267   0.000000
    13  H    1.624248   1.624007   0.000000
 Stoichiometry    C3H7NO2
 Framework group  C1[X(C3H7NO2)]
 Deg. of freedom    33
 Full point group                 C1      NOp   1
 Largest Abelian subgroup         C1      NOp   1
 Largest concise Abelian subgroup C1      NOp   1
                         Standard orientation:                         
 ---------------------------------------------------------------------
 Center     Atomic      Atomic             Coordinates (Angstroms)
 Number     Number       Type             X           Y           Z
 ---------------------------------------------------------------------
      1          6           0        0.137816    0.865311   -0.000100
      2          6           0        0.546373   -0.435397   -0.000431
      3          1           0        0.854296    1.690446    0.000378
      4          8           0       -1.143266    1.308005   -0.000263
      5          6           0        1.986182   -0.768987   -0.000174
      6          1           0       -1.769502    0.533124   -0.000584
      7          8           0        2.913611    0.043166    0.000520
      8          1           0       -0.171729   -1.260391   -0.000935
      9          1           0        2.209611   -1.862667   -0.000820
     10          7           0       -3.024962   -0.725155    0.000068
     11          1           0       -3.855854   -0.126499   -0.012018
     12          1           0       -3.134639   -1.347455   -0.804079
     13          1           0       -3.142433   -1.325398    0.819760
 ---------------------------------------------------------------------
 Rotational constants (GHZ):           7.6494872           1.3292650           1.1392588
 Standard basis: Aug-CC-pVDZ (5D, 7F)
 There are   213 symmetry adapted cartesian basis functions of A   symmetry.
 There are   201 symmetry adapted basis functions of A   symmetry.
   201 basis functions,   335 primitive gaussians,   213 cartesian basis functions
    24 alpha electrons       24 beta electrons
       nuclear repulsion energy       217.7026213064 Hartrees.
 NAtoms=   13 NActive=   13 NUniq=   13 SFac= 1.00D+00 NAtFMM=   60 NAOKFM=F Big=F
 Integral buffers will be    131072 words long.
 Raffenetti 1 integral format.
 Two-electron integral symmetry is turned on.
 One-electron integrals computed using PRISM.
 NBasis=   201 RedAO= T EigKep=  3.23D-05  NBF=   201
 NBsUse=   201 1.00D-06 EigRej= -1.00D+00 NBFU=   201
 Initial guess from the checkpoint file:  "/scr/Gau-48735.chk"
 B after Tr=    -0.000000   -0.000000    0.000000
         Rot=    0.999998   -0.000041   -0.000006   -0.002044 Ang=  -0.23 deg.
 ExpMin= 2.97D-02 ExpMax= 1.17D+04 ExpMxC= 4.01D+02 IAcc=3 IRadAn=         5 AccDes= 0.00D+00
 Harris functional with IExCor=  205 and IRadAn=       5 diagonalized for initial guess.
 HarFok:  IExCor=  205 AccDes= 0.00D+00 IRadAn=         5 IDoV= 1 UseB2=F ITyADJ=14
 ICtDFT=  3500011 ScaDFX=  1.000000  1.000000  1.000000  1.000000
 FoFCou: FMM=F IPFlag=           0 FMFlag=      100000 FMFlg1=           0
         NFxFlg=           0 DoJE=T BraDBF=F KetDBF=T FulRan=T
         wScrn=  0.000000 ICntrl=       500 IOpCl=  0 I1Cent=   200000004 NGrid=           0
         NMat0=    1 NMatS0=      1 NMatT0=    0 NMatD0=    1 NMtDS0=    0 NMtDT0=    0
 Petite list used in FoFCou.
 Requested convergence on RMS density matrix=1.00D-08 within 128 cycles.
 Requested convergence on MAX density matrix=1.00D-06.
 Requested convergence on             energy=1.00D-06.
 No special actions if energy rises.
 SCF Done:  E(RHF) =  -321.878031554     A.U. after   13 cycles
            NFock= 13  Conv=0.40D-08     -V/T= 2.0023
 ExpMin= 2.97D-02 ExpMax= 1.17D+04 ExpMxC= 4.01D+02 IAcc=3 IRadAn=         5 AccDes= 0.00D+00
 HarFok:  IExCor=  205 AccDes= 0.00D+00 IRadAn=         5 IDoV=-2 UseB2=F ITyADJ=14
 ICtDFT= 12500011 ScaDFX=  1.000000  1.000000  1.000000  1.000000
 Range of M.O.s used for correlation:     7   201
 NBasis=   201 NAE=    24 NBE=    24 NFC=     6 NFV=     0
 NROrb=    195 NOA=    18 NOB=    18 NVA=   177 NVB=   177

 **** Warning!!: The largest alpha MO coefficient is  0.43948228D+02

 Fully direct method using O(ONN) memory.
 JobTyp=1 Pass  1:  I=   7 to  24 NPSUse= 40 ParTrn=T ParDer=T DoDerP=T.
 Spin components of T(2) and E(2):
     alpha-alpha T2 =       0.4260237845D-01 E2=     -0.1295679351D+00
     alpha-beta  T2 =       0.2390865282D+00 E2=     -0.7481148394D+00
     beta-beta   T2 =       0.4260237845D-01 E2=     -0.1295679351D+00
 ANorm=    0.1150778556D+01
 E2 =    -0.1007250710D+01 EUMP2 =    -0.32288528226399D+03
          IDoAtm=1111111111111
          Differentiating once with respect to electric field.
                with respect to dipole field.
          Differentiating once with respect to nuclear coordinates.
 Keep R1 ints in memory in canonical form, NReq=215116244.
          There are     1 degrees of freedom in the 1st order CPHF.  IDoFFX=0 NUNeed=     1.
 LinEq1:  Iter=  0 NonCon=     1 RMS=4.70D-03 Max=1.21D-01 NDo=     1
 AX will form     1 AO Fock derivatives at one time.
 LinEq1:  Iter=  1 NonCon=     1 RMS=1.44D-03 Max=2.53D-02 NDo=     1
 LinEq1:  Iter=  2 NonCon=     1 RMS=5.50D-04 Max=1.14D-02 NDo=     1
 LinEq1:  Iter=  3 NonCon=     1 RMS=1.93D-04 Max=3.01D-03 NDo=     1
 LinEq1:  Iter=  4 NonCon=     1 RMS=6.80D-05 Max=1.04D-03 NDo=     1
 LinEq1:  Iter=  5 NonCon=     1 RMS=2.51D-05 Max=5.78D-04 NDo=     1
 LinEq1:  Iter=  6 NonCon=     1 RMS=1.02D-05 Max=3.24D-04 NDo=     1
 LinEq1:  Iter=  7 NonCon=     1 RMS=3.20D-06 Max=5.51D-05 NDo=     1
 LinEq1:  Iter=  8 NonCon=     1 RMS=1.19D-06 Max=2.88D-05 NDo=     1
 LinEq1:  Iter=  9 NonCon=     1 RMS=3.21D-07 Max=2.98D-06 NDo=     1
 LinEq1:  Iter= 10 NonCon=     1 RMS=6.95D-08 Max=8.50D-07 NDo=     1
 LinEq1:  Iter= 11 NonCon=     1 RMS=2.19D-08 Max=4.49D-07 NDo=     1
 LinEq1:  Iter= 12 NonCon=     1 RMS=5.98D-09 Max=9.03D-08 NDo=     1
 LinEq1:  Iter= 13 NonCon=     1 RMS=1.65D-09 Max=1.55D-08 NDo=     1
 LinEq1:  Iter= 14 NonCon=     1 RMS=4.22D-10 Max=4.13D-09 NDo=     1
 LinEq1:  Iter= 15 NonCon=     1 RMS=1.53D-10 Max=1.74D-09 NDo=     1
 LinEq1:  Iter= 16 NonCon=     0 RMS=3.32D-11 Max=3.38D-10 NDo=     1
 Linear equations converged to 1.000D-10 1.000D-09 after    16 iterations.
 End of Minotr F.D. properties file   721 does not exist.
 End of Minotr F.D. properties file   722 does not exist.
 End of Minotr F.D. properties file   788 does not exist.
 Calling FoFJK, ICntrl=  10002127 FMM=F ISym2X=0 I1Cent= 0 IOpClX= 0 NMat=1 NMatS=1 NMatT=0.
 ***** Axes restored to original set *****
 -------------------------------------------------------------------
 Center     Atomic                   Forces (Hartrees/Bohr)
 Number     Number              X              Y              Z
 -------------------------------------------------------------------
      1        6           0.008983096    0.009229428   -0.000176773
      2        6          -0.005303088   -0.005257323   -0.000261107
      3        1          -0.001851873   -0.001777238   -0.000222668
      4        8          -0.005351165   -0.005748784    0.000639712
      5        6           0.003814133    0.005107725   -0.002565681
      6        1          -0.002210664   -0.002212657   -0.000149357
      7        8          -0.000170268   -0.001414591    0.002558520
      8        1           0.000512101    0.000189329    0.000678458
      9        1          -0.000057251    0.000012547   -0.000125253
     10        7           0.003244515    0.005272271   -0.003873473
     11        1          -0.000797407   -0.000439606   -0.000726462
     12        1          -0.000145569   -0.001766596    0.001998760
     13        1          -0.000666559   -0.001194506    0.002225324
 -------------------------------------------------------------------
 Cartesian Forces:  Max     0.009229428 RMS     0.003303040

 GradGradGradGradGradGradGradGradGradGradGradGradGradGradGradGradGradGrad
 Berny optimization.
 Using GEDIIS/GDIIS optimizer.
 FormGI is forming the generalized inverse of G from B-inverse, IUseBI=4.
 Internal  Forces:  Max     0.008493392 RMS     0.001960994
 Search for a local minimum.
 Step number   2 out of a maximum of   53
 All quantities printed in internal units (Hartrees-Bohrs-Radians)
 Mixed Optimization -- RFO/linear search
 Update second derivatives using D2CorX and points    1    2
 DE= -2.71D-03 DEPred=-2.49D-03 R= 1.09D+00
 TightC=F SS=  1.41D+00  RLast= 1.88D-01 DXNew= 5.0454D-01 5.6354D-01
 Trust test= 1.09D+00 RLast= 1.88D-01 DXMaxT set to 5.05D-01
 ITU=  1  0
 Use linear search instead of GDIIS.
     Eigenvalues ---    0.00230   0.00230   0.00269   0.01044   0.01044
     Eigenvalues ---    0.02029   0.02096   0.02694   0.02946   0.06287
     Eigenvalues ---    0.07212   0.10424   0.13455   0.16000   0.16000
     Eigenvalues ---    0.16000   0.16000   0.16000   0.16336   0.21557
     Eigenvalues ---    0.22000   0.22532   0.32848   0.34443   0.35484
     Eigenvalues ---    0.36978   0.43079   0.43515   0.43626   0.46659
     Eigenvalues ---    0.50093   0.62748   0.92777
 RFO step:  Lambda=-1.89300685D-03 EMin= 2.29999256D-03
 Quartic linear search produced a step of  0.16675.
 Maximum step size (   0.505) exceeded in Quadratic search.
    -- Step size scaled by   0.986
 Iteration  1 RMS(Cart)=  0.17296385 RMS(Int)=  0.04421315
 Iteration  2 RMS(Cart)=  0.14216320 RMS(Int)=  0.01368704
 Iteration  3 RMS(Cart)=  0.05016548 RMS(Int)=  0.00095267
 Iteration  4 RMS(Cart)=  0.00191602 RMS(Int)=  0.00021588
 Iteration  5 RMS(Cart)=  0.00000041 RMS(Int)=  0.00021588
 Variable       Old X    -DE/DX   Delta X   Delta X   Delta X     New X
                                 (Linear)    (Quad)   (Total)
    R1        2.57638   0.00092   0.00888   0.01800   0.02688   2.60327
    R2        2.06508   0.00062   0.00251   0.00658   0.00909   2.07417
    R3        2.56136  -0.00849  -0.00442  -0.02750  -0.03191   2.52945
    R4        2.79292  -0.00512  -0.00032  -0.01782  -0.01814   2.77478
    R5        2.06689  -0.00052   0.00403   0.00565   0.00969   2.07657
    R6        1.88273   0.00035   0.00248   0.00529   0.00773   1.89046
    R7        2.32959   0.00292   0.00287   0.00887   0.01174   2.34133
    R8        2.10944   0.00013   0.00430   0.00826   0.01256   2.12201
    R9        3.35896   0.00133   0.00854   0.03810   0.04666   3.40562
   R10        1.93539  -0.00103  -0.00081  -0.00425  -0.00506   1.93033
   R11        1.93264  -0.00086  -0.00056  -0.00332  -0.00388   1.92877
   R12        1.93269  -0.00085  -0.00057  -0.00332  -0.00388   1.92881
    A1        2.12221  -0.00335  -0.00793  -0.03716  -0.04510   2.07712
    A2        2.20786   0.00154   0.00546   0.01806   0.02352   2.23138
    A3        1.95311   0.00181   0.00247   0.01911   0.02158   1.97469
    A4        2.10282  -0.00101   0.00105  -0.00344  -0.00238   2.10043
    A5        2.12101  -0.00022  -0.00365  -0.00919  -0.01284   2.10817
    A6        2.05936   0.00123   0.00260   0.01263   0.01523   2.07459
    A7        1.91778   0.00050  -0.00014   0.00335   0.00320   1.92099
    A8        2.19469  -0.00030   0.00486   0.00720   0.01206   2.20675
    A9        1.99999   0.00010   0.00093   0.00209   0.00302   2.00301
   A10        2.08851   0.00020  -0.00579  -0.00930  -0.01508   2.07342
   A11        1.73071   0.00200   0.00108   0.02393   0.02490   1.75561
   A12        2.10157  -0.00268  -0.00370  -0.03003  -0.03438   2.06719
   A13        2.09080  -0.00255  -0.00360  -0.02902  -0.03333   2.05747
   A14        1.83319   0.00084   0.00338   0.01874   0.02216   1.85535
   A15        1.83313   0.00084   0.00336   0.01868   0.02182   1.85495
   A16        1.83460   0.00247   0.00192   0.01392   0.01507   1.84967
   A17        3.24617   0.00236  -0.01990   0.49560   0.47554   3.72170
   A18        3.14091  -0.00000   0.00003  -0.00286  -0.00285   3.13806
    D1       -0.00002  -0.00000  -0.00001  -0.00003  -0.00004  -0.00006
    D2       -3.14157  -0.00000  -0.00001  -0.00003  -0.00004   3.14158
    D3       -3.14158  -0.00000   0.00000  -0.00002  -0.00002   3.14159
    D4        0.00006  -0.00000   0.00000  -0.00002  -0.00002   0.00005
    D5        0.00009  -0.00001  -0.00004  -0.00030  -0.00033  -0.00024
    D6       -3.14147  -0.00000  -0.00004  -0.00028  -0.00031   3.14141
    D7        0.00018   0.00000  -0.00002   0.00037   0.00035   0.00053
    D8       -3.14126  -0.00001   0.00000  -0.00059  -0.00058   3.14134
    D9       -3.14145   0.00000  -0.00003   0.00037   0.00035  -3.14111
   D10        0.00029  -0.00001   0.00000  -0.00058  -0.00058  -0.00030
   D11       -3.12987   0.00000  -0.00010  -0.00109  -0.00098  -3.13085
   D12       -1.16868   0.00098   0.00784  -0.07091  -0.06357  -1.23225
   D13        1.19681  -0.00099  -0.00797   0.06848   0.06080   1.25761
         Item               Value     Threshold  Converged?
 Maximum Force            0.008493     0.000450     NO 
 RMS     Force            0.001961     0.000300     NO 
 Maximum Displacement     0.666495     0.001800     NO 
 RMS     Displacement     0.357029     0.001200     NO 
 Predicted change in Energy=-1.300154D-03
 GradGradGradGradGradGradGradGradGradGradGradGradGradGradGradGradGradGrad

                          Input orientation:                          
 ---------------------------------------------------------------------
 Center     Atomic      Atomic             Coordinates (Angstroms)
 Number     Number       Type             X           Y           Z
 ---------------------------------------------------------------------
      1          6           0       -0.943733    0.626168   -0.341059
      2          6           0       -1.874286    0.103174   -1.211863
      3          1           0       -0.869318    0.209592    0.671688
      4          8           0       -0.075018    1.619217   -0.566538
      5          6           0       -2.751775   -0.995213   -0.788055
      6          1           0       -0.182083    1.963618   -1.499655
      7          8           0       -2.760416   -1.543347    0.323046
      8          1           0       -1.973825    0.498049   -2.232496
      9          1           0       -3.474434   -1.348933   -1.571375
     10          7           0        0.373946    3.142253   -2.744440
     11          1           0        1.112913    3.624316   -2.229675
     12          1           0        0.806056    2.782172   -3.596124
     13          1           0       -0.282321    3.863611   -3.045680
 ---------------------------------------------------------------------
                    Distance matrix (angstroms):
                    1          2          3          4          5
     1  C    0.000000
     2  C    1.377589   0.000000
     3  H    1.097601   2.137533   0.000000
     4  O    1.338526   2.439712   2.037439   0.000000
     5  C    2.469351   1.468351   2.669466   3.748245   0.000000
     6  H    1.926454   2.531329   2.874652   1.000391   3.983010
     7  O    2.906573   2.419133   2.602038   4.243175   1.238979
     8  H    2.157554   1.098875   3.120485   2.763675   2.218433
     9  H    3.437899   2.190511   3.774515   4.623380   1.122918
    10  N    3.720646   4.079135   4.670774   2.695267   5.542220
    11  H    4.097018   4.728397   4.899743   2.863150   6.193071
    12  H    4.278501   4.477273   5.257306   3.362611   5.900174
    13  H    4.270068   4.476396   5.245497   3.350586   5.899427
                    6          7          8          9         10
     6  H    0.000000
     7  O    4.718987   0.000000
     8  H    2.428021   3.364048   0.000000
     9  H    4.670943   2.033826   2.469869   0.000000
    10  N    1.802177   6.417830   3.572944   6.029665   0.000000
    11  H    2.228870   6.944336   4.393347   6.797817   1.021489
    12  H    2.457974   6.840303   3.847654   6.283967   1.020659
    13  H    2.451574   6.835529   3.853500   6.287589   1.020680
                   11         12         13
    11  H    0.000000
    12  H    1.634182   0.000000
    13  H    1.633953   1.630050   0.000000
 Stoichiometry    C3H7NO2
 Framework group  C1[X(C3H7NO2)]
 Deg. of freedom    33
 Full point group                 C1      NOp   1
 Largest Abelian subgroup         C1      NOp   1
 Largest concise Abelian subgroup C1      NOp   1
                         Standard orientation:                         
 ---------------------------------------------------------------------
 Center     Atomic      Atomic             Coordinates (Angstroms)
 Number     Number       Type             X           Y           Z
 ---------------------------------------------------------------------
      1          6           0        0.147080    0.713400   -0.000406
      2          6           0        0.714869   -0.541736   -0.001345
      3          1           0        0.802255    1.594009    0.001087
      4          8           0       -1.154420    1.026051   -0.001031
      5          6           0        2.175162   -0.695351   -0.000431
      6          1           0       -1.707623    0.192536   -0.002569
      7          8           0        3.011288    0.218956    0.001710
      8          1           0        0.086620   -1.443305   -0.002830
      9          1           0        2.536278   -1.758620   -0.001059
     10          7           0       -3.364191   -0.517120    0.000778
     11          1           0       -3.932117    0.331849   -0.011453
     12          1           0       -3.657828   -1.069916   -0.805409
     13          1           0       -3.655860   -1.044654    0.824444
 ---------------------------------------------------------------------
 Rotational constants (GHZ):          10.4931394           1.1460195           1.0388674
 Standard basis: Aug-CC-pVDZ (5D, 7F)
 There are   213 symmetry adapted cartesian basis functions of A   symmetry.
 There are   201 symmetry adapted basis functions of A   symmetry.
   201 basis functions,   335 primitive gaussians,   213 cartesian basis functions
    24 alpha electrons       24 beta electrons
       nuclear repulsion energy       215.1329935283 Hartrees.
 NAtoms=   13 NActive=   13 NUniq=   13 SFac= 1.00D+00 NAtFMM=   60 NAOKFM=F Big=F
 Integral buffers will be    131072 words long.
 Raffenetti 1 integral format.
 Two-electron integral symmetry is turned on.
 One-electron integrals computed using PRISM.
 NBasis=   201 RedAO= T EigKep=  3.78D-05  NBF=   201
 NBsUse=   201 1.00D-06 EigRej= -1.00D+00 NBFU=   201
 Initial guess from the checkpoint file:  "/scr/Gau-48735.chk"
 B after Tr=     0.000000    0.000000    0.000000
         Rot=    0.999999    0.000210    0.000011    0.001622 Ang=   0.19 deg.
 ExpMin= 2.97D-02 ExpMax= 1.17D+04 ExpMxC= 4.01D+02 IAcc=3 IRadAn=         5 AccDes= 0.00D+00
 Harris functional with IExCor=  205 and IRadAn=       5 diagonalized for initial guess.
 HarFok:  IExCor=  205 AccDes= 0.00D+00 IRadAn=         5 IDoV= 1 UseB2=F ITyADJ=14
 ICtDFT=  3500011 ScaDFX=  1.000000  1.000000  1.000000  1.000000
 FoFCou: FMM=F IPFlag=           0 FMFlag=      100000 FMFlg1=           0
         NFxFlg=           0 DoJE=T BraDBF=F KetDBF=T FulRan=T
         wScrn=  0.000000 ICntrl=       500 IOpCl=  0 I1Cent=   200000004 NGrid=           0
         NMat0=    1 NMatS0=      1 NMatT0=    0 NMatD0=    1 NMtDS0=    0 NMtDT0=    0
 Petite list used in FoFCou.
 Requested convergence on RMS density matrix=1.00D-08 within 128 cycles.
 Requested convergence on MAX density matrix=1.00D-06.
 Requested convergence on             energy=1.00D-06.
 No special actions if energy rises.
 SCF Done:  E(RHF) =  -321.875561631     A.U. after   14 cycles
            NFock= 14  Conv=0.54D-08     -V/T= 2.0024
 ExpMin= 2.97D-02 ExpMax= 1.17D+04 ExpMxC= 4.01D+02 IAcc=3 IRadAn=         5 AccDes= 0.00D+00
 HarFok:  IExCor=  205 AccDes= 0.00D+00 IRadAn=         5 IDoV=-2 UseB2=F ITyADJ=14
 ICtDFT= 12500011 ScaDFX=  1.000000  1.000000  1.000000  1.000000
 Range of M.O.s used for correlation:     7   201
 NBasis=   201 NAE=    24 NBE=    24 NFC=     6 NFV=     0
 NROrb=    195 NOA=    18 NOB=    18 NVA=   177 NVB=   177

 **** Warning!!: The largest alpha MO coefficient is  0.42514978D+02

 Fully direct method using O(ONN) memory.
 JobTyp=1 Pass  1:  I=   7 to  24 NPSUse= 40 ParTrn=T ParDer=T DoDerP=T.
 Spin components of T(2) and E(2):
     alpha-alpha T2 =       0.4271499803D-01 E2=     -0.1296696939D+00
     alpha-beta  T2 =       0.2396248633D+00 E2=     -0.7483931209D+00
     beta-beta   T2 =       0.4271499803D-01 E2=     -0.1296696939D+00
 ANorm=    0.1151110272D+01
 E2 =    -0.1007732509D+01 EUMP2 =    -0.32288329413975D+03
          IDoAtm=1111111111111
          Differentiating once with respect to electric field.
                with respect to dipole field.
          Differentiating once with respect to nuclear coordinates.
 Keep R1 ints in memory in canonical form, NReq=215107409.
          There are     1 degrees of freedom in the 1st order CPHF.  IDoFFX=0 NUNeed=     1.
 LinEq1:  Iter=  0 NonCon=     1 RMS=4.75D-03 Max=1.18D-01 NDo=     1
 AX will form     1 AO Fock derivatives at one time.
 LinEq1:  Iter=  1 NonCon=     1 RMS=1.46D-03 Max=2.51D-02 NDo=     1
 LinEq1:  Iter=  2 NonCon=     1 RMS=5.67D-04 Max=1.16D-02 NDo=     1
 LinEq1:  Iter=  3 NonCon=     1 RMS=2.05D-04 Max=3.32D-03 NDo=     1
 LinEq1:  Iter=  4 NonCon=     1 RMS=7.35D-05 Max=1.05D-03 NDo=     1
 LinEq1:  Iter=  5 NonCon=     1 RMS=2.74D-05 Max=6.86D-04 NDo=     1
 LinEq1:  Iter=  6 NonCon=     1 RMS=1.08D-05 Max=3.15D-04 NDo=     1
 LinEq1:  Iter=  7 NonCon=     1 RMS=3.38D-06 Max=5.49D-05 NDo=     1
 LinEq1:  Iter=  8 NonCon=     1 RMS=1.23D-06 Max=2.75D-05 NDo=     1
 LinEq1:  Iter=  9 NonCon=     1 RMS=3.34D-07 Max=3.36D-06 NDo=     1
 LinEq1:  Iter= 10 NonCon=     1 RMS=7.12D-08 Max=9.52D-07 NDo=     1
 LinEq1:  Iter= 11 NonCon=     1 RMS=2.23D-08 Max=4.21D-07 NDo=     1
 LinEq1:  Iter= 12 NonCon=     1 RMS=6.04D-09 Max=8.65D-08 NDo=     1
 LinEq1:  Iter= 13 NonCon=     1 RMS=1.63D-09 Max=1.23D-08 NDo=     1
 LinEq1:  Iter= 14 NonCon=     1 RMS=3.51D-10 Max=3.44D-09 NDo=     1
 LinEq1:  Iter= 15 NonCon=     1 RMS=9.97D-11 Max=1.40D-09 NDo=     1
 LinEq1:  Iter= 16 NonCon=     0 RMS=3.10D-11 Max=3.03D-10 NDo=     1
 Linear equations converged to 1.000D-10 1.000D-09 after    16 iterations.
 End of Minotr F.D. properties file   721 does not exist.
 End of Minotr F.D. properties file   722 does not exist.
 End of Minotr F.D. properties file   788 does not exist.
 Calling FoFJK, ICntrl=  10002127 FMM=F ISym2X=0 I1Cent= 0 IOpClX= 0 NMat=1 NMatS=1 NMatT=0.
 ***** Axes restored to original set *****
 -------------------------------------------------------------------
 Center     Atomic                   Forces (Hartrees/Bohr)
 Number     Number              X              Y              Z
 -------------------------------------------------------------------
      1        6          -0.009562355   -0.009899533    0.000351969
      2        6           0.009180626    0.007226102    0.004267021
      3        1          -0.000011127    0.000829683   -0.001722211
      4        8          -0.005186714   -0.002015875   -0.006819074
      5        6          -0.004448353   -0.004339515   -0.000094535
      6        1           0.007181205    0.004179307    0.006569792
      7        8           0.001882775    0.003532017   -0.003433682
      8        1          -0.000406054   -0.001634992    0.002499699
      9        1           0.002958864    0.001966350    0.002049051
     10        7          -0.001280623    0.000882178   -0.004429630
     11        1          -0.000434793   -0.000470952    0.000013749
     12        1           0.000255170   -0.000304439    0.000285392
     13        1          -0.000128621    0.000049668    0.000462460
 -------------------------------------------------------------------
 Cartesian Forces:  Max     0.009899533 RMS     0.004091447

 GradGradGradGradGradGradGradGradGradGradGradGradGradGradGradGradGradGrad
 Berny optimization.
 Using GEDIIS/GDIIS optimizer.
 FormGI is forming the generalized inverse of G from B-inverse, IUseBI=4.
 Internal  Forces:  Max     0.012097800 RMS     0.002997667
 Search for a local minimum.
 Step number   3 out of a maximum of   53
 All quantities printed in internal units (Hartrees-Bohrs-Radians)
 Mixed Optimization -- RFO/linear search
 Update second derivatives using D2CorX and points    1    3    2
 DE=  1.99D-03 DEPred=-1.30D-03 R=-1.53D+00
 Trust test=-1.53D+00 RLast= 4.97D-01 DXMaxT set to 2.52D-01
 ITU= -1  1  0
 Use linear search instead of GDIIS.
     Eigenvalues ---    0.00230   0.00230   0.01044   0.01044   0.01940
     Eigenvalues ---    0.02013   0.02095   0.02681   0.02946   0.05007
     Eigenvalues ---    0.07539   0.10710   0.11963   0.16000   0.16000
     Eigenvalues ---    0.16000   0.16000   0.16177   0.16253   0.21785
     Eigenvalues ---    0.22007   0.22709   0.32294   0.33957   0.35484
     Eigenvalues ---    0.36678   0.42794   0.43486   0.43626   0.45963
     Eigenvalues ---    0.49947   0.63477   0.93046
 RFO step:  Lambda=-9.09730015D-04 EMin= 2.29996759D-03
 Quartic linear search produced a step of -0.75312.
 Iteration  1 RMS(Cart)=  0.14295888 RMS(Int)=  0.03922180
 Iteration  2 RMS(Cart)=  0.14843638 RMS(Int)=  0.00976560
 Iteration  3 RMS(Cart)=  0.04069030 RMS(Int)=  0.00123900
 Iteration  4 RMS(Cart)=  0.00056029 RMS(Int)=  0.00118425
 Iteration  5 RMS(Cart)=  0.00000049 RMS(Int)=  0.00118425
 Variable       Old X    -DE/DX   Delta X   Delta X   Delta X     New X
                                 (Linear)    (Quad)   (Total)
    R1        2.60327  -0.01210  -0.02025   0.00502  -0.01523   2.58804
    R2        2.07417  -0.00190  -0.00685   0.00362  -0.00322   2.07094
    R3        2.52945   0.00264   0.02403  -0.02962  -0.00558   2.52387
    R4        2.77478  -0.00153   0.01366  -0.02539  -0.01173   2.76305
    R5        2.07657  -0.00287  -0.00730  -0.00090  -0.00819   2.06838
    R6        1.89046  -0.00175  -0.00582   0.00223  -0.00365   1.88681
    R7        2.34133  -0.00466  -0.00884   0.00633  -0.00251   2.33882
    R8        2.12201  -0.00395  -0.00946   0.00133  -0.00813   2.11388
    R9        3.40562   0.00211  -0.03514   0.04651   0.01140   3.41702
   R10        1.93033  -0.00053   0.00381  -0.00488  -0.00107   1.92926
   R11        1.92877  -0.00002   0.00292  -0.00370  -0.00078   1.92799
   R12        1.92881  -0.00002   0.00292  -0.00368  -0.00076   1.92805
    A1        2.07712   0.00230   0.03396  -0.03571  -0.00174   2.07537
    A2        2.23138  -0.00426  -0.01771   0.01113  -0.00659   2.22479
    A3        1.97469   0.00196  -0.01625   0.02458   0.00833   1.98302
    A4        2.10043  -0.00081   0.00180  -0.00747  -0.00567   2.09476
    A5        2.10817   0.00135   0.00967  -0.00470   0.00497   2.11314
    A6        2.07459  -0.00055  -0.01147   0.01217   0.00070   2.07529
    A7        1.92099   0.00321  -0.00241   0.00992   0.00751   1.92849
    A8        2.20675  -0.00310  -0.00908  -0.00165  -0.01074   2.19601
    A9        2.00301   0.00039  -0.00228   0.00129  -0.00099   2.00202
   A10        2.07342   0.00271   0.01136   0.00036   0.01172   2.08515
   A11        1.75561  -0.00133  -0.01876   0.02733   0.01139   1.76700
   A12        2.06719   0.00029   0.02589  -0.03546  -0.01059   2.05660
   A13        2.05747   0.00029   0.02510  -0.03423  -0.01025   2.04723
   A14        1.85535  -0.00059  -0.01669   0.01776   0.00374   1.85909
   A15        1.85495  -0.00055  -0.01643   0.01763   0.00365   1.85860
   A16        1.84967   0.00140  -0.01135   0.01937   0.00536   1.85503
   A17        3.72170  -0.01052  -0.35814  -0.08836  -0.44783   3.27388
   A18        3.13806   0.00007   0.00215   0.00185   0.00395   3.14202
    D1       -0.00006   0.00000   0.00003  -0.00001   0.00001  -0.00004
    D2        3.14158   0.00000   0.00003  -0.00000   0.00003  -3.14157
    D3        3.14159   0.00000   0.00001  -0.00000   0.00001  -3.14158
    D4        0.00005   0.00000   0.00001   0.00001   0.00002   0.00007
    D5       -0.00024   0.00000   0.00025  -0.00020   0.00005  -0.00019
    D6        3.14141   0.00001   0.00023  -0.00019   0.00004   3.14145
    D7        0.00053  -0.00003  -0.00026  -0.00012  -0.00038   0.00015
    D8        3.14134   0.00003   0.00044  -0.00017   0.00027  -3.14157
    D9       -3.14111  -0.00003  -0.00026  -0.00013  -0.00039  -3.14150
   D10       -0.00030   0.00003   0.00044  -0.00018   0.00026  -0.00004
   D11       -3.13085   0.00001   0.00074  -0.00135  -0.00045  -3.13130
   D12       -1.23225   0.00075   0.04787   0.05230   0.09635  -1.13590
   D13        1.25761  -0.00076  -0.04579  -0.05424  -0.09635   1.16125
         Item               Value     Threshold  Converged?
 Maximum Force            0.012098     0.000450     NO 
 RMS     Force            0.002998     0.000300     NO 
 Maximum Displacement     0.629060     0.001800     NO 
 RMS     Displacement     0.325650     0.001200     NO 
 Predicted change in Energy=-6.154689D-04
 GradGradGradGradGradGradGradGradGradGradGradGradGradGradGradGradGradGrad

                          Input orientation:                          
 ---------------------------------------------------------------------
 Center     Atomic      Atomic             Coordinates (Angstroms)
 Number     Number       Type             X           Y           Z
 ---------------------------------------------------------------------
      1          6           0       -0.872197    0.639671   -0.220228
      2          6           0       -1.734110    0.246443   -1.209215
      3          1           0       -0.908686    0.128511    0.748468
      4          8           0        0.047854    1.605880   -0.281084
      5          6           0       -2.682629   -0.838942   -0.964023
      6          1           0        0.041017    2.038943   -1.180711
      7          8           0       -2.799387   -1.474219    0.091707
      8          1           0       -1.728149    0.732397   -2.189944
      9          1           0       -3.343652   -1.087138   -1.831635
     10          7           0        0.205291    2.961371   -2.727242
     11          1           0        0.963644    3.604499   -2.495797
     12          1           0        0.502627    2.449288   -3.558066
     13          1           0       -0.585915    3.537972   -3.014453
 ---------------------------------------------------------------------
                    Distance matrix (angstroms):
                    1          2          3          4          5
     1  C    0.000000
     2  C    1.369531   0.000000
     3  H    1.095896   2.127852   0.000000
     4  O    1.335573   2.425879   2.039011   0.000000
     5  C    2.452996   1.462145   2.648672   3.728149   0.000000
     6  H    1.927291   2.522884   2.876355   0.998459   3.968303
     7  O    2.877481   2.405804   2.564143   4.211029   1.237649
     8  H    2.149658   1.094539   3.109737   2.749710   2.209756
     9  H    3.418565   2.180933   3.750172   4.599876   1.118616
    10  N    3.582791   3.665586   4.620238   2.801041   5.088360
    11  H    4.163980   4.495521   5.110124   3.120594   5.948597
    12  H    4.038071   3.920794   5.091566   3.414201   5.261879
    13  H    4.036063   3.925736   5.088043   3.406751   5.268572
                    6          7          8          9         10
     6  H    0.000000
     7  O    4.693533   0.000000
     8  H    2.419827   3.350021   0.000000
     9  H    4.653178   2.036001   2.459460   0.000000
    10  N    1.808208   6.053844   2.999201   5.457796   0.000000
    11  H    2.243136   6.830005   3.948198   6.403543   1.020921
    12  H    2.456274   6.294287   3.129830   5.502793   1.020248
    13  H    2.450049   6.298393   3.139390   5.513240   1.020278
                   11         12         13
    11  H    0.000000
    12  H    1.635685   0.000000
    13  H    1.635409   1.632689   0.000000
 Stoichiometry    C3H7NO2
 Framework group  C1[X(C3H7NO2)]
 Deg. of freedom    33
 Full point group                 C1      NOp   1
 Largest Abelian subgroup         C1      NOp   1
 Largest concise Abelian subgroup C1      NOp   1
                         Standard orientation:                         
 ---------------------------------------------------------------------
 Center     Atomic      Atomic             Coordinates (Angstroms)
 Number     Number       Type             X           Y           Z
 ---------------------------------------------------------------------
      1          6           0        0.146323    0.842759   -0.000054
      2          6           0        0.566690   -0.460663    0.000191
      3          1           0        0.896723    1.641439   -0.000334
      4          8           0       -1.111894    1.290692    0.000057
      5          6           0        1.996106   -0.768295    0.000025
      6          1           0       -1.754899    0.526844    0.000180
      7          8           0        2.915396    0.060368   -0.000175
      8          1           0       -0.152130   -1.286080    0.000456
      9          1           0        2.239397   -1.860134    0.000229
     10          7           0       -3.091664   -0.690808   -0.000390
     11          1           0       -3.913062   -0.084607   -0.010635
     12          1           0       -3.175173   -1.306161   -0.809879
     13          1           0       -3.181934   -1.286937    0.822682
 ---------------------------------------------------------------------
 Rotational constants (GHZ):           7.8734080           1.3065018           1.1272728
 Standard basis: Aug-CC-pVDZ (5D, 7F)
 There are   213 symmetry adapted cartesian basis functions of A   symmetry.
 There are   201 symmetry adapted basis functions of A   symmetry.
   201 basis functions,   335 primitive gaussians,   213 cartesian basis functions
    24 alpha electrons       24 beta electrons
       nuclear repulsion energy       217.6687056574 Hartrees.
 NAtoms=   13 NActive=   13 NUniq=   13 SFac= 1.00D+00 NAtFMM=   60 NAOKFM=F Big=F
 Integral buffers will be    131072 words long.
 Raffenetti 1 integral format.
 Two-electron integral symmetry is turned on.
 One-electron integrals computed using PRISM.
 NBasis=   201 RedAO= T EigKep=  3.31D-05  NBF=   201
 NBsUse=   201 1.00D-06 EigRej= -1.00D+00 NBFU=   201
 Lowest energy guess from the checkpoint file:  "/scr/Gau-48735.chk"
 B after Tr=    -0.000000   -0.000000    0.000000
         Rot=    0.999996   -0.000056   -0.000004    0.002829 Ang=  -0.32 deg.
 B after Tr=    -0.000000   -0.000000   -0.000000
         Rot=    1.000000   -0.000218   -0.000005    0.000910 Ang=  -0.11 deg.
 Requested convergence on RMS density matrix=1.00D-08 within 128 cycles.
 Requested convergence on MAX density matrix=1.00D-06.
 Requested convergence on             energy=1.00D-06.
 No special actions if energy rises.
 SCF Done:  E(RHF) =  -321.879378775     A.U. after   12 cycles
            NFock= 12  Conv=0.61D-08     -V/T= 2.0022
 ExpMin= 2.97D-02 ExpMax= 1.17D+04 ExpMxC= 4.01D+02 IAcc=3 IRadAn=         5 AccDes= 0.00D+00
 HarFok:  IExCor=  205 AccDes= 0.00D+00 IRadAn=         5 IDoV=-2 UseB2=F ITyADJ=14
 ICtDFT= 12500011 ScaDFX=  1.000000  1.000000  1.000000  1.000000
 Range of M.O.s used for correlation:     7   201
 NBasis=   201 NAE=    24 NBE=    24 NFC=     6 NFV=     0
 NROrb=    195 NOA=    18 NOB=    18 NVA=   177 NVB=   177

 **** Warning!!: The largest alpha MO coefficient is  0.44569934D+02

 Fully direct method using O(ONN) memory.
 JobTyp=1 Pass  1:  I=   7 to  24 NPSUse= 40 ParTrn=T ParDer=T DoDerP=T.
 Spin components of T(2) and E(2):
     alpha-alpha T2 =       0.4256348452D-01 E2=     -0.1295750254D+00
     alpha-beta  T2 =       0.2384611163D+00 E2=     -0.7472975546D+00
     beta-beta   T2 =       0.4256348452D-01 E2=     -0.1295750254D+00
 ANorm=    0.1150472983D+01
 E2 =    -0.1006447605D+01 EUMP2 =    -0.32288582638064D+03
          IDoAtm=1111111111111
          Differentiating once with respect to electric field.
                with respect to dipole field.
          Differentiating once with respect to nuclear coordinates.
 Keep R1 ints in memory in canonical form, NReq=215115294.
          There are     1 degrees of freedom in the 1st order CPHF.  IDoFFX=0 NUNeed=     1.
 LinEq1:  Iter=  0 NonCon=     1 RMS=4.72D-03 Max=1.19D-01 NDo=     1
 AX will form     1 AO Fock derivatives at one time.
 LinEq1:  Iter=  1 NonCon=     1 RMS=1.44D-03 Max=2.64D-02 NDo=     1
 LinEq1:  Iter=  2 NonCon=     1 RMS=5.59D-04 Max=1.17D-02 NDo=     1
 LinEq1:  Iter=  3 NonCon=     1 RMS=1.99D-04 Max=3.05D-03 NDo=     1
 LinEq1:  Iter=  4 NonCon=     1 RMS=7.14D-05 Max=1.02D-03 NDo=     1
 LinEq1:  Iter=  5 NonCon=     1 RMS=2.64D-05 Max=6.48D-04 NDo=     1
 LinEq1:  Iter=  6 NonCon=     1 RMS=1.05D-05 Max=3.11D-04 NDo=     1
 LinEq1:  Iter=  7 NonCon=     1 RMS=3.27D-06 Max=5.85D-05 NDo=     1
 LinEq1:  Iter=  8 NonCon=     1 RMS=1.19D-06 Max=2.75D-05 NDo=     1
 LinEq1:  Iter=  9 NonCon=     1 RMS=3.24D-07 Max=3.24D-06 NDo=     1
 LinEq1:  Iter= 10 NonCon=     1 RMS=7.07D-08 Max=9.76D-07 NDo=     1
 LinEq1:  Iter= 11 NonCon=     1 RMS=2.23D-08 Max=4.65D-07 NDo=     1
 LinEq1:  Iter= 12 NonCon=     1 RMS=6.12D-09 Max=8.83D-08 NDo=     1
 LinEq1:  Iter= 13 NonCon=     1 RMS=1.68D-09 Max=1.51D-08 NDo=     1
 LinEq1:  Iter= 14 NonCon=     1 RMS=4.20D-10 Max=4.51D-09 NDo=     1
 LinEq1:  Iter= 15 NonCon=     1 RMS=1.51D-10 Max=1.74D-09 NDo=     1
 LinEq1:  Iter= 16 NonCon=     0 RMS=3.23D-11 Max=2.98D-10 NDo=     1
 Linear equations converged to 1.000D-10 1.000D-09 after    16 iterations.
 End of Minotr F.D. properties file   721 does not exist.
 End of Minotr F.D. properties file   722 does not exist.
 End of Minotr F.D. properties file   788 does not exist.
 Calling FoFJK, ICntrl=  10002127 FMM=F ISym2X=0 I1Cent= 0 IOpClX= 0 NMat=1 NMatS=1 NMatT=0.
 ***** Axes restored to original set *****
 -------------------------------------------------------------------
 Center     Atomic                   Forces (Hartrees/Bohr)
 Number     Number              X              Y              Z
 -------------------------------------------------------------------
      1        6          -0.005828030   -0.005579997   -0.000704065
      2        6           0.005026307    0.004795058    0.000638565
      3        1           0.000959026    0.001144047   -0.000347278
      4        8           0.003295072    0.004309690   -0.001898891
      5        6          -0.003463272   -0.003717505    0.000441836
      6        1          -0.001176531   -0.001650281    0.000758888
      7        8           0.000182674    0.000956423   -0.001592861
      8        1          -0.000415994   -0.000634079    0.000431379
      9        1           0.000654027    0.000089591    0.001162170
     10        7           0.000452848   -0.000018919    0.001272716
     11        1          -0.000049496    0.000673075   -0.001544541
     12        1           0.000553780   -0.000560015    0.000531852
     13        1          -0.000190413    0.000192910    0.000850231
 -------------------------------------------------------------------
 Cartesian Forces:  Max     0.005828030 RMS     0.002223071

 GradGradGradGradGradGradGradGradGradGradGradGradGradGradGradGradGradGrad
 Berny optimization.
 Using GEDIIS/GDIIS optimizer.
 FormGI is forming the generalized inverse of G from B-inverse, IUseBI=4.
 Internal  Forces:  Max     0.004120546 RMS     0.001243222
 Search for a local minimum.
 Step number   4 out of a maximum of   53
 All quantities printed in internal units (Hartrees-Bohrs-Radians)
 Mixed Optimization -- RFO/linear search
 Update second derivatives using D2CorX and points    1    3    2    4
 DE= -5.44D-04 DEPred=-6.15D-04 R= 8.84D-01
 TightC=F SS=  1.41D+00  RLast= 1.41D-01 DXNew= 4.2426D-01 4.2444D-01
 Trust test= 8.84D-01 RLast= 1.41D-01 DXMaxT set to 4.24D-01
 ITU=  1 -1  1  0
 Use linear search instead of GDIIS.
     Eigenvalues ---    0.00230   0.00230   0.01044   0.01044   0.02003
     Eigenvalues ---    0.02016   0.02096   0.02680   0.02946   0.05228
     Eigenvalues ---    0.07764   0.10435   0.11886   0.16000   0.16000
     Eigenvalues ---    0.16000   0.16062   0.16175   0.17478   0.22003
     Eigenvalues ---    0.22135   0.22573   0.33698   0.35459   0.36241
     Eigenvalues ---    0.36278   0.43011   0.43511   0.43626   0.49065
     Eigenvalues ---    0.51348   0.60937   0.93372
 RFO step:  Lambda=-1.18661512D-04 EMin= 2.29987668D-03
 Quartic linear search produced a step of -0.18737.
 Iteration  1 RMS(Cart)=  0.00790206 RMS(Int)=  0.00008614
 Iteration  2 RMS(Cart)=  0.00004506 RMS(Int)=  0.00008001
 Iteration  3 RMS(Cart)=  0.00000000 RMS(Int)=  0.00008001
 Variable       Old X    -DE/DX   Delta X   Delta X   Delta X     New X
                                 (Linear)    (Quad)   (Total)
    R1        2.58804  -0.00246  -0.00218  -0.00161  -0.00379   2.58425
    R2        2.07094  -0.00087  -0.00110  -0.00102  -0.00212   2.06882
    R3        2.52387   0.00412   0.00703   0.00082   0.00785   2.53172
    R4        2.76305   0.00369   0.00560   0.00369   0.00928   2.77234
    R5        2.06838  -0.00067  -0.00028  -0.00117  -0.00145   2.06693
    R6        1.88681  -0.00227  -0.00076  -0.00275  -0.00352   1.88330
    R7        2.33882  -0.00187  -0.00173  -0.00022  -0.00195   2.33687
    R8        2.11388  -0.00131  -0.00083  -0.00234  -0.00317   2.11071
    R9        3.41702  -0.00074  -0.01088   0.00130  -0.00958   3.40743
   R10        1.92926   0.00004   0.00115  -0.00082   0.00033   1.92959
   R11        1.92799   0.00001   0.00087  -0.00063   0.00024   1.92823
   R12        1.92805   0.00002   0.00087  -0.00062   0.00025   1.92830
    A1        2.07537   0.00187   0.00878   0.00133   0.01011   2.08548
    A2        2.22479  -0.00113  -0.00317  -0.00162  -0.00479   2.22000
    A3        1.98302  -0.00074  -0.00560   0.00028  -0.00532   1.97770
    A4        2.09476   0.00043   0.00151   0.00030   0.00181   2.09657
    A5        2.11314   0.00036   0.00148   0.00084   0.00232   2.11546
    A6        2.07529  -0.00079  -0.00299  -0.00115  -0.00413   2.07116
    A7        1.92849  -0.00081  -0.00201  -0.00186  -0.00386   1.92463
    A8        2.19601  -0.00020  -0.00025  -0.00055  -0.00080   2.19521
    A9        2.00202   0.00039  -0.00038   0.00200   0.00162   2.00365
   A10        2.08515  -0.00019   0.00063  -0.00145  -0.00082   2.08433
   A11        1.76700   0.00247  -0.00680   0.01670   0.00986   1.77686
   A12        2.05660  -0.00108   0.00843  -0.01159  -0.00296   2.05364
   A13        2.04723  -0.00096   0.00817  -0.01081  -0.00243   2.04480
   A14        1.85909  -0.00072  -0.00485   0.00073  -0.00416   1.85492
   A15        1.85860  -0.00069  -0.00477   0.00100  -0.00379   1.85481
   A16        1.85503   0.00100  -0.00383   0.00664   0.00311   1.85814
   A17        3.27388   0.00043  -0.00519   0.01265   0.00753   3.28140
   A18        3.14202  -0.00004  -0.00021  -0.01060  -0.01080   3.13122
    D1       -0.00004   0.00000   0.00000   0.00002   0.00003  -0.00002
[...]
 65,-0.00002110,0.00005606,-1.04140653,0.74824482,-0.39252494,-0.014231
 36,0.01869513,-0.00578085,0.00060917,0.00087401,-0.00809997,1.05430351
 ,0.00032103,0.00028340,0.00008787,-0.00002781,-0.00017463,-0.00015585,
 -0.00000962,-0.00003522,-0.00000987,-0.00022918,-0.00027680,0.00025005
 ,0.00007514,0.00014917,0.00000148,-0.00014301,0.00049597,-0.00068680,-
 0.00005168,-0.00006075,0.00005372,0.00005222,0.00012893,0.00000230,-0.
 00000565,-0.00002240,-0.00001889,0.77010457,-0.14371332,0.21499425,-0.
 02757450,0.01822872,-0.00725603,0.02403533,-0.00065253,0.00580406,-0.7
 6654685,0.12564946,-0.00006379,-0.00005637,0.00002144,-0.00004135,0.00
 002689,-0.00007866,-0.00001955,0.00000457,0.00001370,0.00023776,0.0000
 4554,-0.00013065,0.00001564,-0.00000755,0.00002628,-0.00056930,0.00003
 331,0.00021990,0.00000691,-0.00000017,0.00000269,0.00003228,-0.0000172
 0,0.00006039,-0.00000232,0.00000200,0.00000743,-0.42759962,0.22804367,
 0.17640909,-0.00401395,0.00230376,0.01106340,0.02676594,-0.01731214,0.
 01493468,0.40525134,-0.21306629,-0.20254968,0.00028983,0.00001277,0.00
 056361,-0.00030113,0.00004515,-0.00006345,0.00014599,-0.00025389,0.000
 07284,-0.00039736,-0.00019040,0.00000874,0.00018101,0.00013200,-0.0004
 6201,-0.00008876,-0.00000862,-0.00003727,0.00009048,-0.00007832,-0.000
 07930,-0.00012020,-0.00005214,0.00010062,-0.00001382,0.00001952,0.0000
 0665,0.00009596,-0.00005480,-0.00015811,0.00001453,0.00006511,-0.00000
 837,-0.00000592,0.00004402,0.00014486,0.00002234,-0.00002266,-0.000003
 04,0.00004534,-0.00001083,0.00003271,-0.00006308,-0.00001363,-0.000003
 08,-0.00007990,0.00000925,0.00019054,0.00003126,0.00003673,-0.00000558
 ,0.00002109,0.00002354,-0.00002786,0.00022761,-0.00000598,-0.00032698,
 0.00011092,0.00003961,0.00007026,0.00003452,0.00000429,0.00004246,-0.0
 0000991,-0.00015543,0.00063755,0.00021053,0.00015540,-0.00008574,-0.00
 006043,-0.00006603,-0.00001460,-0.00001074,0.00000746,-0.00001520,-0.0
 0030274,-0.00038477,0.00077642,-0.00005664,0.00012095,0.00002323,-0.00
 003702,-0.00015684,-0.00013395,0.00001525,-0.00003606,-0.00000366,-0.0
 0000994,-0.00001733,0.00000660,0.00018318,0.00006407,-0.00008417,-0.00
 010947,-0.00003193,0.00029368,0.00005557,0.00000147,-0.00000413,0.0000
 0507,-0.00001009,0.00000651,0.00001012,0.00009898,-0.00082599,0.000127
 44,0.00000874,0.00013847,-0.00025904,-0.00019579,-0.00001370,-0.000016
 53,0.00000571,0.00000607,0.00000500,-0.00000880,-0.00001988,0.00033329
 ,0.00063014,-0.00097776,-0.00011704,0.00018489,-0.00013449,-0.00006169
 ,0.00011835,0.00024751,-0.00002157,-0.00001819,0.00001733,-0.00031531,
 0.00035624,-0.00003726,0.00001590,-0.00004092,-0.00006919,0.00066349,0
 .00005254,-0.00000510,-0.00034947,0.00025312,-0.00008376,0.00008922,0.
 00000238,-0.00002607,0.00002930,0.00034370,-0.00030345,0.00000084,-0.0
 0007119,0.00002987,-0.00001169,-0.00122807,0.00014599,0.00017117,-0.00
 004609,0.00020819,-0.00004655,-0.00019722,0.00002051,-0.00002559,-0.00
 001078,-0.00003213,-0.00002988,0.00001405,-0.00078938,-0.00000670,0.00
 006627,-0.00003826,0.00017644,0.00077824,0.00064945,0.00000299,0.00000
 829,-0.00002965,0.00004363,-0.00000219,0.00008671,-0.00001866,-0.00000
 834,0.00000757,-0.00000287,0.00002688,-0.00000012,-0.00002963,-0.00009
 238,-0.00011485,0.00002597,-0.00000720,-0.00001694,-0.00003526,0.00002
 099,0.00000841,0.00001791,-0.00011242,-0.00018341,0.00002299,-0.000003
 95,-0.00001530,-0.00000133,0.00000360,-0.00000107,-0.00001335,0.000001
 73,0.00050218,-0.00038291,-0.00000811,0.00003671,-0.00000862,0.0000577
 2,-0.00030004,-0.00003512,-0.00000789,-0.00007964,0.00024066,0.0002854
 0,-0.00008736,0.00000272,-0.00002570,0.00000446,0.00000632,0.00000118,
 0.00001589,-0.00022289,-0.00052504,0.00074261,-0.00001964,-0.00000147,
 0.00001763,0.00006287,0.00025485,-0.00051713,-0.00013237,0.00004620,0.
 00003273,0.00023659,-0.00000021,-0.00017837,0.00001402,0.00000348,0.00
 001550,0.00004644,0.00001435,-0.00000123,0.00001911,0.00005159,0.00001
 433,0.00008121,-0.00014995,-0.00003148,-0.00001432,0.00000908,-0.00000
 205,-0.00017559,0.00004245,-0.00013844,-0.00002423,-0.00007717,0.00030
 666,-0.00015692,0.00001492,0.00000463,0.00001564,0.00001473,0.00005047
 ,0.00000896,0.00008709,0.00000578,-0.00000106,-0.00012391,0.00007133,0
 .00008733,-0.00002198,-0.00001695,0.00000894,-0.00002485,-0.00023115,0
 .00007947,0.00000840,-0.00006743,-0.00005115,0.00001255,0.00019837,-0.
 00000497,-0.00000232,-0.00000072,-0.00002383,-0.00001462,0.00002260,-0
 .00000357,-0.00003390,-0.00001769,-0.00008389,0.00003644,-0.00001099,0
 .00002227,0.00002576,-0.00001553,0.00008333,0.00008419,-0.00014567,-0.
 00002578,-0.00002460,-0.00000210,0.00001101,0.00007806,0.00000779,0.00
 001991,-0.00001170,-0.00000858,0.00001934,-0.00000450,-0.00001819,-0.0
 0009325,-0.00006831,-0.00001917,-0.00003171,0.00003968,0.00002500,0.00
 003509,0.00003933,-0.00004502,0.00000427,0.00000261,-0.00000661,0.0000
 5090,-0.00001108,0.00000011,-0.00001610,0.00005382,0.00004135,0.000038
 28,-0.00001621,0.00001727,0.00000712,-0.00001567,0.00000217,0.00000378
 ,-0.00005828,0.00006117,-0.00001747,0.00004189,-0.00003235,-0.00001285
 ,0.00004351,-0.00001060,-0.00001183,0.00000280,0.00001181,-0.00000994,
 -0.00003367,-0.00010075,0.00001029,-0.00001282,0.00002534,-0.00006602,
 -0.00000223,-0.00001699,0.00000311,0.00001751,0.00000532,-0.00000386,0
 .00000923,-0.00000305,0.00001679,-0.00005977,0.00015611,0.00001897,-0.
 00001413,-0.00001172,-0.00002056,0.00007133,-0.00005795,-0.00000593,-0
 .00000587,0.00000480,0.00006501,0.00000175,-0.00010023,-0.00084441,-0.
 00082443,-0.00031355,0.00007305,0.00016946,-0.00016718,0.00009359,0.00
 008001,0.00002713,0.00151275,0.00051242,0.00061382,-0.00006943,-0.0001
 2778,0.00010098,-0.00349685,-0.00086610,0.00095753,-0.00000742,-0.0000
 1599,0.00004208,0.00008274,0.00024466,0.00024294,0.00006041,0.00002987
 ,0.00000016,1.85622616,-0.00047169,-0.00039007,0.00003996,0.00002480,0
 .00008685,-0.00013960,0.00003192,0.00003298,0.00000588,0.00028948,0.00
 073722,0.00050488,-0.00002127,-0.00003081,0.00002278,0.00000486,-0.002
 90639,-0.00022962,-0.00000506,-0.00005033,0.00007050,0.00023833,-0.000
 07074,0.00006165,0.00001053,0.00003165,0.00002218,1.50631570,1.6221191
 9,-0.00105451,-0.00071580,-0.00061579,0.00016367,0.00016440,-0.0000296
 2,0.00012244,0.00010105,0.00004578,0.00108595,0.00096570,0.00100615,-0
 .00014098,-0.00022513,0.00016373,-0.00084747,-0.00213860,-0.00047284,0
 .00002934,0.00006595,-0.00008057,0.00022542,0.00006512,0.00007686,0.00
 003722,0.00005812,-0.00000686,0.10852020,0.39561757,-0.43508060,0.0007
 7149,0.00066409,0.00025882,0.00006182,-0.00024244,0.00000892,-0.000083
 75,-0.00005072,-0.00002463,-0.00077725,-0.00064279,-0.00051104,0.00000
 166,0.00007248,-0.00006444,0.00167278,0.00171485,-0.00046948,0.0000182
 0,0.00005330,-0.00005834,-0.00009257,0.00003238,-0.00015541,-0.0000109
 9,-0.00001397,-0.00002515,-1.39729109,-2.09528796,-0.11622756,1.386929
 83,0.00070417,0.00064927,0.00014019,-0.00027607,-0.00001820,0.00006906
 ,-0.00004798,-0.00006208,-0.00002206,-0.00071580,-0.00067579,0.0001198
 1,0.00004375,0.00003193,-0.00004945,0.00115053,0.00177433,-0.00086746,
 0.00001916,0.00004667,-0.00006769,-0.00000555,0.00001219,-0.00014151,-
 0.00002762,0.00000101,-0.00002927,-2.10199927,-1.36151640,-0.12319623,
 2.07577750,1.35097422,0.00019619,0.00007413,0.00025798,0.00005807,0.00
 012598,0.00015675,-0.00002999,-0.00002781,-0.00002865,-0.00040759,0.00
 022440,-0.00119819,0.00000183,0.00001893,-0.00006873,0.00076701,0.0004
 1428,0.00094580,0.00000839,-0.00000181,0.00001362,-0.00006098,-0.00004
 780,-0.00008622,0.00000227,-0.00000008,0.00001983,-0.10239021,-0.10911
 202,0.72760667,0.10780271,0.11807808,-0.72022220,0.00007604,0.00004133
 ,0.00002719,-0.00016049,0.00002084,-0.00004953,0.00002404,-0.00001919,
 -0.00000280,-0.00028818,0.00013169,0.00000759,0.00011439,0.00009662,0.
 00000309,0.00064245,-0.00012853,-0.00070405,-0.00004407,-0.00007603,0.
 00005518,0.00009961,-0.00004681,0.00004817,-0.00001349,-0.00000280,-0.
 00000895,0.07577222,0.15183334,0.20531379,0.00532247,0.00675486,-0.001
 75756,-0.08258385,-0.00005405,-0.00006983,-0.00001076,0.00014881,0.000
 02637,0.00017754,-0.00000437,-0.00000132,-0.00000190,-0.00005716,-0.00
 020708,-0.00009670,-0.00006210,-0.00006737,-0.00003086,0.00000613,0.00
 063716,0.00053602,0.00002366,0.00004837,-0.00003111,-0.00019915,-0.000
 07361,-0.00011737,-0.00000169,-0.00002356,0.00001149,0.14814881,-0.148
 33923,-0.39795801,0.01273872,0.00582965,-0.00854600,-0.16657028,0.1410
 5044,0.00033419,0.00027043,0.00017614,-0.00006093,-0.00009172,-0.00000
 310,-0.00004019,-0.00004414,-0.00001291,-0.00033389,-0.00050889,0.0002
 1691,0.00002883,0.00005513,-0.00004721,0.00016321,0.00052130,-0.000142
 67,-0.00000086,-0.00000052,0.00000234,-0.00006818,-0.00007633,-0.00004
 316,-0.00002282,-0.00002295,-0.00000119,0.20998830,-0.42203733,-0.4052
 1439,0.00770531,0.00240985,-0.00598512,-0.21381337,0.41664999,0.404741
 13,0.00009001,0.00006738,0.00007486,0.00006700,0.00001703,0.00017535,-
 0.00002585,-0.00001716,-0.00000460,-0.00038504,-0.00025944,0.00010324,
 -0.00005358,-0.00001379,-0.00004087,0.00094236,0.00004476,0.00000051,0
 .00002637,0.00003073,-0.00002677,-0.00016913,-0.00014413,-0.00014673,-
 0.00002570,-0.00002022,0.00001615,-0.53211173,0.43703702,-0.19722751,0
 .00347739,0.01862233,-0.00419014,0.00103887,0.00588268,-0.00387960,0.5
 2712903,-0.00010895,-0.00005740,-0.00003972,0.00003417,-0.00007817,-0.
 00009772,0.00000614,0.00003318,0.00001932,0.00023312,-0.00003227,-0.00
 025041,0.00007056,0.00008131,0.00003068,-0.00044370,0.00066174,-0.0001
 0927,-0.00004207,-0.00006464,0.00004986,0.00001388,0.00006802,0.000090
 68,0.00000189,0.00000073,-0.00000939,0.44833262,-0.10970392,0.12719586
 ,0.00518456,0.00295320,-0.00120029,0.00796496,0.00119002,0.00287519,-0
 .46124718,0.10494820,0.00032789,0.00025164,0.00014618,-0.00012705,-0.0
 0012726,-0.00012643,-0.00004444,-0.00001597,0.00000142,-0.00015257,-0.
 00043301,0.00008807,0.00010123,0.00011214,-0.00002376,-0.00019852,0.00
 064574,-0.00034359,-0.00003417,-0.00005025,0.00004166,-0.00002306,0.00
 004205,0.00008482,-0.00001479,-0.00001780,-0.00001342,-0.21762221,0.13
 517318,0.11260149,0.00176030,0.00355668,-0.00141152,0.01088126,-0.0105
 8234,0.00631323,0.20514612,-0.12855479,-0.11735813,0.00014352,0.000439
 74,0.00056023,-0.00045423,-0.00002919,-0.00074705,0.00002704,-0.000023
 95,0.00036288,0.00028512,-0.00000660,-0.00031354,0.00018031,-0.0002366
 2,0.00049435,0.00036197,0.00011571,0.00008985,-0.00029717,-0.00027535,
 0.00079001,-0.00004181,-0.00006683,0.00012869,-0.00000882,-0.00005027,
 -0.00010345,0.00007457,-0.00005279,-0.00007351,0.00002239,-0.00003932,
 0.00001402,-0.00001120,0.00006136,0.00010188,0.00000539,-0.00004740,0.
 00013798,0.00000126,0.00003867,-0.00005027,-0.00002789,-0.00000090,-0.
 00003408,-0.00012223,-0.00020509,0.00002458,-0.00002113,0.00001586,0.0
 0003784,0.00000127,0.00000618,-0.00000856,0.00025020,-0.00031167,-0.00
 031388,-0.00009339,0.00003363,-0.00000941,0.00008993,0.00000109,0.0000
 1820,0.00000822,0.00028255,0.00051820,0.00023051,0.00015743,0.00021155
 ,-0.00004702,-0.00005228,-0.00008233,-0.00002207,-0.00000304,-0.000026
 33,-0.00008556,-0.00028671,0.00054992,0.00003965,-0.00000368,0.0000849
 2,-0.00009887,0.00008611,-0.00011670,-0.00002071,-0.00000220,0.0000189
 1,0.00005027,0.00001810,0.00001094,0.00044577,-0.00002085,-0.00003834,
 0.00005380,0.00023165,0.00017655,0.00016227,0.00003693,-0.00003957,-0.
 00000841,0.00001836,0.00005222,0.00002377,0.00005594,-0.00001608,0.000
 06708,0.00005923,0.00013279,-0.00021565,-0.00007462,-0.00051220,-0.000
 00118,-0.00001566,0.00000041,0.00001856,0.00001473,-0.00001748,-0.0000
 1158,-0.00014458,0.00039299,0.00011343,0.00003957,-0.00011589,-0.00004
 629,0.00001584,0.00006174,-0.00005024,0.00000632,0.00000218,-0.0002902
 1,-0.00031362,0.00011538,-0.00004051,0.00000345,0.00002465,0.00046978,
 -0.00006300,0.00012520,-0.00010051,0.00007170,-0.00003700,0.00001312,0
 .00000549,-0.00005085,-0.00000437,-0.00020933,-0.00039256,0.00031331,0
 .00001313,-0.00002551,-0.00000799,0.00054061,0.00048078,0.00013790,0.0
 0014307,0.00013678,-0.00008009,-0.00011751,-0.00002254,-0.00000532,-0.
 00001170,-0.00003656,-0.00011844,0.00006796,-0.00048724,0.00000546,-0.
 00001335,0.00001035,-0.00006460,0.00004804,-0.00025817,0.00003413,0.00
 004065,0.00001786,0.00001622,-0.00005200,0.00008294,0.00001525,0.00000
 008,0.00000662,-0.00000640,0.00001380,-0.00000487,-0.00014706,-0.00010
 033,0.00000764,0.00001099,-0.00001493,-0.00000189,0.00004493,0.0000964
 4,0.00004852,0.00004706,-0.00007816,-0.00012034,0.00000537,0.00000483,
 0.00001414,0.00001504,-0.00001103,-0.00000452,-0.00001404,-0.00009861,
 0.00004839,-0.00000755,-0.00001353,0.00000449,0.00001426,0.00009451,0.
 00001680,-0.00008263,-0.00007444,-0.00006972,0.00007157,0.00009515,-0.
 00002604,-0.00000128,-0.00001237,-0.00000530,0.00000613,0.00000573,0.0
 0001896,0.00009547,0.00005243,0.00004553,-0.00000773,0.00001789,-0.000
 01120,-0.00006944,-0.00010888,0.00006360,0.00005750,-0.00003629,-0.000
 11962,-0.00032688,0.00028394,0.00013200,-0.00000365,0.00001454,-0.0000
 1604,-0.00000574,-0.00001588,0.00002381,-0.00004476,-0.00012464,0.0000
 4649,-0.00003890,-0.00001218,-0.00006804,0.00001804,-0.00000231,-0.000
 01320,0.00039978,-0.00003176,0.00016806,-0.00010701,0.00029390,-0.0003
 5644,-0.00003406,-0.00000381,-0.00000350,-0.00003074,-0.00004023,-0.00
 005508,0.00004294,-0.00009292,-0.00011133,0.00003567,-0.00003598,0.000
 00095,-0.00006560,-0.00000936,0.00004608,0.00000928,-0.00028782,0.0003
 9882,-0.00008297,-0.00008401,0.00012775,0.00007019,-0.00006240,-0.0004
 0973,0.00002124,0.00001143,0.00001714,0.00004504,0.00006833,-0.0000286
 1,0.00004406,0.00001430,0.00007006,-0.00002498,-0.00001875,-0.00001077
 ,-0.00004018,-0.00002694,0.00000938,-0.00010018,0.00012534,0.00031916,
 -0.00002850,-0.00002004,0.00001733,0.00008079,0.00005733,-0.00007011,0
 .00000437,0.00000331,0.00000341,0.00000387,0.00000403,-0.00000222,-0.0
 0020365,-0.00008349,0.00003400,-0.00000103,-0.00000014,-0.00000513,0.0
 0003679,0.00001791,-0.00002039,-0.00000824,0.00006638,0.00002176,0.000
 10531,0.00000526,-0.00000896,0.00001045,-0.00006828,0.00007788,-0.0000
 2580,0.00000607,0.00000595,0.00000373,0.00000123,-0.00001176,0.0000039
 9,-0.00001214,-0.00007879,0.00008160,-0.00000419,0.00000217,-0.0000070
 7,0.00004236,-0.00000542,-0.00000466,0.00006391,-0.00001060,-0.0000122
 5,-0.00004185,0.00002936,-0.00000051,-0.00001984,0.00000002,0.00006184
 ,0.00014526,0.00007743,0.00000005,-0.00000061,0.00000032,-0.00000682,-
 0.00001014,-0.00000173,-0.00004536,-0.00007974,-0.00008543,0.00000077,
 0.00000437,-0.00000304,-0.00003060,0.00004295,-0.00000445,0.00002326,-
 0.00000633,-0.00001793,-0.00000066,-0.00007296,0.00002911,0.00017653,0
 .00033858,0.00008232,-0.00012005,-0.00053533,-0.00054858,0.00000809,0.
 00000763,0.00003439,0.00069531,-0.00020895,-0.00077559,0.00024348,0.00
 024595,0.00009557,-0.00304829,0.00116535,-0.00020489,-0.00012967,-0.00
 013095,0.00010614,0.00017674,0.00042771,0.00040069,0.00001826,0.000030
 66,-0.00007393,1.24601079,0.00053945,0.00033457,0.00004825,-0.00074859
 ,0.00001982,-0.00024008,-0.00000487,-0.00002365,0.00000087,-0.00053370
 ,0.00091851,-0.00033304,0.00028765,0.00023301,0.00003280,0.00080029,-0
 .00253161,-0.00169659,-0.00007509,-0.00017487,0.00009713,0.00037249,-0
 .00013213,0.00018371,-0.00001918,0.00002282,-0.00004158,-1.63826849,0.
 64549636,-0.00032423,-0.00036219,-0.00013495,-0.00013608,0.00021016,-0
 .00002795,0.00006540,0.00003316,0.00005265,-0.00012119,0.00036066,0.00
 028493,0.00004192,-0.00003075,0.00009639,0.00056540,-0.00084917,-0.001
 20484,-0.00002121,-0.00003735,-0.00001778,0.00053392,0.00029958,0.0000
 5837,0.00002859,0.00006902,-0.00005173,0.15028078,1.04381896,1.1459235
 7,0.00004993,0.00006723,0.00002027,-0.00004224,0.00001265,0.00001817,0
 .00000824,-0.00001064,-0.00000522,-0.00019310,0.00006742,0.00003155,-0
 .00002448,-0.00003807,-0.00000577,0.00030311,-0.00018126,-0.00013560,0
 .00001635,0.00002270,-0.00001996,0.00008643,0.00005382,-0.00006213,-0.
 00000690,0.00001106,0.00000560,-0.00207331,0.02373387,-0.01103169,0.00
 429312,-0.00011447,-0.00012321,-0.00004373,0.00009128,0.00001075,0.000
 02912,0.00000414,0.00002229,0.00000851,0.00016880,0.00006198,-0.000359
 89,-0.00007302,-0.00006491,0.00001184,-0.00022053,0.00014650,0.0004180
 6,0.00002194,0.00003910,-0.00002659,0.00006506,0.00015431,-0.00004248,
 0.00001953,-0.00000157,0.00000283,0.01502547,0.00359755,-0.01013816,0.
 00169885,-0.00330518,0.00036548,0.00031241,0.00009601,-0.00012038,-0.0
 0011995,-0.00007194,-0.00003461,-0.00002160,-0.00000608,-0.00012725,-0
 .00052286,0.00052051,0.00005400,0.00007423,-0.00002048,-0.00013475,0.0
 0039520,-0.00053210,-0.00001492,-0.00002032,0.00001368,-0.00010403,-0.
 00008305,0.00002476,-0.00001164,-0.00001666,-0.00001193,0.00658913,0.0
 0778005,-0.02061907,0.00508714,0.00212315,0.00316326,-0.00026767,-0.00
 031883,-0.00002052,0.00014095,0.00017464,0.00007236,0.00000222,0.00003
 381,-0.00000187,0.00020452,0.00031749,-0.00016516,-0.00003418,-0.00007
 964,-0.00001475,0.00025345,-0.00028653,0.00017581,0.00002004,0.0000091
 7,-0.00000124,-0.00003501,-0.00000185,-0.00005767,0.00000640,0.0000079
 5,0.00002593,0.37814444,0.41306433,0.55969793,-0.00115919,-0.01348500,
 -0.00842092,-0.37890983,-0.00019142,-0.00015411,-0.00000005,0.00028037
 ,-0.00000567,0.00020207,-0.00002470,0.00000774,0.00001872,0.00027310,-
 0.00089618,0.00050026,-0.00012434,-0.00012473,-0.00002069,-0.00046731,
 0.00187383,0.00121614,0.00004048,0.00008389,-0.00005289,-0.00031479,-0
 .00017849,-0.00015253,-0.00002167,-0.00002297,0.00003119,0.40783960,-0
 .49285747,-1.42238202,-0.00531966,-0.00275626,-0.00573029,-0.39419820,
 0.49317753,-0.00013103,-0.00003316,0.00002320,0.00028398,-0.00009041,0
 .00013769,-0.00002054,0.00000339,-0.00002144,0.00020037,-0.00010586,-0
 .00037998,-0.00012557,-0.00006695,-0.00006360,-0.00037010,0.00056890,0
 .00159299,0.00004952,0.00006255,-0.00002508,-0.00034208,-0.00006503,-0
 .00007080,-0.00000381,-0.00002439,0.00003997,0.56103636,-1.44411963,-1
 .41838633,0.00088182,0.00867084,0.01108573,-0.55342117,1.42817079,1.40
 670879,-0.00018150,-0.00025096,-0.00002866,0.00011411,0.00023438,0.000
 36897,0.00001123,-0.00002827,-0.00001257,-0.00056664,0.00011201,0.0006
 9032,-0.00016492,-0.00014526,-0.00004499,0.00236470,-0.00102890,0.0003
 6483,0.00007041,0.00008902,-0.00006346,-0.00027533,-0.00033810,-0.0002
 3485,-0.00000746,-0.00004203,0.00004043,-1.62010230,1.20085184,-0.6995
 7955,-0.00125795,-0.00320204,-0.00312724,0.00163386,-0.00777144,-0.008
 03775,1.61836180,-0.00028825,-0.00021096,0.00001158,0.00019234,0.00004
 896,-0.00003107,0.00003058,0.00000684,-0.00000194,0.00023329,0.0001142
 4,0.00000728,-0.00005399,-0.00001089,0.00003524,-0.00035092,0.00040360
 ,0.00000430,-0.00000210,0.00000375,0.00000223,-0.00000605,0.00007934,-
 0.00000376,0.00001788,0.00000188,0.00000459,1.21406277,-0.15490292,0.3
 8900809,-0.02011797,0.00221863,-0.00417030,-0.00523734,0.00185290,0.00
 702898,-1.18848023,0.15039462,-0.00009277,-0.00013764,-0.00000430,0.00
 004462,0.00012295,0.00010793,0.00000098,0.00000673,-0.00002841,0.00013
 532,0.00040340,-0.00056216,-0.00005645,-0.00003703,-0.00004930,-0.0000
 5206,-0.00038004,0.00082634,0.00001854,0.00002788,0.00000846,0.0000037
 3,-0.00012097,-0.00008872,0.00000886,-0.00000500,0.00002940,-0.7170223
 7,0.39446916,0.29402673,0.00521582,-0.00065350,0.00635765,0.00213126,-
 0.00180070,-0.00064113,0.70966452,-0.39189523,-0.29998249\\@
 The archive entry for this job was punched.


 Life may have no meaning.  Or even worse, it may have a
 meaning of which I disapprove.
                                 -- Ashleigh Brilliant
 Job cpu time:       9 days  5 hours 36 minutes 55.5 seconds.
 Elapsed time:       0 days  5 hours 34 minutes 58.6 seconds.
 File lengths (MBytes):  RWF=   7420 Int=      0 D2E=      0 Chk=     49 Scr=      1
 Normal termination of Gaussian 16 at Sat Mar 22 23:24:09 2025.
