 Entering Gaussian System, Link 0=g16
 Input=enolonetc2_h2o_mp2_avdz_opt_anharm.gjf
 Output=enolonetc2_h2o_mp2_avdz_opt_anharm.log
 Initial command:
 /sw/contrib/chem-src/g16/c01/g16/l1.exe "/scr/Gau-45053.inp" -scrdir="/scr/"
 Entering Link 1 = /sw/contrib/chem-src/g16/c01/g16/l1.exe PID=     45054.
  
 Copyright (c) 1988-2019, Gaussian, Inc.  All Rights Reserved.
  
 This is part of the Gaussian(R) 16 program.  It is based on
 the Gaussian(R) 09 system (copyright 2009, Gaussian, Inc.),
 the Gaussian(R) 03 system (copyright 2003, Gaussian, Inc.),
 the Gaussian(R) 98 system (copyright 1998, Gaussian, Inc.),
 the Gaussian(R) 94 system (copyright 1995, Gaussian, Inc.),
 the Gaussian 92(TM) system (copyright 1992, Gaussian, Inc.),
 the Gaussian 90(TM) system (copyright 1990, Gaussian, Inc.),
 the Gaussian 88(TM) system (copyright 1988, Gaussian, Inc.),
 the Gaussian 86(TM) system (copyright 1986, Carnegie Mellon
 University), and the Gaussian 82(TM) system (copyright 1983,
 Carnegie Mellon University). Gaussian is a federally registered
 trademark of Gaussian, Inc.
  
 This software contains proprietary and confidential information,
 including trade secrets, belonging to Gaussian, Inc.
  
 This software is provided under written license and may be
 used, copied, transmitted, or stored only in accord with that
 written license.
  
 The following legend is applicable only to US Government
 contracts under FAR:
  
                    RESTRICTED RIGHTS LEGEND
  
 Use, reproduction and disclosure by the US Government is
 subject to restrictions as set forth in subparagraphs (a)
 and (c) of the Commercial Computer Software - Restricted
 Rights clause in FAR 52.227-19.
  
 Gaussian, Inc.
 340 Quinnipiac St., Bldg. 40, Wallingford CT 06492
  
  
 ---------------------------------------------------------------
 Warning -- This program may not be used in any manner that
 competes with the business of Gaussian, Inc. or will provide
 assistance to any competitor of Gaussian, Inc.  The licensee
 of this program is prohibited from giving any competitor of
 Gaussian, Inc. access to this program.  By using this program,
 the user acknowledges that Gaussian, Inc. is engaged in the
 business of creating and licensing software in the field of
 computational chemistry and represents and warrants to the
 licensee that it is not a competitor of Gaussian, Inc. and that
 it will not use this program in any manner prohibited above.
 ---------------------------------------------------------------
  

 Cite this work as:
 Gaussian 16, Revision C.01,
 M. J. Frisch, G. W. Trucks, H. B. Schlegel, G. E. Scuseria, 
 M. A. Robb, J. R. Cheeseman, G. Scalmani, V. Barone, 
 G. A. Petersson, H. Nakatsuji, X. Li, M. Caricato, A. V. Marenich, 
 J. Bloino, B. G. Janesko, R. Gomperts, B. Mennucci, H. P. Hratchian, 
 J. V. Ortiz, A. F. Izmaylov, J. L. Sonnenberg, D. Williams-Young, 
 F. Ding, F. Lipparini, F. Egidi, J. Goings, B. Peng, A. Petrone, 
 T. Henderson, D. Ranasinghe, V. G. Zakrzewski, J. Gao, N. Rega, 
 G. Zheng, W. Liang, M. Hada, M. Ehara, K. Toyota, R. Fukuda, 
 J. Hasegawa, M. Ishida, T. Nakajima, Y. Honda, O. Kitao, H. Nakai, 
 T. Vreven, K. Throssell, J. A. Montgomery, Jr., J. E. Peralta, 
 F. Ogliaro, M. J. Bearpark, J. J. Heyd, E. N. Brothers, K. N. Kudin, 
 V. N. Staroverov, T. A. Keith, R. Kobayashi, J. Normand, 
 K. Raghavachari, A. P. Rendell, J. C. Burant, S. S. Iyengar, 
 J. Tomasi, M. Cossi, J. M. Millam, M. Klene, C. Adamo, R. Cammi, 
 J. W. Ochterski, R. L. Martin, K. Morokuma, O. Farkas, 
 J. B. Foresman, and D. J. Fox, Gaussian, Inc., Wallingford CT, 2019.
 
 ******************************************
 Gaussian 16:  EM64L-G16RevC.01  3-Jul-2019
                22-Mar-2025 
 ******************************************
 %nprocshared=40
 Will use up to   40 processors via shared memory.
 %mem=50gb
 ----------------------------------------------
 # MP2/aug-cc-pVDZ opt freq=(vibrot,anharmonic)
 ----------------------------------------------
 1/18=20,19=15,38=1,80=1/1,3;
 2/9=110,12=2,17=6,18=5,40=1/2;
 3/5=16,7=10,11=9,25=1,30=1,71=1/1,2,3;
 4//1;
 5/5=2,38=5/2;
 8/6=4,10=1/1;
 9/15=2,16=-3/6;
 10/5=1/2;
 6/7=2,8=2,9=2,10=2/1;
 7/12=2/1,2,3,16;
 1/18=20,19=15,80=1/3(2);
 2/9=110/2;
 99//99;
 2/9=110/2;
 3/5=16,7=10,11=9,25=1,30=1,71=1/1,2,3;
 4/5=5,16=3,69=1/1;
 5/5=2,38=5/2;
 8/6=4,10=1/1;
 9/15=2,16=-3/6;
 10/5=1/2;
 7/12=2/1,2,3,16;
 1/18=20,19=15,80=1/3(-8);
 2/9=110/2;
 6/7=2,8=2,9=2,10=2/1;
 99/9=10/99;
 ----
 blah
 ----
 Symbolic Z-matrix:
 Charge =  0 Multiplicity = 1
 C                    -0.92629   0.69342  -0.22675 
 C                    -1.65642   0.27554  -1.26298 
 H                    -0.93893   0.25296   0.76333 
 O                    -0.05136   1.74589  -0.26871 
 C                    -2.56599  -0.87141  -1.0964 
 H                    -0.04635   2.14129  -1.17478 
 O                    -3.25048  -1.28115  -2.02589 
 H                    -1.62319   0.73541  -2.24157 
 H                    -2.5949   -1.33539  -0.09644 
 O                     0.11162   2.9621   -2.6503 
 H                     0.81355   2.8592   -3.31761 
 H                    -0.30529   3.80201  -2.91364 
 
 Add virtual bond connecting atoms O10        and H6         Dist= 3.20D+00.

 GradGradGradGradGradGradGradGradGradGradGradGradGradGradGradGradGradGrad
 Berny optimization.
 Initialization pass.
                           ----------------------------
                           !    Initial Parameters    !
                           ! (Angstroms and Degrees)  !
 --------------------------                            --------------------------
 ! Name  Definition              Value          Derivative Info.                !
 --------------------------------------------------------------------------------
 ! R1    R(1,2)                  1.3347         estimate D2E/DX2                !
 ! R2    R(1,3)                  1.0837         estimate D2E/DX2                !
 ! R3    R(1,4)                  1.3693         estimate D2E/DX2                !
 ! R4    R(2,5)                  1.4733         estimate D2E/DX2                !
 ! R5    R(2,8)                  1.0818         estimate D2E/DX2                !
 ! R6    R(4,6)                  0.9886         estimate D2E/DX2                !
 ! R7    R(5,7)                  1.2249         estimate D2E/DX2                !
 ! R8    R(5,9)                  1.1027         estimate D2E/DX2                !
 ! R9    R(6,10)                 1.6958         estimate D2E/DX2                !
 ! R10   R(10,11)                0.974          estimate D2E/DX2                !
 ! R11   R(10,12)                0.974          estimate D2E/DX2                !
 ! A1    A(2,1,3)              125.1458         estimate D2E/DX2                !
 ! A2    A(2,1,4)              124.4983         estimate D2E/DX2                !
 ! A3    A(3,1,4)              110.3559         estimate D2E/DX2                !
 ! A4    A(1,2,5)              119.5826         estimate D2E/DX2                !
 ! A5    A(1,2,8)              123.5333         estimate D2E/DX2                !
 ! A6    A(5,2,8)              116.8841         estimate D2E/DX2                !
 ! A7    A(1,4,6)              109.8008         estimate D2E/DX2                !
 ! A8    A(2,5,7)              121.3069         estimate D2E/DX2                !
 ! A9    A(2,5,9)              116.5047         estimate D2E/DX2                !
 ! A10   A(7,5,9)              122.1884         estimate D2E/DX2                !
 ! A11   A(6,10,11)            127.7435         estimate D2E/DX2                !
 ! A12   A(6,10,12)            127.7908         estimate D2E/DX2                !
 ! A13   A(11,10,12)           102.3782         estimate D2E/DX2                !
 ! A14   L(4,6,10,7,-1)        187.4711         estimate D2E/DX2                !
 ! A15   L(4,6,10,7,-2)        180.0043         estimate D2E/DX2                !
 ! D1    D(3,1,2,5)              0.0004         estimate D2E/DX2                !
 ! D2    D(3,1,2,8)           -179.9996         estimate D2E/DX2                !
 ! D3    D(4,1,2,5)           -179.9994         estimate D2E/DX2                !
 ! D4    D(4,1,2,8)              0.0006         estimate D2E/DX2                !
 ! D5    D(2,1,4,6)              0.0021         estimate D2E/DX2                !
 ! D6    D(3,1,4,6)           -179.9978         estimate D2E/DX2                !
 ! D7    D(1,2,5,7)            179.9982         estimate D2E/DX2                !
 ! D8    D(1,2,5,9)             -0.0014         estimate D2E/DX2                !
 ! D9    D(8,2,5,7)             -0.0018         estimate D2E/DX2                !
 ! D10   D(8,2,5,9)            179.9986         estimate D2E/DX2                !
 ! D11   D(1,4,10,11)         -101.8867         estimate D2E/DX2                !
 ! D12   D(1,4,10,12)          101.6508         estimate D2E/DX2                !
 ! D13   D(6,10,11,12)        -164.4201         estimate D2E/DX2                !
 --------------------------------------------------------------------------------
 Trust Radius=3.00D-01 FncErr=1.00D-07 GrdErr=1.00D-07 EigMax=2.50D+02 EigMin=1.00D-04
 Number of steps in this run=     49 maximum allowed number of steps=    100.
 GradGradGradGradGradGradGradGradGradGradGradGradGradGradGradGradGradGrad

                          Input orientation:                          
 ---------------------------------------------------------------------
 Center     Atomic      Atomic             Coordinates (Angstroms)
 Number     Number       Type             X           Y           Z
 ---------------------------------------------------------------------
      1          6           0       -0.926289    0.693421   -0.226749
      2          6           0       -1.656422    0.275544   -1.262977
      3          1           0       -0.938926    0.252956    0.763335
      4          8           0       -0.051362    1.745886   -0.268715
      5          6           0       -2.565987   -0.871407   -1.096402
      6          1           0       -0.046347    2.141289   -1.174784
      7          8           0       -3.250478   -1.281147   -2.025886
      8          1           0       -1.623194    0.735405   -2.241569
      9          1           0       -2.594900   -1.335390   -0.096440
     10          8           0        0.111617    2.962104   -2.650302
     11          1           0        0.813553    2.859198   -3.317606
     12          1           0       -0.305286    3.802009   -2.913640
 ---------------------------------------------------------------------
                    Distance matrix (angstroms):
                    1          2          3          4          5
     1  C    0.000000
     2  C    1.334722   0.000000
     3  H    1.083713   2.149709   0.000000
     4  O    1.369285   2.393048   2.020331   0.000000
     5  C    2.427672   1.473279   2.714800   3.722718   0.000000
     6  H    1.941492   2.465993   2.849351   0.988600   3.928240
     7  O    3.540857   2.355065   3.934018   4.741827   1.224890
     8  H    2.132355   1.081767   3.119363   2.717330   2.186804
     9  H    2.630079   2.199241   2.450368   3.999191   1.102743
    10  O    3.478187   3.502604   4.482861   2.679124   4.927471
    11  H    4.155844   4.122808   5.149540   3.359059   5.502040
    12  H    4.155520   4.121433   5.149507   3.359724   5.500358
                    6          7          8          9         10
     6  H    0.000000
     7  O    4.764861   0.000000
     8  H    2.366640   2.600203   0.000000
     9  H    4.443562   2.038502   3.135919   0.000000
    10  O    1.695831   5.449657   2.852161   5.684708   0.000000
    11  H    2.417955   5.943681   3.406771   6.291902   0.973960
    12  H    2.418400   5.941442   3.404793   6.290613   0.973959
                   11         12
    11  H    0.000000
    12  H    1.517854   0.000000
 Stoichiometry    C3H6O3
 Framework group  C1[X(C3H6O3)]
 Deg. of freedom    30
 Full point group                 C1      NOp   1
 Largest Abelian subgroup         C1      NOp   1
 Largest concise Abelian subgroup C1      NOp   1
                         Standard orientation:                         
 ---------------------------------------------------------------------
 Center     Atomic      Atomic             Coordinates (Angstroms)
 Number     Number       Type             X           Y           Z
 ---------------------------------------------------------------------
      1          6           0        0.057585    1.161239   -0.000039
      2          6           0       -0.621375    0.012110    0.000015
      3          1           0       -0.387991    2.149113   -0.000067
      4          8           0        1.423664    1.254888   -0.000070
      5          6           0       -2.094433    0.037668    0.000031
      6          1           0        1.821385    0.349819   -0.000080
      7          8           0       -2.748972   -0.997674    0.000048
      8          1           0       -0.149026   -0.961083    0.000048
      9          1           0       -2.569361    1.032899    0.000021
     10          8           0        2.699709   -1.100833    0.000021
     11          1           0        3.120806   -1.542769    0.758946
     12          1           0        3.118312   -1.545128   -0.758904
 ---------------------------------------------------------------------
 Rotational constants (GHZ):           5.6860773           1.4100272           1.1357442
 Standard basis: Aug-CC-pVDZ (5D, 7F)
 There are   204 symmetry adapted cartesian basis functions of A   symmetry.
 There are   192 symmetry adapted basis functions of A   symmetry.
   192 basis functions,   324 primitive gaussians,   204 cartesian basis functions
    24 alpha electrons       24 beta electrons
       nuclear repulsion energy       215.9035639893 Hartrees.
 NAtoms=   12 NActive=   12 NUniq=   12 SFac= 1.00D+00 NAtFMM=   60 NAOKFM=F Big=F
 Integral buffers will be    131072 words long.
 Raffenetti 1 integral format.
 Two-electron integral symmetry is turned on.
 One-electron integrals computed using PRISM.
 NBasis=   192 RedAO= T EigKep=  2.58D-05  NBF=   192
 NBsUse=   192 1.00D-06 EigRej= -1.00D+00 NBFU=   192
 ExpMin= 2.97D-02 ExpMax= 1.17D+04 ExpMxC= 4.01D+02 IAcc=3 IRadAn=         5 AccDes= 0.00D+00
 Harris functional with IExCor=  205 and IRadAn=       5 diagonalized for initial guess.
 HarFok:  IExCor=  205 AccDes= 0.00D+00 IRadAn=         5 IDoV= 1 UseB2=F ITyADJ=14
 ICtDFT=  3500011 ScaDFX=  1.000000  1.000000  1.000000  1.000000
 FoFCou: FMM=F IPFlag=           0 FMFlag=      100000 FMFlg1=           0
         NFxFlg=           0 DoJE=T BraDBF=F KetDBF=T FulRan=T
         wScrn=  0.000000 ICntrl=       500 IOpCl=  0 I1Cent=   200000004 NGrid=           0
         NMat0=    1 NMatS0=      1 NMatT0=    0 NMatD0=    1 NMtDS0=    0 NMtDT0=    0
 Petite list used in FoFCou.
 Keep R1 ints in memory in canonical form, NReq=180609360.
 Requested convergence on RMS density matrix=1.00D-08 within 128 cycles.
 Requested convergence on MAX density matrix=1.00D-06.
 Requested convergence on             energy=1.00D-06.
 No special actions if energy rises.
 SCF Done:  E(RHF) =  -341.713853951     A.U. after   14 cycles
            NFock= 14  Conv=0.89D-08     -V/T= 2.0017
 ExpMin= 2.97D-02 ExpMax= 1.17D+04 ExpMxC= 4.01D+02 IAcc=3 IRadAn=         5 AccDes= 0.00D+00
 HarFok:  IExCor=  205 AccDes= 0.00D+00 IRadAn=         5 IDoV=-2 UseB2=F ITyADJ=14
 ICtDFT= 12500011 ScaDFX=  1.000000  1.000000  1.000000  1.000000
 Range of M.O.s used for correlation:     7   192
 NBasis=   192 NAE=    24 NBE=    24 NFC=     6 NFV=     0
 NROrb=    186 NOA=    18 NOB=    18 NVA=   168 NVB=   168

 **** Warning!!: The largest alpha MO coefficient is  0.49571933D+02

 Fully direct method using O(ONN) memory.
 JobTyp=1 Pass  1:  I=   7 to  24 NPSUse= 40 ParTrn=T ParDer=T DoDerP=T.
 Spin components of T(2) and E(2):
     alpha-alpha T2 =       0.4229103493D-01 E2=     -0.1336723862D+00
     alpha-beta  T2 =       0.2334216182D+00 E2=     -0.7558059763D+00
     beta-beta   T2 =       0.4229103493D-01 E2=     -0.1336723862D+00
 ANorm=    0.1148043417D+01
 E2 =    -0.1023150749D+01 EUMP2 =    -0.34273700469968D+03
          IDoAtm=111111111111
          Differentiating once with respect to electric field.
                with respect to dipole field.
          Differentiating once with respect to nuclear coordinates.
 Keep R1 ints in memory in canonical form, NReq=180623635.
          There are     1 degrees of freedom in the 1st order CPHF.  IDoFFX=0 NUNeed=     1.
 LinEq1:  Iter=  0 NonCon=     1 RMS=4.80D-03 Max=1.31D-01 NDo=     1
 AX will form     1 AO Fock derivatives at one time.
 LinEq1:  Iter=  1 NonCon=     1 RMS=1.45D-03 Max=2.08D-02 NDo=     1
 LinEq1:  Iter=  2 NonCon=     1 RMS=5.15D-04 Max=9.28D-03 NDo=     1
 LinEq1:  Iter=  3 NonCon=     1 RMS=1.72D-04 Max=2.95D-03 NDo=     1
 LinEq1:  Iter=  4 NonCon=     1 RMS=6.00D-05 Max=1.03D-03 NDo=     1
 LinEq1:  Iter=  5 NonCon=     1 RMS=2.00D-05 Max=2.05D-04 NDo=     1
 LinEq1:  Iter=  6 NonCon=     1 RMS=6.65D-06 Max=1.85D-04 NDo=     1
 LinEq1:  Iter=  7 NonCon=     1 RMS=2.08D-06 Max=3.56D-05 NDo=     1
 LinEq1:  Iter=  8 NonCon=     1 RMS=9.11D-07 Max=2.69D-05 NDo=     1
 LinEq1:  Iter=  9 NonCon=     1 RMS=2.05D-07 Max=2.49D-06 NDo=     1
 LinEq1:  Iter= 10 NonCon=     1 RMS=6.52D-08 Max=8.80D-07 NDo=     1
 LinEq1:  Iter= 11 NonCon=     1 RMS=2.46D-08 Max=4.08D-07 NDo=     1
 LinEq1:  Iter= 12 NonCon=     1 RMS=6.37D-09 Max=1.24D-07 NDo=     1
 LinEq1:  Iter= 13 NonCon=     1 RMS=2.37D-09 Max=4.98D-08 NDo=     1
 LinEq1:  Iter= 14 NonCon=     1 RMS=5.43D-10 Max=5.85D-09 NDo=     1
 LinEq1:  Iter= 15 NonCon=     1 RMS=1.08D-10 Max=1.19D-09 NDo=     1
 LinEq1:  Iter= 16 NonCon=     0 RMS=1.87D-11 Max=1.78D-10 NDo=     1
 Linear equations converged to 1.000D-10 1.000D-09 after    16 iterations.
 End of Minotr F.D. properties file   721 does not exist.
 End of Minotr F.D. properties file   722 does not exist.
 End of Minotr F.D. properties file   788 does not exist.

 **********************************************************************

            Population analysis using the SCF Density.

 **********************************************************************

 Orbital symmetries:
       Occupied  (A) (A) (A) (A) (A) (A) (A) (A) (A) (A) (A) (A)
                 (A) (A) (A) (A) (A) (A) (A) (A) (A) (A) (A) (A)
       Virtual   (A) (A) (A) (A) (A) (A) (A) (A) (A) (A) (A) (A)
                 (A) (A) (A) (A) (A) (A) (A) (A) (A) (A) (A) (A)
                 (A) (A) (A) (A) (A) (A) (A) (A) (A) (A) (A) (A)
                 (A) (A) (A) (A) (A) (A) (A) (A) (A) (A) (A) (A)
                 (A) (A) (A) (A) (A) (A) (A) (A) (A) (A) (A) (A)
                 (A) (A) (A) (A) (A) (A) (A) (A) (A) (A) (A) (A)
                 (A) (A) (A) (A) (A) (A) (A) (A) (A) (A) (A) (A)
                 (A) (A) (A) (A) (A) (A) (A) (A) (A) (A) (A) (A)
                 (A) (A) (A) (A) (A) (A) (A) (A) (A) (A) (A) (A)
                 (A) (A) (A) (A) (A) (A) (A) (A) (A) (A) (A) (A)
                 (A) (A) (A) (A) (A) (A) (A) (A) (A) (A) (A) (A)
                 (A) (A) (A) (A) (A) (A) (A) (A) (A) (A) (A) (A)
                 (A) (A) (A) (A) (A) (A) (A) (A) (A) (A) (A) (A)
                 (A) (A) (A) (A) (A) (A) (A) (A) (A) (A) (A) (A)
 The electronic state is 1-A.
 Alpha  occ. eigenvalues --  -20.62985 -20.59477 -20.54422 -11.33095 -11.33030
 Alpha  occ. eigenvalues --  -11.23028  -1.40941  -1.39336  -1.36837  -1.06299
 Alpha  occ. eigenvalues --   -0.86963  -0.80255  -0.75729  -0.72057  -0.67048
 Alpha  occ. eigenvalues --   -0.65095  -0.60861  -0.57569  -0.57568  -0.56129
 Alpha  occ. eigenvalues --   -0.54217  -0.51747  -0.41313  -0.35485
 Alpha virt. eigenvalues --    0.01770   0.04242   0.04638   0.05734   0.06424
 Alpha virt. eigenvalues --    0.07478   0.10176   0.10593   0.11921   0.13747
 Alpha virt. eigenvalues --    0.14725   0.14885   0.15221   0.15450   0.16602
 Alpha virt. eigenvalues --    0.17740   0.18038   0.19597   0.20760   0.23118
 Alpha virt. eigenvalues --    0.23432   0.24577   0.25117   0.26269   0.26832
 Alpha virt. eigenvalues --    0.29122   0.29323   0.29708   0.32056   0.33076
 Alpha virt. eigenvalues --    0.33468   0.33600   0.34178   0.36252   0.37504
 Alpha virt. eigenvalues --    0.39090   0.39816   0.40978   0.43148   0.44805
 Alpha virt. eigenvalues --    0.45765   0.46818   0.47141   0.47933   0.49467
 Alpha virt. eigenvalues --    0.52537   0.52691   0.53600   0.54620   0.55421
 Alpha virt. eigenvalues --    0.57088   0.59334   0.60070   0.62146   0.62968
 Alpha virt. eigenvalues --    0.63206   0.65629   0.66456   0.66482   0.68353
 Alpha virt. eigenvalues --    0.70988   0.71085   0.71795   0.73954   0.74747
 Alpha virt. eigenvalues --    0.78629   0.80793   0.83043   0.83208   0.84959
 Alpha virt. eigenvalues --    0.86310   0.86734   0.88962   0.93177   0.93963
 Alpha virt. eigenvalues --    0.95018   0.95448   0.97692   0.99102   1.02512
 Alpha virt. eigenvalues --    1.03634   1.09245   1.09903   1.11584   1.14564
 Alpha virt. eigenvalues --    1.21558   1.21783   1.24319   1.27428   1.27987
 Alpha virt. eigenvalues --    1.28920   1.30476   1.33707   1.34457   1.37785
 Alpha virt. eigenvalues --    1.40302   1.46634   1.48775   1.50160   1.51114
 Alpha virt. eigenvalues --    1.53549   1.55250   1.60385   1.62412   1.62490
 Alpha virt. eigenvalues --    1.67471   1.68351   1.71180   1.72553   1.78390
 Alpha virt. eigenvalues --    1.79143   1.82175   1.87876   1.90290   1.93434
 Alpha virt. eigenvalues --    1.95001   1.96154   1.97501   1.99607   1.99683
 Alpha virt. eigenvalues --    2.02968   2.06345   2.08139   2.09500   2.12291
 Alpha virt. eigenvalues --    2.14753   2.19559   2.20972   2.24186   2.26280
 Alpha virt. eigenvalues --    2.29325   2.37033   2.40657   2.40786   2.43093
 Alpha virt. eigenvalues --    2.45037   2.52542   2.58686   2.59620   2.68548
 Alpha virt. eigenvalues --    2.70860   2.75370   2.78506   2.84721   2.88564
 Alpha virt. eigenvalues --    2.96535   3.00226   3.07543   3.11486   3.18803
 Alpha virt. eigenvalues --    3.35590   3.47833   3.58497   3.65286   3.72912
 Alpha virt. eigenvalues --    3.75420   3.75670   3.78741   3.79542   3.80704
 Alpha virt. eigenvalues --    3.80713   3.87404   3.98664   4.02992   4.05373
 Alpha virt. eigenvalues --    4.12279   4.28589   4.47789
          Condensed to atoms (all electrons):
               1          2          3          4          5          6
     1  C    5.089019   0.122408   0.290240  -0.097610  -0.179833  -0.116629
     2  C    0.122408   5.426586  -0.185840   0.015940  -0.153478   0.030577
     3  H    0.290240  -0.185840   1.283034  -0.181246   0.049045  -0.001113
     4  O   -0.097610   0.015940  -0.181246   8.861352  -0.044194   0.274437
     5  C   -0.179833  -0.153478   0.049045  -0.044194   5.485160   0.009915
     6  H   -0.116629   0.030577  -0.001113   0.274437   0.009915   0.538196
     7  O   -0.004981  -0.036021  -0.003694   0.002028   0.240374  -0.000506
     8  H    0.018917   0.047856   0.042992  -0.052919  -0.207360   0.014496
     9  H   -0.072122   0.073149  -0.020266   0.004478   0.248166   0.004281
    10  O    0.079997  -0.042886   0.002113  -0.059602  -0.030354  -0.088453
    11  H   -0.002035   0.001925  -0.000067  -0.003045   0.001618   0.000858
    12  H   -0.002025   0.001915  -0.000069  -0.003042   0.001613   0.000862
               7          8          9         10         11         12
     1  C   -0.004981   0.018917  -0.072122   0.079997  -0.002035  -0.002025
     2  C   -0.036021   0.047856   0.073149  -0.042886   0.001925   0.001915
     3  H   -0.003694   0.042992  -0.020266   0.002113  -0.000067  -0.000069
     4  O    0.002028  -0.052919   0.004478  -0.059602  -0.003045  -0.003042
     5  C    0.240374  -0.207360   0.248166  -0.030354   0.001618   0.001613
     6  H   -0.000506   0.014496   0.004281  -0.088453   0.000858   0.000862
     7  O    8.569674   0.013809  -0.048793   0.001254  -0.000071  -0.000071
     8  H    0.013809   1.647487   0.015073  -0.042945   0.001657   0.001641
     9  H   -0.048793   0.015073   0.942881  -0.001681   0.000069   0.000068
    10  O    0.001254  -0.042945  -0.001681   8.065277   0.345538   0.345583
    11  H   -0.000071   0.001657   0.000069   0.345538   0.468060  -0.044293
    12  H   -0.000071   0.001641   0.000068   0.345583  -0.044293   0.467987
 Mulliken charges:
               1
     1  C    0.874654
     2  C    0.697870
     3  H   -0.275127
     4  O   -0.716577
     5  C    0.579328
     6  H    0.333078
     7  O   -0.733002
     8  H   -0.500702
     9  H   -0.145303
    10  O   -0.573840
    11  H    0.229788
    12  H    0.229832
 Sum of Mulliken charges =  -0.00000
 Mulliken charges with hydrogens summed into heavy atoms:
               1
     1  C    0.599527
     2  C    0.197168
     4  O   -0.383498
     5  C    0.434025
     7  O   -0.733002
    10  O   -0.114219
 Electronic spatial extent (au):  <R**2>=            949.4133
 Charge=             -0.0000 electrons
 Dipole moment (field-independent basis, Debye):
    X=              5.2076    Y=             -0.1979    Z=             -0.0000  Tot=              5.2114
 Quadrupole moment (field-independent basis, Debye-Ang):
   XX=            -35.2859   YY=            -33.6806   ZZ=            -35.1081
   XY=            -19.2752   XZ=              0.0056   YZ=              0.0052
 Traceless Quadrupole moment (field-independent basis, Debye-Ang):
   XX=             -0.5944   YY=              1.0109   ZZ=             -0.4165
   XY=            -19.2752   XZ=              0.0056   YZ=              0.0052
 Octapole moment (field-independent basis, Debye-Ang**2):
  XXX=             91.3705  YYY=             -6.6690  ZZZ=              0.0003  XYY=             19.6350
  XXY=            -14.7191  XXZ=              0.0328  XZZ=             12.3883  YZZ=             -6.4850
  YYZ=             -0.0152  XYZ=              0.0076
 Hexadecapole moment (field-independent basis, Debye-Ang**3):
 XXXX=           -807.8418 YYYY=           -224.5367 ZZZZ=            -38.0594 XXXY=           -177.8993
 XXXZ=              0.1580 YYYX=            -55.0303 YYYZ=              0.0363 ZZZX=              0.0067
 ZZZY=              0.0056 XXYY=           -153.7130 XXZZ=           -123.8103 YYZZ=            -42.4424
 XXYZ=              0.0006 YYXZ=             -0.0325 ZZXY=            -15.1475
 N-N= 2.159035639893D+02 E-N=-1.237324560658D+03  KE= 3.411194235127D+02
 Calling FoFJK, ICntrl=  10002127 FMM=F ISym2X=0 I1Cent= 0 IOpClX= 0 NMat=1 NMatS=1 NMatT=0.
 ***** Axes restored to original set *****
 -------------------------------------------------------------------
 Center     Atomic                   Forces (Hartrees/Bohr)
 Number     Number              X              Y              Z
 -------------------------------------------------------------------
      1        6           0.029167842    0.030436645    0.009415145
      2        6          -0.022269959   -0.023638748   -0.006257906
      3        1          -0.003193813   -0.006036102    0.005257529
      4        8          -0.005634414   -0.007172257    0.001185918
      5        6           0.013442738    0.018936215   -0.007077246
      6        1           0.000279505   -0.002982098    0.007728497
      7        8          -0.012202424   -0.011504356   -0.006799417
      8        1           0.001654024    0.004733695   -0.006472143
      9        1          -0.001040182   -0.004475127    0.007550024
     10        8           0.002924115    0.010439985   -0.016268044
     11        1          -0.003299914   -0.002907868    0.006493599
     12        1           0.000172484   -0.005829983    0.005244045
 -------------------------------------------------------------------
 Cartesian Forces:  Max     0.030436645 RMS     0.011492141

 GradGradGradGradGradGradGradGradGradGradGradGradGradGradGradGradGradGrad
 Berny optimization.
 FormGI is forming the generalized inverse of G from B-inverse, IUseBI=4.
 Internal  Forces:  Max     0.030956068 RMS     0.007350743
 Search for a local minimum.
 Step number   1 out of a maximum of   49
 All quantities printed in internal units (Hartrees-Bohrs-Radians)
 Mixed Optimization -- RFO/linear search
 Second derivative matrix not updated -- first step.
 ITU=  0
     Eigenvalues ---    0.00230   0.00230   0.00230   0.01119   0.01119
     Eigenvalues ---    0.01144   0.02098   0.02098   0.02717   0.02952
     Eigenvalues ---    0.07469   0.15648   0.16000   0.16000   0.16000
     Eigenvalues ---    0.16000   0.16000   0.22000   0.22000   0.22000
     Eigenvalues ---    0.33381   0.35351   0.35549   0.35782   0.49743
     Eigenvalues ---    0.51114   0.52576   0.52576   0.58404   0.93249
 RFO step:  Lambda=-5.99078303D-03 EMin= 2.30000000D-03
 Linear search not attempted -- first point.
 Iteration  1 RMS(Cart)=  0.12472155 RMS(Int)=  0.01204745
 Iteration  2 RMS(Cart)=  0.05279898 RMS(Int)=  0.00075303
 Iteration  3 RMS(Cart)=  0.00100341 RMS(Int)=  0.00026443
 Iteration  4 RMS(Cart)=  0.00000032 RMS(Int)=  0.00026443
 Variable       Old X    -DE/DX   Delta X   Delta X   Delta X     New X
                                 (Linear)    (Quad)   (Total)
    R1        2.52226   0.03096   0.00000   0.05247   0.05247   2.57472
    R2        2.04792   0.00729   0.00000   0.02018   0.02018   2.06810
    R3        2.58757  -0.01018   0.00000  -0.01969  -0.01969   2.56788
    R4        2.78409  -0.00314   0.00000  -0.00874  -0.00874   2.77536
    R5        2.04424   0.00792   0.00000   0.02176   0.02176   2.06601
    R6        1.86818  -0.00342   0.00000  -0.00681  -0.00679   1.86139
    R7        2.31471   0.01583   0.00000   0.01686   0.01686   2.33157
    R8        2.08388   0.00876   0.00000   0.02577   0.02577   2.10965
    R9        3.20466   0.00473   0.00000   0.05874   0.05872   3.26338
   R10        1.84052  -0.00652   0.00000  -0.01226  -0.01226   1.82826
   R11        1.84051  -0.00652   0.00000  -0.01226  -0.01226   1.82826
    A1        2.18421  -0.00919   0.00000  -0.04819  -0.04819   2.13601
    A2        2.17290   0.00898   0.00000   0.03975   0.03975   2.21265
    A3        1.92607   0.00021   0.00000   0.00845   0.00845   1.93452
    A4        2.08711   0.00113   0.00000   0.00498   0.00498   2.09209
    A5        2.15606  -0.00269   0.00000  -0.01532  -0.01532   2.14075
    A6        2.04001   0.00157   0.00000   0.01033   0.01033   2.05035
    A7        1.91639  -0.00217   0.00000  -0.01304  -0.01304   1.90334
    A8        2.11720   0.01271   0.00000   0.05623   0.05623   2.17344
    A9        2.03339  -0.00511   0.00000  -0.02060  -0.02060   2.01279
   A10        2.13259  -0.00760   0.00000  -0.03564  -0.03564   2.09696
   A11        2.22954  -0.00276   0.00000  -0.01781  -0.01768   2.21186
   A12        2.23037  -0.00259   0.00000  -0.01735  -0.01745   2.21292
   A13        1.78684   0.00517   0.00000   0.03024   0.03038   1.81722
   A14        3.27199  -0.00197   0.00000  -0.25798  -0.25844   3.01355
   A15        3.14167  -0.00000   0.00000   0.00001   0.00001   3.14168
    D1        0.00001   0.00000   0.00000   0.00002   0.00002   0.00003
    D2       -3.14158   0.00000   0.00000   0.00005   0.00005  -3.14154
    D3       -3.14158   0.00000   0.00000   0.00001   0.00001  -3.14157
    D4        0.00001   0.00000   0.00000   0.00004   0.00004   0.00005
    D5        0.00004   0.00000   0.00000   0.00010   0.00010   0.00013
    D6       -3.14155   0.00000   0.00000   0.00009   0.00009  -3.14146
    D7        3.14156   0.00000   0.00000   0.00002   0.00002   3.14159
    D8       -0.00002   0.00000   0.00000   0.00000   0.00000  -0.00002
    D9       -0.00003  -0.00000   0.00000  -0.00000  -0.00000  -0.00003
   D10        3.14157  -0.00000   0.00000  -0.00002  -0.00002   3.14155
   D11       -1.77826   0.00085   0.00000   0.06430   0.06346  -1.71480
   D12        1.77414  -0.00084   0.00000  -0.06365  -0.06281   1.71133
   D13       -2.86967   0.00082   0.00000   0.01914   0.01812  -2.85155
         Item               Value     Threshold  Converged?
 Maximum Force            0.030956     0.000450     NO 
 RMS     Force            0.007351     0.000300     NO 
 Maximum Displacement     0.389008     0.001800     NO 
 RMS     Displacement     0.174608     0.001200     NO 
 Predicted change in Energy=-3.278406D-03
 GradGradGradGradGradGradGradGradGradGradGradGradGradGradGradGradGradGrad

                          Input orientation:                          
 ---------------------------------------------------------------------
 Center     Atomic      Atomic             Coordinates (Angstroms)
 Number     Number       Type             X           Y           Z
 ---------------------------------------------------------------------
      1          6           0       -0.877180    0.739854   -0.199639
      2          6           0       -1.598622    0.355252   -1.289579
      3          1           0       -0.957111    0.230541    0.765712
      4          8           0        0.013260    1.764189   -0.133522
      5          6           0       -2.523788   -0.781061   -1.190525
      6          1           0        0.064405    2.203121   -1.013840
      7          8           0       -3.217284   -1.201382   -2.120412
      8          1           0       -1.522219    0.860754   -2.255964
      9          1           0       -2.573478   -1.270433   -0.188353
     10          8           0        0.004530    2.824325   -2.624035
     11          1           0        0.638988    2.653344   -3.334127
     12          1           0       -0.485521    3.601364   -2.927450
 ---------------------------------------------------------------------
                    Distance matrix (angstroms):
                    1          2          3          4          5
     1  C    0.000000
     2  C    1.362485   0.000000
     3  H    1.094391   2.156689   0.000000
     4  O    1.358866   2.433050   2.025418   0.000000
     5  C    2.450787   1.468656   2.702717   3.745953   0.000000
     6  H    1.921108   2.501262   2.846291   0.985006   3.954150
     7  O    3.596367   2.394465   3.935543   4.814433   1.233814
     8  H    2.158510   1.093284   3.137999   2.771038   2.198603
     9  H    2.630363   2.192235   2.403290   3.987875   1.116380
    10  O    3.316644   3.232212   4.375255   2.706773   4.631000
    11  H    3.973062   3.803722   5.022567   3.380237   5.137443
    12  H    3.972730   3.802480   5.022378   3.380832   5.135863
                    6          7          8          9         10
     6  H    0.000000
     7  O    4.856401   0.000000
     8  H    2.421197   2.672831   0.000000
     9  H    4.439080   2.037672   3.149939   0.000000
    10  O    1.726907   5.180738   2.514370   5.417169   0.000000
    11  H    2.432401   5.585951   3.007762   5.967567   0.967471
    12  H    2.432982   5.583924   3.006090   5.966290   0.967471
                   11         12
    11  H    0.000000
    12  H    1.525991   0.000000
 Stoichiometry    C3H6O3
 Framework group  C1[X(C3H6O3)]
 Deg. of freedom    30
 Full point group                 C1      NOp   1
 Largest Abelian subgroup         C1      NOp   1
 Largest concise Abelian subgroup C1      NOp   1
                         Standard orientation:                         
 ---------------------------------------------------------------------
 Center     Atomic      Atomic             Coordinates (Angstroms)
 Number     Number       Type             X           Y           Z
 ---------------------------------------------------------------------
      1          6           0        0.174507    1.185125   -0.000030
      2          6           0       -0.542178    0.026363    0.000043
      3          1           0       -0.303165    2.169768   -0.000096
      4          8           0        1.528121    1.304487   -0.000026
      5          6           0       -2.010053    0.074246   -0.000004
      6          1           0        1.930215    0.405289   -0.000085
      7          8           0       -2.742173   -0.918879    0.000049
      8          1           0       -0.069651   -0.959531    0.000162
      9          1           0       -2.454425    1.098374   -0.000079
     10          8           0        2.428082   -1.248294   -0.000031
     11          1           0        2.726721   -1.762608    0.763053
     12          1           0        2.724406   -1.764209   -0.762936
 ---------------------------------------------------------------------
 Rotational constants (GHZ):           5.2402233           1.5279057           1.1895155
 Standard basis: Aug-CC-pVDZ (5D, 7F)
 There are   204 symmetry adapted cartesian basis functions of A   symmetry.
 There are   192 symmetry adapted basis functions of A   symmetry.
   192 basis functions,   324 primitive gaussians,   204 cartesian basis functions
    24 alpha electrons       24 beta electrons
       nuclear repulsion energy       216.9242384583 Hartrees.
 NAtoms=   12 NActive=   12 NUniq=   12 SFac= 1.00D+00 NAtFMM=   60 NAOKFM=F Big=F
 Integral buffers will be    131072 words long.
 Raffenetti 1 integral format.
 Two-electron integral symmetry is turned on.
 One-electron integrals computed using PRISM.
 NBasis=   192 RedAO= T EigKep=  2.83D-05  NBF=   192
 NBsUse=   192 1.00D-06 EigRej= -1.00D+00 NBFU=   192
 Initial guess from the checkpoint file:  "/scr/Gau-45054.chk"
 B after Tr=     0.000000    0.000000    0.000000
         Rot=    0.999678   -0.000011    0.000001    0.025366 Ang=  -2.91 deg.
 ExpMin= 2.97D-02 ExpMax= 1.17D+04 ExpMxC= 4.01D+02 IAcc=3 IRadAn=         5 AccDes= 0.00D+00
 Harris functional with IExCor=  205 and IRadAn=       5 diagonalized for initial guess.
 HarFok:  IExCor=  205 AccDes= 0.00D+00 IRadAn=         5 IDoV= 1 UseB2=F ITyADJ=14
 ICtDFT=  3500011 ScaDFX=  1.000000  1.000000  1.000000  1.000000
 FoFCou: FMM=F IPFlag=           0 FMFlag=      100000 FMFlg1=           0
         NFxFlg=           0 DoJE=T BraDBF=F KetDBF=T FulRan=T
         wScrn=  0.000000 ICntrl=       500 IOpCl=  0 I1Cent=   200000004 NGrid=           0
         NMat0=    1 NMatS0=      1 NMatT0=    0 NMatD0=    1 NMtDS0=    0 NMtDT0=    0
 Petite list used in FoFCou.
 Keep R1 ints in memory in canonical form, NReq=180613194.
 Requested convergence on RMS density matrix=1.00D-08 within 128 cycles.
 Requested convergence on MAX density matrix=1.00D-06.
 Requested convergence on             energy=1.00D-06.
 No special actions if energy rises.
 SCF Done:  E(RHF) =  -341.713988666     A.U. after   13 cycles
            NFock= 13  Conv=0.29D-08     -V/T= 2.0021
 ExpMin= 2.97D-02 ExpMax= 1.17D+04 ExpMxC= 4.01D+02 IAcc=3 IRadAn=         5 AccDes= 0.00D+00
 HarFok:  IExCor=  205 AccDes= 0.00D+00 IRadAn=         5 IDoV=-2 UseB2=F ITyADJ=14
 ICtDFT= 12500011 ScaDFX=  1.000000  1.000000  1.000000  1.000000
 Range of M.O.s used for correlation:     7   192
 NBasis=   192 NAE=    24 NBE=    24 NFC=     6 NFV=     0
 NROrb=    186 NOA=    18 NOB=    18 NVA=   168 NVB=   168

 **** Warning!!: The largest alpha MO coefficient is  0.49042997D+02

 Fully direct method using O(ONN) memory.
 JobTyp=1 Pass  1:  I=   7 to  24 NPSUse= 40 ParTrn=T ParDer=T DoDerP=T.
 Spin components of T(2) and E(2):
     alpha-alpha T2 =       0.4265677310D-01 E2=     -0.1340727607D+00
     alpha-beta  T2 =       0.2352693140D+00 E2=     -0.7575601603D+00
     beta-beta   T2 =       0.4265677310D-01 E2=     -0.1340727607D+00
 ANorm=    0.1149166159D+01
 E2 =    -0.1025705682D+01 EUMP2 =    -0.34273969434721D+03
          IDoAtm=111111111111
          Differentiating once with respect to electric field.
                with respect to dipole field.
          Differentiating once with respect to nuclear coordinates.
 Keep R1 ints in memory in canonical form, NReq=180627988.
          There are     1 degrees of freedom in the 1st order CPHF.  IDoFFX=0 NUNeed=     1.
 LinEq1:  Iter=  0 NonCon=     1 RMS=4.88D-03 Max=1.05D-01 NDo=     1
 AX will form     1 AO Fock derivatives at one time.
 LinEq1:  Iter=  1 NonCon=     1 RMS=1.48D-03 Max=2.01D-02 NDo=     1
 LinEq1:  Iter=  2 NonCon=     1 RMS=5.35D-04 Max=7.21D-03 NDo=     1
 LinEq1:  Iter=  3 NonCon=     1 RMS=1.87D-04 Max=2.50D-03 NDo=     1
 LinEq1:  Iter=  4 NonCon=     1 RMS=6.42D-05 Max=1.02D-03 NDo=     1
 LinEq1:  Iter=  5 NonCon=     1 RMS=2.20D-05 Max=2.21D-04 NDo=     1
 LinEq1:  Iter=  6 NonCon=     1 RMS=7.93D-06 Max=1.91D-04 NDo=     1
 LinEq1:  Iter=  7 NonCon=     1 RMS=2.32D-06 Max=3.73D-05 NDo=     1
 LinEq1:  Iter=  8 NonCon=     1 RMS=1.05D-06 Max=2.77D-05 NDo=     1
 LinEq1:  Iter=  9 NonCon=     1 RMS=2.21D-07 Max=2.82D-06 NDo=     1
 LinEq1:  Iter= 10 NonCon=     1 RMS=6.46D-08 Max=7.37D-07 NDo=     1
 LinEq1:  Iter= 11 NonCon=     1 RMS=2.45D-08 Max=5.27D-07 NDo=     1
 LinEq1:  Iter= 12 NonCon=     1 RMS=6.38D-09 Max=9.08D-08 NDo=     1
 LinEq1:  Iter= 13 NonCon=     1 RMS=2.55D-09 Max=4.84D-08 NDo=     1
 LinEq1:  Iter= 14 NonCon=     1 RMS=5.96D-10 Max=5.88D-09 NDo=     1
 LinEq1:  Iter= 15 NonCon=     1 RMS=1.17D-10 Max=1.27D-09 NDo=     1
 LinEq1:  Iter= 16 NonCon=     0 RMS=1.99D-11 Max=1.90D-10 NDo=     1
 Linear equations converged to 1.000D-10 1.000D-09 after    16 iterations.
 End of Minotr F.D. properties file   721 does not exist.
 End of Minotr F.D. properties file   722 does not exist.
 End of Minotr F.D. properties file   788 does not exist.
 Calling FoFJK, ICntrl=  10002127 FMM=F ISym2X=0 I1Cent= 0 IOpClX= 0 NMat=1 NMatS=1 NMatT=0.
 ***** Axes restored to original set *****
 -------------------------------------------------------------------
 Center     Atomic                   Forces (Hartrees/Bohr)
 Number     Number              X              Y              Z
 -------------------------------------------------------------------
      1        6           0.006265135    0.007116336    0.000674095
      2        6          -0.005407227   -0.005286241   -0.002573724
      3        1          -0.001700756   -0.001767244   -0.000566273
      4        8          -0.004083740   -0.004319689   -0.001183178
      5        6           0.004132426    0.003930355    0.002216357
      6        1          -0.000906484   -0.002438945    0.003201835
      7        8          -0.000393717   -0.000094539   -0.000860628
      8        1           0.001116598    0.000659997    0.001533331
      9        1           0.000008177   -0.000442125    0.001053538
     10        8           0.000766046    0.003975299   -0.007176553
     11        1           0.000379571   -0.000902799    0.001736502
     12        1          -0.000176029   -0.000430404    0.001944697
 -------------------------------------------------------------------
 Cartesian Forces:  Max     0.007176553 RMS     0.003045013

 GradGradGradGradGradGradGradGradGradGradGradGradGradGradGradGradGradGrad
 Berny optimization.
 Using GEDIIS/GDIIS optimizer.
 FormGI is forming the generalized inverse of G from B-inverse, IUseBI=4.
 Internal  Forces:  Max     0.006613397 RMS     0.002445579
 Search for a local minimum.
 Step number   2 out of a maximum of   49
 All quantities printed in internal units (Hartrees-Bohrs-Radians)
 Mixed Optimization -- RFO/linear search
 Update second derivatives using D2CorX and points    1    2
 DE= -2.69D-03 DEPred=-3.28D-03 R= 8.20D-01
 TightC=F SS=  1.41D+00  RLast= 3.08D-01 DXNew= 5.0454D-01 9.2389D-01
 Trust test= 8.20D-01 RLast= 3.08D-01 DXMaxT set to 5.05D-01
 ITU=  1  0
 Use linear search instead of GDIIS.
     Eigenvalues ---    0.00230   0.00230   0.00448   0.01119   0.01119
     Eigenvalues ---    0.01175   0.02084   0.02098   0.02705   0.02952
     Eigenvalues ---    0.06460   0.12863   0.15810   0.16000   0.16000
     Eigenvalues ---    0.16000   0.16620   0.19928   0.22000   0.23520
     Eigenvalues ---    0.32683   0.34710   0.35612   0.36383   0.48305
     Eigenvalues ---    0.49825   0.52498   0.52576   0.58242   0.92302
 RFO step:  Lambda=-5.81302653D-03 EMin= 2.29999851D-03
 Quartic linear search produced a step of -0.11404.
 Maximum step size (   0.505) exceeded in Quadratic search.
    -- Step size scaled by   0.801
 Iteration  1 RMS(Cart)=  0.22892859 RMS(Int)=  0.05225020
 Iteration  2 RMS(Cart)=  0.16022364 RMS(Int)=  0.01820988
 Iteration  3 RMS(Cart)=  0.06536763 RMS(Int)=  0.00269127
 Iteration  4 RMS(Cart)=  0.00299114 RMS(Int)=  0.00220824
 Iteration  5 RMS(Cart)=  0.00000273 RMS(Int)=  0.00220824
 Iteration  6 RMS(Cart)=  0.00000001 RMS(Int)=  0.00220824
 Variable       Old X    -DE/DX   Delta X   Delta X   Delta X     New X
                                 (Linear)    (Quad)   (Total)
    R1        2.57472  -0.00046  -0.00598   0.05651   0.05053   2.62525
    R2        2.06810   0.00045  -0.00230   0.02284   0.02054   2.08864
    R3        2.56788  -0.00581   0.00225  -0.03044  -0.02819   2.53969
    R4        2.77536  -0.00482   0.00100  -0.02023  -0.01924   2.75612
    R5        2.06601  -0.00097  -0.00248   0.02142   0.01894   2.08495
    R6        1.86139   0.00038   0.00077  -0.00677  -0.00555   1.85585
    R7        2.33157   0.00090  -0.00192   0.01920   0.01728   2.34885
    R8        2.10965   0.00114  -0.00294   0.03057   0.02763   2.13728
    R9        3.26338   0.00416  -0.00670   0.10177   0.09483   3.35821
   R10        1.82826  -0.00087   0.00140  -0.01465  -0.01325   1.81501
   R11        1.82826  -0.00087   0.00140  -0.01465  -0.01325   1.81501
    A1        2.13601  -0.00456   0.00550  -0.07096  -0.06546   2.07055
    A2        2.21265   0.00399  -0.00453   0.05685   0.05232   2.26497
    A3        1.93452   0.00057  -0.00096   0.01411   0.01315   1.94766
    A4        2.09209  -0.00371  -0.00057  -0.00783  -0.00840   2.08369
    A5        2.14075   0.00004   0.00175  -0.01852  -0.01677   2.12398
    A6        2.05035   0.00367  -0.00118   0.02635   0.02517   2.07552
    A7        1.90334   0.00661   0.00149   0.01813   0.01962   1.92296
    A8        2.17344  -0.00041  -0.00641   0.05891   0.05250   2.22593
    A9        2.01279   0.00011   0.00235  -0.02190  -0.01955   1.99324
   A10        2.09696   0.00030   0.00406  -0.03701  -0.03294   2.06401
   A11        2.21186  -0.00099   0.00202  -0.02005  -0.01870   2.19317
   A12        2.21292  -0.00115   0.00199  -0.02080  -0.01785   2.19507
   A13        1.81722   0.00236  -0.00346   0.04743   0.04119   1.85841
   A14        3.01355   0.00592   0.02947   0.46729   0.50013   3.51368
   A15        3.14168   0.00000  -0.00000   0.00008   0.00007   3.14175
    D1        0.00003   0.00000  -0.00000   0.00003   0.00003   0.00006
    D2       -3.14154   0.00000  -0.00001   0.00007   0.00006  -3.14148
    D3       -3.14157  -0.00000  -0.00000   0.00001   0.00000  -3.14156
    D4        0.00005   0.00000  -0.00000   0.00004   0.00004   0.00009
    D5        0.00013   0.00000  -0.00001   0.00015   0.00014   0.00027
    D6       -3.14146   0.00000  -0.00001   0.00013   0.00012  -3.14135
    D7        3.14159  -0.00000  -0.00000  -0.00000  -0.00001   3.14158
    D8       -0.00002   0.00000  -0.00000   0.00004   0.00004   0.00002
    D9       -0.00003  -0.00000   0.00000  -0.00004  -0.00004  -0.00007
   D10        3.14155   0.00000   0.00000   0.00000   0.00000   3.14155
   D11       -1.71480  -0.00103  -0.00724  -0.11098  -0.11092  -1.82571
   D12        1.71133   0.00104   0.00716   0.11176   0.11162   1.82296
   D13       -2.85155  -0.00066  -0.00207  -0.02102  -0.01516  -2.86671
         Item               Value     Threshold  Converged?
 Maximum Force            0.006613     0.000450     NO 
 RMS     Force            0.002446     0.000300     NO 
 Maximum Displacement     0.903623     0.001800     NO 
 RMS     Displacement     0.443492     0.001200     NO 
 Predicted change in Energy=-3.746416D-03
 GradGradGradGradGradGradGradGradGradGradGradGradGradGradGradGradGradGrad

                          Input orientation:                          
 ---------------------------------------------------------------------
 Center     Atomic      Atomic             Coordinates (Angstroms)
 Number     Number       Type             X           Y           Z
 ---------------------------------------------------------------------
      1          6           0       -0.966483    0.698665   -0.349839
      2          6           0       -1.786163    0.150089   -1.328170
      3          1           0       -0.976629    0.252121    0.661150
      4          8           0       -0.115605    1.736331   -0.423678
      5          6           0       -2.631157   -0.991425   -0.996382
      6          1           0       -0.123186    2.116860   -1.328997
      7          8           0       -3.415751   -1.596373   -1.746975
      8          1           0       -1.815872    0.555635   -2.353810
      9          1           0       -2.537864   -1.341531    0.075013
     10          8           0        0.301794    3.197661   -2.674101
     11          1           0        1.083156    3.122294   -3.227522
     12          1           0       -0.050261    4.079541   -2.818424
 ---------------------------------------------------------------------
                    Distance matrix (angstroms):
                    1          2          3          4          5
     1  C    0.000000
     2  C    1.389224   0.000000
     3  H    1.105261   2.150151   0.000000
     4  O    1.343948   2.474880   2.030047   0.000000
     5  C    2.458773   1.458476   2.651656   3.754550   0.000000
     6  H    1.918640   2.575593   2.857674   0.982071   4.007741
     7  O    3.635671   2.425095   3.894267   4.873294   1.242956
     8  H    2.181243   1.103307   3.144270   2.830258   2.213751
     9  H    2.610007   2.181492   2.306672   3.948324   1.131002
    10  O    3.640838   3.931766   4.629737   2.715532   5.381949
    11  H    4.284397   4.546926   5.253797   3.349547   5.974679
    12  H    4.285288   4.546955   5.254972   3.351076   5.974575
                    6          7          8          9         10
     6  H    0.000000
     7  O    4.980340   0.000000
     8  H    2.520486   2.749363   0.000000
     9  H    4.445490   2.038449   3.165390   0.000000
    10  O    1.777088   6.136975   3.401088   6.018766   0.000000
    11  H    2.463850   6.685657   3.969317   6.629046   0.960460
    12  H    2.464919   6.685097   3.968773   6.629341   0.960460
                   11         12
    11  H    0.000000
    12  H    1.538934   0.000000
 Stoichiometry    C3H6O3
 Framework group  C1[X(C3H6O3)]
 Deg. of freedom    30
 Full point group                 C1      NOp   1
 Largest Abelian subgroup         C1      NOp   1
 Largest concise Abelian subgroup C1      NOp   1
                         Standard orientation:                         
 ---------------------------------------------------------------------
 Center     Atomic      Atomic             Coordinates (Angstroms)
 Number     Number       Type             X           Y           Z
 ---------------------------------------------------------------------
      1          6           0        0.045969    1.034811   -0.000057
      2          6           0       -0.739797   -0.110840    0.000080
      3          1           0       -0.454457    2.020294   -0.000195
      4          8           0        1.384109    1.159616   -0.000021
      5          6           0       -2.192593    0.017754   -0.000034
      6          1           0        1.806995    0.273257   -0.000123
      7          8           0       -3.033840   -0.897256    0.000051
      8          1           0       -0.293503   -1.119854    0.000331
      9          1           0       -2.563532    1.086197   -0.000249
     10          8           0        3.102967   -0.942679   -0.000063
     11          1           0        3.598902   -1.232374    0.769748
     12          1           0        3.598241   -1.235321   -0.769183
 ---------------------------------------------------------------------
 Rotational constants (GHZ):           7.0068574           1.1653350           1.0038983
 Standard basis: Aug-CC-pVDZ (5D, 7F)
 There are   204 symmetry adapted cartesian basis functions of A   symmetry.
 There are   192 symmetry adapted basis functions of A   symmetry.
   192 basis functions,   324 primitive gaussians,   204 cartesian basis functions
    24 alpha electrons       24 beta electrons
       nuclear repulsion energy       210.7100958224 Hartrees.
 NAtoms=   12 NActive=   12 NUniq=   12 SFac= 1.00D+00 NAtFMM=   60 NAOKFM=F Big=F
 Integral buffers will be    131072 words long.
 Raffenetti 1 integral format.
 Two-electron integral symmetry is turned on.
 One-electron integrals computed using PRISM.
 NBasis=   192 RedAO= T EigKep=  3.23D-05  NBF=   192
 NBsUse=   192 1.00D-06 EigRej= -1.00D+00 NBFU=   192
 Initial guess from the checkpoint file:  "/scr/Gau-45054.chk"
 B after Tr=    -0.000000   -0.000000   -0.000000
         Rot=    0.999358    0.000023    0.000006   -0.035840 Ang=   4.11 deg.
 ExpMin= 2.97D-02 ExpMax= 1.17D+04 ExpMxC= 4.01D+02 IAcc=3 IRadAn=         5 AccDes= 0.00D+00
 Harris functional with IExCor=  205 and IRadAn=       5 diagonalized for initial guess.
 HarFok:  IExCor=  205 AccDes= 0.00D+00 IRadAn=         5 IDoV= 1 UseB2=F ITyADJ=14
 ICtDFT=  3500011 ScaDFX=  1.000000  1.000000  1.000000  1.000000
 FoFCou: FMM=F IPFlag=           0 FMFlag=      100000 FMFlg1=           0
         NFxFlg=           0 DoJE=T BraDBF=F KetDBF=T FulRan=T
         wScrn=  0.000000 ICntrl=       500 IOpCl=  0 I1Cent=   200000004 NGrid=           0
         NMat0=    1 NMatS0=      1 NMatT0=    0 NMatD0=    1 NMtDS0=    0 NMtDT0=    0
 Petite list used in FoFCou.
 Keep R1 ints in memory in canonical form, NReq=180600047.
 Requested convergence on RMS density matrix=1.00D-08 within 128 cycles.
 Requested convergence on MAX density matrix=1.00D-06.
 Requested convergence on             energy=1.00D-06.
 No special actions if energy rises.
 SCF Done:  E(RHF) =  -341.711015427     A.U. after   15 cycles
            NFock= 15  Conv=0.16D-08     -V/T= 2.0025
 ExpMin= 2.97D-02 ExpMax= 1.17D+04 ExpMxC= 4.01D+02 IAcc=3 IRadAn=         5 AccDes= 0.00D+00
 HarFok:  IExCor=  205 AccDes= 0.00D+00 IRadAn=         5 IDoV=-2 UseB2=F ITyADJ=14
 ICtDFT= 12500011 ScaDFX=  1.000000  1.000000  1.000000  1.000000
 Range of M.O.s used for correlation:     7   192
 NBasis=   192 NAE=    24 NBE=    24 NFC=     6 NFV=     0
 NROrb=    186 NOA=    18 NOB=    18 NVA=   168 NVB=   168

 **** Warning!!: The largest alpha MO coefficient is  0.44649021D+02

 Fully direct method using O(ONN) memory.
 JobTyp=1 Pass  1:  I=   7 to  24 NPSUse= 40 ParTrn=T ParDer=T DoDerP=T.
 Spin components of T(2) and E(2):
     alpha-alpha T2 =       0.4290481319D-01 E2=     -0.1340997974D+00
     alpha-beta  T2 =       0.2368786598D+00 E2=     -0.7583546021D+00
     beta-beta   T2 =       0.4290481319D-01 E2=     -0.1340997974D+00
 ANorm=    0.1150081861D+01
 E2 =    -0.1026554197D+01 EUMP2 =    -0.34273756962350D+03
          IDoAtm=111111111111
          Differentiating once with respect to electric field.
                with respect to dipole field.
          Differentiating once with respect to nuclear coordinates.
 Keep R1 ints in memory in canonical form, NReq=180615403.
          There are     1 degrees of freedom in the 1st order CPHF.  IDoFFX=0 NUNeed=     1.
 LinEq1:  Iter=  0 NonCon=     1 RMS=4.97D-03 Max=1.05D-01 NDo=     1
 AX will form     1 AO Fock derivatives at one time.
 LinEq1:  Iter=  1 NonCon=     1 RMS=1.53D-03 Max=2.30D-02 NDo=     1
 LinEq1:  Iter=  2 NonCon=     1 RMS=5.60D-04 Max=8.92D-03 NDo=     1
 LinEq1:  Iter=  3 NonCon=     1 RMS=2.03D-04 Max=3.39D-03 NDo=     1
 LinEq1:  Iter=  4 NonCon=     1 RMS=7.12D-05 Max=1.14D-03 NDo=     1
 LinEq1:  Iter=  5 NonCon=     1 RMS=2.54D-05 Max=4.66D-04 NDo=     1
 LinEq1:  Iter=  6 NonCon=     1 RMS=9.38D-06 Max=2.56D-04 NDo=     1
 LinEq1:  Iter=  7 NonCon=     1 RMS=2.50D-06 Max=4.64D-05 NDo=     1
 LinEq1:  Iter=  8 NonCon=     1 RMS=1.13D-06 Max=2.32D-05 NDo=     1
 LinEq1:  Iter=  9 NonCon=     1 RMS=2.36D-07 Max=3.03D-06 NDo=     1
 LinEq1:  Iter= 10 NonCon=     1 RMS=6.60D-08 Max=6.10D-07 NDo=     1
 LinEq1:  Iter= 11 NonCon=     1 RMS=2.32D-08 Max=4.53D-07 NDo=     1
 LinEq1:  Iter= 12 NonCon=     1 RMS=5.62D-09 Max=7.24D-08 NDo=     1
 LinEq1:  Iter= 13 NonCon=     1 RMS=2.35D-09 Max=4.94D-08 NDo=     1
 LinEq1:  Iter= 14 NonCon=     1 RMS=6.40D-10 Max=6.01D-09 NDo=     1
 LinEq1:  Iter= 15 NonCon=     1 RMS=1.30D-10 Max=1.56D-09 NDo=     1
 LinEq1:  Iter= 16 NonCon=     0 RMS=2.30D-11 Max=2.04D-10 NDo=     1
 Linear equations converged to 1.000D-10 1.000D-09 after    16 iterations.
 End of Minotr F.D. properties file   721 does not exist.
 End of Minotr F.D. properties file   722 does not exist.
 End of Minotr F.D. properties file   788 does not exist.
 Calling FoFJK, ICntrl=  10002127 FMM=F ISym2X=0 I1Cent= 0 IOpClX= 0 NMat=1 NMatS=1 NMatT=0.
 ***** Axes restored to original set *****
 -------------------------------------------------------------------
 Center     Atomic                   Forces (Hartrees/Bohr)
 Number     Number              X              Y              Z
 -------------------------------------------------------------------
      1        6          -0.016135639   -0.018148990   -0.002168171
      2        6           0.014074494    0.016237883    0.000921990
      3        1           0.000459155    0.002820133   -0.005295473
      4        8          -0.004690932   -0.003456101   -0.004857015
      5        6          -0.006816422   -0.012533777    0.010425234
      6        1           0.002959825    0.002765425    0.001728248
      7        8           0.010067210    0.010893520    0.002340110
      8        1           0.000428684   -0.001641571    0.005011207
      9        1           0.000557837    0.003215399   -0.005951546
     10        8          -0.003857932   -0.005567727    0.002331271
     11        1           0.003642980    0.000881907   -0.003027271
     12        1          -0.000689259    0.004533899   -0.001458584
 -------------------------------------------------------------------
 Cartesian Forces:  Max     0.018148990 RMS     0.007225893

 GradGradGradGradGradGradGradGradGradGradGradGradGradGradGradGradGradGrad
 Berny optimization.
 Using GEDIIS/GDIIS optimizer.
 FormGI is forming the generalized inverse of G from B-inverse, IUseBI=4.
 Internal  Forces:  Max     0.026167039 RMS     0.006039019
 Search for a local minimum.
 Step number   3 out of a maximum of   49
 All quantities printed in internal units (Hartrees-Bohrs-Radians)
 Mixed Optimization -- RFO/linear search
 Update second derivatives using D2CorX and points    1    3    2
 DE=  2.12D-03 DEPred=-3.75D-03 R=-5.67D-01
 Trust test=-5.67D-01 RLast= 5.52D-01 DXMaxT set to 2.52D-01
 ITU= -1  1  0
 Use linear search instead of GDIIS.
     Eigenvalues ---    0.00230   0.00230   0.01119   0.01119   0.01140
     Eigenvalues ---    0.02062   0.02098   0.02213   0.02689   0.02952
     Eigenvalues ---    0.06278   0.13685   0.15537   0.16000   0.16000
     Eigenvalues ---    0.16035   0.16432   0.21078   0.22216   0.23792
     Eigenvalues ---    0.33154   0.34573   0.35662   0.36129   0.48580
     Eigenvalues ---    0.49715   0.52576   0.52686   0.62014   0.93803
 RFO step:  Lambda=-7.57461990D-04 EMin= 2.29999947D-03
 Quartic linear search produced a step of -0.71210.
 Iteration  1 RMS(Cart)=  0.16096204 RMS(Int)=  0.02860061
 Iteration  2 RMS(Cart)=  0.12452845 RMS(Int)=  0.00453776
 Iteration  3 RMS(Cart)=  0.00725833 RMS(Int)=  0.00060203
 Iteration  4 RMS(Cart)=  0.00000285 RMS(Int)=  0.00060202
 Iteration  5 RMS(Cart)=  0.00000001 RMS(Int)=  0.00060202
 Variable       Old X    -DE/DX   Delta X   Delta X   Delta X     New X
                                 (Linear)    (Quad)   (Total)
    R1        2.62525  -0.02617  -0.03598  -0.00909  -0.04507   2.58018
    R2        2.08864  -0.00599  -0.01463  -0.00218  -0.01681   2.07184
    R3        2.53969  -0.00203   0.02007  -0.01253   0.00755   2.54724
    R4        2.75612  -0.00189   0.01370  -0.01384  -0.00014   2.75598
    R5        2.08495  -0.00527  -0.01349  -0.00483  -0.01832   2.06663
    R6        1.85585   0.00142   0.00395   0.00105   0.00500   1.86085
    R7        2.34885  -0.01307  -0.01230  -0.00170  -0.01400   2.33484
    R8        2.13728  -0.00659  -0.01968  -0.00076  -0.02044   2.11684
    R9        3.35821   0.00131  -0.06753   0.05049  -0.01703   3.34117
   R10        1.81501   0.00464   0.00944   0.00009   0.00953   1.82454
   R11        1.81501   0.00463   0.00943   0.00009   0.00953   1.82453
    A1        2.07055   0.00579   0.04662  -0.01617   0.03045   2.10099
    A2        2.26497  -0.01033  -0.03726   0.00455  -0.03271   2.23226
    A3        1.94766   0.00454  -0.00936   0.01162   0.00226   1.94993
    A4        2.08369  -0.00467   0.00598  -0.01994  -0.01396   2.06973
    A5        2.12398   0.00189   0.01194  -0.00104   0.01091   2.13488
    A6        2.07552   0.00278  -0.01793   0.02098   0.00305   2.07857
    A7        1.92296  -0.00062  -0.01397   0.03251   0.01854   1.94150
    A8        2.22593  -0.01041  -0.03738  -0.01126  -0.04864   2.17729
    A9        1.99324   0.00346   0.01392   0.00246   0.01639   2.00962
   A10        2.06401   0.00696   0.02346   0.00880   0.03225   2.09627
   A11        2.19317   0.00067   0.01331  -0.00445   0.00920   2.20237
   A12        2.19507   0.00085   0.01271  -0.00444   0.00814   2.20321
   A13        1.85841  -0.00179  -0.02933   0.01078  -0.01802   1.84039
   A14        3.51368  -0.00605  -0.35614  -0.01773  -0.37488   3.13880
   A15        3.14175   0.00001  -0.00005   0.00052   0.00047   3.14222
    D1        0.00006  -0.00000  -0.00002  -0.00000  -0.00002   0.00004
    D2       -3.14148  -0.00000  -0.00004  -0.00001  -0.00006  -3.14153
    D3       -3.14156   0.00000  -0.00000  -0.00000  -0.00000  -3.14157
    D4        0.00009  -0.00000  -0.00003  -0.00001  -0.00004   0.00005
    D5        0.00027  -0.00000  -0.00010  -0.00000  -0.00010   0.00017
    D6       -3.14135  -0.00000  -0.00008  -0.00000  -0.00008  -3.14143
    D7        3.14158  -0.00000   0.00000  -0.00002  -0.00002   3.14157
    D8        0.00002  -0.00000  -0.00003   0.00000  -0.00002  -0.00001
    D9       -0.00007   0.00000   0.00003  -0.00001   0.00002  -0.00005
   D10        3.14155  -0.00000  -0.00000   0.00001   0.00001   3.14156
   D11       -1.82571   0.00051   0.07899   0.01068   0.08772  -1.73799
   D12        1.82296  -0.00051  -0.07949  -0.01061  -0.08815   1.73481
   D13       -2.86671   0.00092   0.01079  -0.00662   0.00191  -2.86481
         Item               Value     Threshold  Converged?
 Maximum Force            0.026167     0.000450     NO 
 RMS     Force            0.006039     0.000300     NO 
 Maximum Displacement     0.537867     0.001800     NO 
 RMS     Displacement     0.283919     0.001200     NO 
 Predicted change in Energy=-1.300776D-04
 GradGradGradGradGradGradGradGradGradGradGradGradGradGradGradGradGradGrad

                          Input orientation:                          
 ---------------------------------------------------------------------
 Center     Atomic      Atomic             Coordinates (Angstroms)
 Number     Number       Type             X           Y           Z
 ---------------------------------------------------------------------
      1          6           0       -0.920074    0.709338   -0.246778
      2          6           0       -1.668653    0.279099   -1.304495
      3          1           0       -0.992210    0.206189    0.724644
      4          8           0       -0.043144    1.732528   -0.214756
      5          6           0       -2.560510   -0.858540   -1.111361
      6          1           0        0.015941    2.179252   -1.090322
      7          8           0       -3.286764   -1.340661   -1.986969
      8          1           0       -1.621674    0.757158   -2.286962
      9          1           0       -2.556328   -1.296955   -0.080540
     10          8           0        0.119499    2.977509   -2.664534
     11          1           0        0.806049    2.840037   -3.329325
     12          1           0       -0.326154    3.794914   -2.920338
 ---------------------------------------------------------------------
                    Distance matrix (angstroms):
                    1          2          3          4          5
     1  C    0.000000
     2  C    1.365373   0.000000
     3  H    1.096368   2.140162   0.000000
     4  O    1.347942   2.437676   2.028031   0.000000
     5  C    2.428328   1.458400   2.638963   3.722185   0.000000
     6  H    1.936062   2.548393   2.864166   0.984718   3.983305
     7  O    3.582176   2.389074   3.874347   4.806901   1.235547
     8  H    2.157981   1.093613   3.125630   2.781572   2.207699
     9  H    2.594259   2.184028   2.313921   3.938512   1.120186
    10  O    3.474314   3.511212   4.516928   2.752789   4.930524
    11  H    4.125709   4.096644   5.158057   3.412953   5.471065
    12  H    4.125705   4.095633   5.158340   3.413752   5.469861
                    6          7          8          9         10
     6  H    0.000000
     7  O    4.909340   0.000000
     8  H    2.477111   2.695064   0.000000
     9  H    4.440748   2.042037   3.156146   0.000000
    10  O    1.768074   5.541508   2.846788   5.666403   0.000000
    11  H    2.464557   6.002605   3.364334   6.242987   0.965503
    12  H    2.465026   6.000876   3.362662   6.242216   0.965501
                   11         12
    11  H    0.000000
    12  H    1.536536   0.000000
 Stoichiometry    C3H6O3
 Framework group  C1[X(C3H6O3)]
 Deg. of freedom    30
 Full point group                 C1      NOp   1
 Largest Abelian subgroup         C1      NOp   1
 Largest concise Abelian subgroup C1      NOp   1
                         Standard orientation:                         
 ---------------------------------------------------------------------
 Center     Atomic      Atomic             Coordinates (Angstroms)
 Number     Number       Type             X           Y           Z
 ---------------------------------------------------------------------
      1          6           0        0.085054    1.138917    0.000011
      2          6           0       -0.616214   -0.032605   -0.000063
      3          1           0       -0.441738    2.100433    0.000213
      4          8           0        1.422964    1.303066   -0.000124
      5          6           0       -2.073421    0.026371    0.000086
      6          1           0        1.888816    0.435511   -0.000453
      7          8           0       -2.818153   -0.959505    0.000011
      8          1           0       -0.123543   -1.008958   -0.000205
      9          1           0       -2.507968    1.058837    0.000262
     10          8           0        2.720898   -1.124528    0.000054
     11          1           0        3.104087   -1.565958    0.768495
     12          1           0        3.102158   -1.568227   -0.768038
 ---------------------------------------------------------------------
 Rotational constants (GHZ):           5.6104826           1.3842773           1.1161608
 Standard basis: Aug-CC-pVDZ (5D, 7F)
 There are   204 symmetry adapted cartesian basis functions of A   symmetry.
 There are   192 symmetry adapted basis functions of A   symmetry.
   192 basis functions,   324 primitive gaussians,   204 cartesian basis functions
    24 alpha electrons       24 beta electrons
       nuclear repulsion energy       214.5815204636 Hartrees.
 NAtoms=   12 NActive=   12 NUniq=   12 SFac= 1.00D+00 NAtFMM=   60 NAOKFM=F Big=F
 Integral buffers will be    131072 words long.
 Raffenetti 1 integral format.
 Two-electron integral symmetry is turned on.
 One-electron integrals computed using PRISM.
 NBasis=   192 RedAO= T EigKep=  2.82D-05  NBF=   192
 NBsUse=   192 1.00D-06 EigRej= -1.00D+00 NBFU=   192
 Lowest energy guess from the checkpoint file:  "/scr/Gau-45054.chk"
 B after Tr=     0.000000   -0.000000   -0.000000
         Rot=    0.999732    0.000010    0.000001   -0.023143 Ang=   2.65 deg.
 B after Tr=     0.000000    0.000000   -0.000000
         Rot=    0.999910   -0.000018   -0.000004    0.013419 Ang=  -1.54 deg.
 Keep R1 ints in memory in canonical form, NReq=180608095.
 Requested convergence on RMS density matrix=1.00D-08 within 128 cycles.
 Requested convergence on MAX density matrix=1.00D-06.
 Requested convergence on             energy=1.00D-06.
 No special actions if energy rises.
 SCF Done:  E(RHF) =  -341.716051879     A.U. after   12 cycles
            NFock= 12  Conv=0.47D-08     -V/T= 2.0021
 ExpMin= 2.97D-02 ExpMax= 1.17D+04 ExpMxC= 4.01D+02 IAcc=3 IRadAn=         5 AccDes= 0.00D+00
 HarFok:  IExCor=  205 AccDes= 0.00D+00 IRadAn=         5 IDoV=-2 UseB2=F ITyADJ=14
 ICtDFT= 12500011 ScaDFX=  1.000000  1.000000  1.000000  1.000000
 Range of M.O.s used for correlation:     7   192
 NBasis=   192 NAE=    24 NBE=    24 NFC=     6 NFV=     0
 NROrb=    186 NOA=    18 NOB=    18 NVA=   168 NVB=   168

 **** Warning!!: The largest alpha MO coefficient is  0.49886386D+02

 Fully direct method using O(ONN) memory.
 JobTyp=1 Pass  1:  I=   7 to  24 NPSUse= 40 ParTrn=T ParDer=T DoDerP=T.
 Spin components of T(2) and E(2):
     alpha-alpha T2 =       0.4257396857D-01 E2=     -0.1338754844D+00
     alpha-beta  T2 =       0.2348681946D+00 E2=     -0.7566829738D+00
     beta-beta   T2 =       0.4257396857D-01 E2=     -0.1338754844D+00
 ANorm=    0.1148919550D+01
 E2 =    -0.1024433943D+01 EUMP2 =    -0.34274048582106D+03
          IDoAtm=111111111111
          Differentiating once with respect to electric field.
                with respect to dipole field.
          Differentiating once with respect to nuclear coordinates.
 Keep R1 ints in memory in canonical form, NReq=180622960.
          There are     1 degrees of freedom in the 1st order CPHF.  IDoFFX=0 NUNeed=     1.
 LinEq1:  Iter=  0 NonCon=     1 RMS=4.88D-03 Max=1.10D-01 NDo=     1
 AX will form     1 AO Fock derivatives at one time.
 LinEq1:  Iter=  1 NonCon=     1 RMS=1.48D-03 Max=2.17D-02 NDo=     1
 LinEq1:  Iter=  2 NonCon=     1 RMS=5.35D-04 Max=7.34D-03 NDo=     1
 LinEq1:  Iter=  3 NonCon=     1 RMS=1.88D-04 Max=2.68D-03 NDo=     1
 LinEq1:  Iter=  4 NonCon=     1 RMS=6.51D-05 Max=1.06D-03 NDo=     1
 LinEq1:  Iter=  5 NonCon=     1 RMS=2.24D-05 Max=2.48D-04 NDo=     1
 LinEq1:  Iter=  6 NonCon=     1 RMS=8.31D-06 Max=2.07D-04 NDo=     1
 LinEq1:  Iter=  7 NonCon=     1 RMS=2.35D-06 Max=4.04D-05 NDo=     1
 LinEq1:  Iter=  8 NonCon=     1 RMS=1.06D-06 Max=2.84D-05 NDo=     1
 LinEq1:  Iter=  9 NonCon=     1 RMS=2.20D-07 Max=2.53D-06 NDo=     1
 LinEq1:  Iter= 10 NonCon=     1 RMS=6.43D-08 Max=7.67D-07 NDo=     1
 LinEq1:  Iter= 11 NonCon=     1 RMS=2.40D-08 Max=4.87D-07 NDo=     1
 LinEq1:  Iter= 12 NonCon=     1 RMS=6.33D-09 Max=9.64D-08 NDo=     1
 LinEq1:  Iter= 13 NonCon=     1 RMS=2.51D-09 Max=4.44D-08 NDo=     1
 LinEq1:  Iter= 14 NonCon=     1 RMS=5.90D-10 Max=5.86D-09 NDo=     1
 LinEq1:  Iter= 15 NonCon=     1 RMS=1.15D-10 Max=1.09D-09 NDo=     1
 LinEq1:  Iter= 16 NonCon=     0 RMS=1.99D-11 Max=1.75D-10 NDo=     1
 Linear equations converged to 1.000D-10 1.000D-09 after    16 iterations.
 End of Minotr F.D. properties file   721 does not exist.
 End of Minotr F.D. properties file   722 does not exist.
 End of Minotr F.D. properties file   788 does not exist.
 Calling FoFJK, ICntrl=  10002127 FMM=F ISym2X=0 I1Cent= 0 IOpClX= 0 NMat=1 NMatS=1 NMatT=0.
 ***** Axes restored to original set *****
 -------------------------------------------------------------------
 Center     Atomic                   Forces (Hartrees/Bohr)
 Number     Number              X              Y              Z
 -------------------------------------------------------------------
      1        6          -0.000395167    0.000018596   -0.001132370
      2        6           0.002264730    0.002540672    0.000317940
      3        1           0.000295880    0.000536006   -0.000434178
      4        8           0.000831534    0.000931108    0.000145419
      5        6          -0.001453933   -0.001805789    0.000208221
      6        1          -0.002115615   -0.003272606    0.001770014
      7        8           0.000469028    0.000205896    0.000808035
      8        1           0.000161307    0.000104347    0.000199321
      9        1           0.000035077    0.000463555   -0.000983570
     10        8          -0.000508794   -0.000229162   -0.000871497
     11        1           0.000261580    0.000206380   -0.000034481
     12        1           0.000154373    0.000300998    0.000007147
 -------------------------------------------------------------------
 Cartesian Forces:  Max     0.003272606 RMS     0.001086236

 GradGradGradGradGradGradGradGradGradGradGradGradGradGradGradGradGradGrad
 Berny optimization.
 Using GEDIIS/GDIIS optimizer.
 FormGI is forming the generalized inverse of G from B-inverse, IUseBI=4.
 Internal  Forces:  Max     0.005874752 RMS     0.001268583
 Search for a local minimum.
 Step number   4 out of a maximum of   49
 All quantities printed in internal units (Hartrees-Bohrs-Radians)
 Mixed Optimization -- RFO/linear search
 Update second derivatives using D2CorX and points    1    3    2    4
 DE= -7.91D-04 DEPred=-1.30D-04 R= 6.08D+00
 TightC=F SS=  1.41D+00  RLast= 1.71D-01 DXNew= 4.2426D-01 5.1371D-01
 Trust test= 6.08D+00 RLast= 1.71D-01 DXMaxT set to 4.24D-01
 ITU=  1 -1  1  0
 Use linear search instead of GDIIS.
     Eigenvalues ---    0.00230   0.00230   0.01095   0.01119   0.01119
     Eigenvalues ---    0.02066   0.02098   0.02402   0.02695   0.02952
     Eigenvalues ---    0.05363   0.13700   0.15783   0.15998   0.16002
     Eigenvalues ---    0.16036   0.19433   0.21079   0.23621   0.24695
     Eigenvalues ---    0.33431   0.34719   0.35668   0.35972   0.47141
     Eigenvalues ---    0.50420   0.52576   0.52676   0.60951   0.93776
 RFO step:  Lambda=-1.89293751D-04 EMin= 2.29999906D-03
 Quartic linear search produced a step of -0.15115.
 Iteration  1 RMS(Cart)=  0.03022380 RMS(Int)=  0.00013169
 Iteration  2 RMS(Cart)=  0.00022386 RMS(Int)=  0.00003506
 Iteration  3 RMS(Cart)=  0.00000001 RMS(Int)=  0.00003506
 Variable       Old X    -DE/DX   Delta X   Delta X   Delta X     New X
                                 (Linear)    (Quad)   (Total)
    R1        2.58018  -0.00171  -0.00082  -0.00179  -0.00262   2.57756
    R2        2.07184  -0.00065  -0.00056  -0.00092  -0.00149   2.07035
    R3        2.54724  -0.00244   0.00312  -0.00768  -0.00456   2.54269
    R4        2.75598   0.00147   0.00293  -0.00030   0.00263   2.75861
    R5        2.06663  -0.00013  -0.00009  -0.00037  -0.00047   2.06616
    R6        1.86085  -0.00227   0.00008  -0.00376  -0.00368   1.85717
    R7        2.33484  -0.00093  -0.00049  -0.00032  -0.00082   2.33403
    R8        2.11684  -0.00109  -0.00109  -0.00145  -0.00254   2.11430
    R9        3.34117   0.00092  -0.01176   0.02277   0.01101   3.35218
   R10        1.82454   0.00018   0.00056  -0.00034   0.00022   1.82476
   R11        1.82453   0.00018   0.00056  -0.00034   0.00023   1.82476
    A1        2.10099   0.00153   0.00529  -0.00009   0.00521   2.10620
    A2        2.23226  -0.00228  -0.00296  -0.00482  -0.00779   2.22447
    A3        1.94993   0.00075  -0.00233   0.00491   0.00258   1.95251
    A4        2.06973   0.00004   0.00338  -0.00408  -0.00070   2.06904
    A5        2.13488  -0.00028   0.00089  -0.00230  -0.00141   2.13347
    A6        2.07857   0.00023  -0.00427   0.00638   0.00211   2.08068
    A7        1.94150  -0.00587  -0.00577  -0.02238  -0.02815   1.91335
    A8        2.17729   0.00040  -0.00058   0.00181   0.00123   2.17853
    A9        2.00962  -0.00026   0.00048  -0.00146  -0.00098   2.00865
   A10        2.09627  -0.00014   0.00010  -0.00036  -0.00025   2.09601
   A11        2.20237  -0.00001   0.00144  -0.00367  -0.00229   2.20007
   A12        2.20321   0.00005   0.00147  -0.00343  -0.00205   2.20116
   A13        1.84039  -0.00012  -0.00350   0.00163  -0.00192   1.83847
   A14        3.13880  -0.00022  -0.01893   0.02659   0.00762   3.14641
   A15        3.14222  -0.00001  -0.00008  -0.00362  -0.00370   3.13852
    D1        0.00004   0.00000  -0.00000   0.00001   0.00001   0.00004
    D2       -3.14153   0.00000  -0.00000   0.00002   0.00002  -3.14151
    D3       -3.14157  -0.00000   0.00000  -0.00001  -0.00001  -3.14157
    D4        0.00005   0.00000   0.00000   0.00000   0.00000   0.00005
    D5        0.00017   0.00000  -0.00001   0.00003   0.00002   0.00019
    D6       -3.14143   0.00000  -0.00000   0.00001   0.00001  -3.14142
    D7        3.14157   0.00000   0.00000   0.00005   0.00005  -3.14156
    D8       -0.00001  -0.00000  -0.00000  -0.00003  -0.00004  -0.00005
    D9       -0.00005   0.00000   0.00000   0.00004   0.00005  -0.00001
   D10        3.14156  -0.00000  -0.00000  -0.00004  -0.00005   3.14151
   D11       -1.73799  -0.00014   0.00351  -0.01788  -0.01447  -1.75246
   D12        1.73481   0.00014  -0.00355   0.01945   0.01599   1.75079
   D13       -2.86481   0.00031   0.00200   0.02022   0.02209  -2.84271
         Item               Value     Threshold  Converged?
 Maximum Force            0.005875     0.000450     NO 
 RMS     Force            0.001269     0.000300     NO 
 Maximum Displacement     0.055139     0.001800     NO 
 RMS     Displacement     0.030333     0.001200     NO 
 Predicted change in Energy=-1.251809D-04
 GradGradGradGradGradGradGradGradGradGradGradGradGradGradGradGradGradGrad

                          Input orientation:                          
 ---------------------------------------------------------------------
 Center     Atomic      Atomic             Coordinates (Angstroms)
 Number     Number       Type             X           Y           Z
 ---------------------------------------------------------------------
      1          6           0       -0.912382    0.713400   -0.234717
      2          6           0       -1.652276    0.295444   -1.301643
      3          1           0       -0.991550    0.206527    0.733328
      4          8           0       -0.035056    1.732855   -0.196436
      5          6           0       -2.551098   -0.841166   -1.124911
      6          1           0        0.009873    2.163018   -1.078921
      7          8           0       -3.271823   -1.314512   -2.009220
      8          1           0       -1.593322    0.782255   -2.278877
      9          1           0       -2.556830   -1.286294   -0.098444
     10          8           0        0.092809    2.948331   -2.667354
     11          1           0        0.778682    2.812540   -3.333361
     12          1           0       -0.351047    3.767470   -2.921178
 ---------------------------------------------------------------------
                    Distance matrix (angstroms):
                    1          2          3          4          5
     1  C    0.000000
     2  C    1.363987   0.000000
     3  H    1.095581   2.141394   0.000000
     4  O    1.345531   2.429616   2.027072   0.000000
     5  C    2.427861   1.459793   2.642518   3.717272   0.000000
     6  H    1.914323   2.510016   2.848676   0.982771   3.947887
     7  O    3.581655   2.390723   3.877470   4.800968   1.235113
     8  H    2.155693   1.093366   3.125215   2.769186   2.210084
     9  H    2.592596   2.183529   2.317425   3.934997   1.118841
    10  O    3.452977   3.456632   4.500885   2.756659   4.871310
    11  H    4.107029   4.046383   5.144219   3.415873   5.414264
    12  H    4.106035   4.046117   5.142565   3.415220   5.413532
                    6          7          8          9         10
     6  H    0.000000
     7  O    4.871161   0.000000
     8  H    2.432414   2.699354   0.000000
     9  H    4.409882   2.040362   3.156189   0.000000
    10  O    1.773898   5.470441   2.772334   5.617111   0.000000
    11  H    2.468896   5.932327   3.295512   6.196028   0.965622
[...]
 00037366,0.00022511,-0.00000296,0.00014756,-0.00007602,-0.00001431,0.0
 0019945,-0.00031312,-0.00041216,-0.00004617,0.00000099,-0.00016852,0.0
 0011501,-0.00007491,-0.00020857,-0.00007154,-0.00018003,0.00009616,0.0
 0012720,-0.00004496,0.00013890,0.00003237,0.00007250,0.00004108,-0.000
 18151,-0.00005282,0.00000990,0.00008660,-0.00007839,0.00003919,0.00002
 188,0.00011216,-0.00007451,-0.00005947,0.00024167,0.00017252,0.0018469
 9,0.00174851,0.00077051,-0.00051224,-0.00048094,-0.00046775,-0.0004534
 6,-0.00009427,0.00013048,0.00143830,-0.00359875,0.00268825,0.00041316,
 0.00050337,-0.00009393,-0.02048661,0.01331085,-0.00285205,-0.00029079,
 -0.00020929,-0.00022436,-0.00005983,-0.00047089,-0.00001253,0.00004342
 ,0.00002409,-0.00000309,0.02466061,0.00610178,0.00524895,0.00477894,-0
 .00203216,-0.00180179,-0.00125643,-0.00100686,-0.00157162,-0.00009689,
 -0.00476893,-0.00523564,0.00720087,0.00153348,0.00195127,-0.00026409,0
 .01405910,-0.00444342,-0.02260065,-0.00112197,-0.00095793,-0.00093196,
 -0.00072861,-0.00044065,-0.00018593,0.00009471,0.00012831,0.00002331,-
 0.02693944,0.01082611,-0.00936536,-0.00719315,-0.00891971,0.00314959,0
 .00301414,0.00170208,0.00225512,0.00241793,0.00016201,0.00542319,0.010
 42839,-0.00583416,-0.00249218,-0.00310636,0.00037452,-0.00463555,-0.02
 461805,0.01381130,0.00189935,0.00158012,0.00152032,0.00059030,0.000527
 34,0.00073845,-0.00017242,-0.00017245,-0.00003517,-0.00145990,0.012865
 21,0.01427016,-0.00110572,-0.00103906,-0.00038744,0.00051072,0.0004449
 5,0.00022822,0.00016860,0.00018486,-0.00010113,0.00059552,0.00201342,-
 0.00209004,-0.00037408,-0.00040175,-0.00007262,0.00159024,-0.00671144,
 0.00636804,0.00024522,0.00021439,0.00020462,-0.00005951,0.00001874,-0.
 00005816,0.00000701,0.00001425,-0.00002586,-0.00981059,0.00888257,-0.0
 0039996,0.00751116,0.00111609,0.00108254,0.00078310,-0.00030605,-0.000
 42281,-0.00027489,-0.00023440,-0.00020878,0.00001021,-0.00036505,-0.00
 128790,0.00070432,0.00025788,0.00031794,-0.00006042,-0.00406931,0.0025
 9694,-0.00685167,-0.00018621,-0.00015356,-0.00015912,-0.00015837,-0.00
 013670,-0.00003585,0.00002252,0.00002659,0.00000253,0.00945091,0.00040
 693,0.00603000,-0.00465965,-0.00328311,-0.00104556,-0.00069689,-0.0007
 7545,0.00040656,0.00023774,0.00005498,0.00025678,0.00017757,0.00003482
 ,0.00023402,0.00098287,-0.00042169,-0.00019258,-0.00025626,0.00011446,
 0.00573779,-0.00379350,0.00177470,0.00015140,0.00011209,0.00010308,0.0
 0001600,0.00017552,0.00009836,-0.00002077,-0.00003192,-0.00000153,-0.0
 0575418,0.00721284,-0.00466509,-0.00153518,-0.00155480,0.00213552,0.00
 085203,0.00067654,0.00038840,-0.00038723,-0.00014041,-0.00016602,-0.00
 010267,-0.00015788,0.00002214,-0.00059362,-0.00070042,0.00075761,0.000
 18770,0.00022658,-0.00000403,-0.00097758,0.00086752,-0.00634096,-0.000
 14153,-0.00010507,-0.00011787,-0.00003881,-0.00013869,-0.00002414,0.00
 001091,0.00001156,0.00000458,0.00321103,0.00592633,0.00520781,0.000721
 42,-0.00086835,0.00174572,-0.00274166,-0.00037827,-0.00052102,0.000060
 51,0.00024549,0.00025398,0.00013804,0.00001746,0.00006433,-0.00010258,
 0.00046068,0.00118165,-0.00164772,-0.00022362,-0.00021195,-0.00011795,
 -0.00239123,-0.00345108,0.00411878,0.00015057,0.00011109,0.00011206,-0
 .00009492,-0.00007203,-0.00009376,0.00001697,0.00003086,-0.00002205,0.
 00675585,-0.00411052,-0.00177311,0.00103872,0.00106192,-0.00256526,-0.
 00559770,0.00566276,-0.00153741,-0.00151140,-0.00114194,0.00051395,0.0
 0063800,0.00027949,0.00023532,0.00040513,0.00003465,0.00127876,0.00144
 929,-0.00168334,-0.00037800,-0.00050304,0.00008280,-0.00424620,0.00268
 888,0.01036593,0.00027664,0.00024298,0.00022709,0.00021265,0.00005993,
 0.00001284,-0.00003052,-0.00002420,-0.00000944,0.00727855,-0.00674522,
 -0.01312473,-0.00213048,0.00140660,0.00154783,-0.00147325,0.00189304,0
 .00340880,-0.00028764,0.00048151,0.00030888,-0.00007879,-0.00013987,-0
 .00004460,-0.00003261,-0.00012066,0.00034637,0.00004787,0.00002695,-0.
 00030546,0.00011576,0.00024135,0.00023132,-0.00006118,-0.00038583,0.00
 007973,-0.00031895,0.00010232,-0.00011587,0.00013211,-0.00002754,0.000
 06491,-0.00008607,-0.00010996,-0.00002053,-0.00006346,-0.00007758,0.00
 002250,0.00009140,-0.00000711,-0.00003189,0.00001710,-0.00002374,-0.00
 003890,0.00005704,0.00016234,-0.00008413,-0.00003746,-0.00008374,0.000
 03577,-0.00001182,-0.00004808,0.00008112,0.00001505,-0.00036908,-0.000
 47951,-0.00003138,0.00000163,0.00020004,0.00000805,0.00012227,-0.00000
 507,-0.00215775,-0.00058261,-0.00013742,-0.00057730,0.00008615,-0.0000
 1319,0.00034871,0.00013002,0.00009435,-0.00002505,0.00065406,0.0002132
 8,0.00004475,0.00009174,0.00038126,-0.00014790,-0.00014734,-0.00019838
 ,-0.00005834,-0.00008079,-0.00003577,0.00004806,-0.00471336,0.00846592
 ,0.00017661,0.00008079,-0.00004012,-0.00010057,-0.00009088,0.00016457,
 0.00002750,0.00000969,-0.00002751,-0.00005113,-0.00009014,0.00010810,0
 .00037642,0.00001736,0.00015466,0.00008764,-0.00012008,0.00014054,-0.0
 0012187,0.00005490,0.00001815,-0.00002747,-0.00005667,-0.00007657,0.00
 008796,0.00010875,-0.00048389,-0.00000809,0.00005822,0.00008657,0.0000
 0548,0.00001077,-0.00004427,-0.00001603,-0.00001423,-0.00000938,0.0000
 0186,-0.00005624,-0.00000691,-0.00018754,0.00000446,0.00047892,-0.0000
 2876,0.00001982,0.00002732,0.00014774,-0.00009825,0.00004308,-0.000016
 87,0.00000306,-0.00000680,0.00268315,-0.00036027,0.00008471,-0.0000714
 0,0.00002492,0.00002608,-0.00396217,0.00036626,0.00024081,0.00033300,-
 0.00012604,0.00004995,0.00000885,-0.00005847,-0.00007760,-0.00003042,-
 0.00052195,-0.00009020,0.00565328,0.00007827,0.00002828,-0.00003277,0.
 00059226,-0.00077892,-0.00069910,-0.00054647,-0.00071712,0.00007928,0.
 00007198,0.00026336,0.00013249,0.00013698,0.00004099,0.00041204,0.0060
 3827,-0.00997411,-0.00011454,-0.00018306,0.00006016,0.00021588,-0.0071
 2549,0.01262150,-0.00005146,-0.00001234,0.00001426,-0.00001114,-0.0000
 1416,-0.00006586,-0.00000155,-0.00000438,0.00000559,0.00004743,0.00006
 287,-0.00004939,-0.00020778,-0.00003055,0.00008917,0.00000684,-0.00004
 409,0.00009745,0.00016208,0.00003066,-0.00000133,-0.00003103,0.0000626
 0,-0.00003131,0.00010672,-0.00000153,-0.00000646,0.00001410,0.00002939
 ,0.00004486,-0.00001430,-0.00003047,0.00008433,-0.00008119,-0.00000465
 ,-0.00003296,0.00008064,-0.00002153,-0.00000989,0.00000257,-0.00001112
 ,-0.00005071,0.00001019,0.00002290,0.00004768,-0.00000239,0.00000808,0
 .00000311,0.00003941,0.00007440,-0.00002650,0.00008216,-0.00002953,-0.
 00018923,-0.00000094,-0.00003511,0.00008168,-0.00009337,0.00003275,0.0
 0017288,-0.00012057,-0.00018116,0.00001472,0.00012971,-0.00000371,-0.0
 0008225,-0.00001290,0.00002411,0.00003688,0.00008496,0.00014357,-0.000
 12065,0.00003604,0.00002371,0.00009524,-0.00004810,-0.00005429,0.00014
 016,-0.00002061,0.00000546,-0.00001263,-0.00001945,-0.00021031,-0.0002
 1513,0.00003307,-0.00005936,0.00004798,-0.00012285,0.00004581,-0.00001
 468,0.00002324,0.00009190,0.00019013,-0.00014914,0.00006404,0.00004743
 ,0.00015862,0.00002372,-0.00008674,0.00014505,-0.00000091,-0.00001912,
 -0.00002254,-0.00007604,-0.00004508,0.00010858,0.00012401,0.00003769,0
 .00012887,0.00017697,0.00011501,-0.00000095,-0.00001459,-0.00001117,-0
 .00002974,-0.00004077,0.00002715,-0.00005680,-0.00006754,-0.00006271,-
 0.00004478,-0.00007290,-0.00001082,-0.00000790,-0.00000674,-0.00000835
 ,-0.00002807,0.00003455,-0.00006332,-0.00003039,0.00000612,0.00000244,
 0.00003602,-0.00002053,0.00001957,0.00001075,-0.00000968,0.00001377,0.
 00001153,0.00001011,0.00000152,-0.00015828,0.00002823,0.00009823,0.000
 00027,0.00000943,-0.00002422,0.00006409,-0.00007191,-0.00004134,-0.000
 02687,-0.00002600,0.00002532,0.00007445,0.00003825,-0.00001131,0.00002
 559,-0.00013083,-0.00002844,-0.00009919,-0.00000434,-0.00000473,0.0000
 2046,-0.00000946,-0.00001809,0.00001315,0.00001396,0.00016879,0.000036
 10,-0.00000328,0.00001832,-0.00003594,0.00002207,-0.00006206,-0.000090
 79,-0.00000676,-0.00002219,0.00001000,0.00005393,-0.00006375,0.0000216
 3,0.00000728,0.00002438,0.00004993,-0.00012541,0.00002077,0.00001038,-
 0.00000321,-0.00000756,-0.00002065,-0.00000537,0.00000134,-0.00003899,
 0.00007795,-0.00027186,-0.00000415,0.00000336,-0.00000438,0.00008841,-
 0.00004011,0.00003709,0.00000049,-0.00001759,-0.00000294,-0.00010539,0
 .00010855,0.00019674,0.00022021,-0.00010236,0.00017611,-0.00031120,0.0
 0044159,-0.00004515,-0.00001230,-0.00005874,0.00000540,-0.00019288,-0.
 00015581,0.00027654,0.00023532,-0.00016911,-0.00010604,-0.00052156,0.0
 0020627,-0.00026189,0.00000302,0.00001896,0.00003215,-0.00015474,0.000
 53156,-0.00011389,-0.00000924,0.00002229,-0.00000131,1.92196591,-0.000
 07909,0.00001476,0.00032301,0.00040203,-0.00008223,-0.00026938,-0.0000
 5351,-0.00004341,0.00003522,-0.00012383,-0.00015228,-0.00036029,-0.000
 18790,0.00017557,0.00004692,0.00045350,-0.00012867,0.00016149,0.000036
 81,0.00000599,0.00003019,0.00043527,0.00008914,-0.00033523,0.00001394,
 -0.00000243,-0.00001484,-1.41315331,2.21049927,0.00010884,0.00024691,-
 0.00002330,0.00005522,-0.00015746,-0.00016359,-0.00000585,0.00002201,-
 0.00003220,0.00019832,-0.00045045,0.00142916,-0.00006236,0.00009347,0.
 00001367,-0.00082813,-0.00051383,-0.00169159,-0.00000915,-0.00001794,-
 0.00000498,0.00011629,-0.00005826,-0.00009901,0.00001234,0.00000593,0.
 00000678,-1.68387129,-0.35432046,-0.08799379,0.00029813,0.00049957,0.0
 0000091,-0.00000431,-0.00037959,-0.00029371,0.00001038,0.00001180,-0.0
 0002440,-0.00040975,-0.00028680,0.00013574,0.00007806,0.00034524,0.000
 10348,0.00083322,0.00013396,-0.00129563,-0.00012042,-0.00013663,-0.000
 11745,0.00015957,0.00008221,0.00018919,-0.00000131,-0.00002815,0.00003
 423,-2.13827758,0.22150021,1.81239984,2.15742824,-0.00027497,-0.000346
 20,-0.00014336,0.00020903,-0.00001853,0.00044317,0.00001733,0.00004422
 ,-0.00001091,0.00028828,0.00023515,-0.00039450,-0.00024726,-0.00029397
 ,-0.00011874,-0.00035138,0.00020437,0.00176727,0.00013788,0.00009850,0
 .00009277,-0.00042460,-0.00005227,0.00001595,0.00001255,0.00004165,-0.
 00002346,0.15099198,0.62611939,-0.08299864,-0.23169897,-0.62117681,0.0
 0007528,0.00011592,0.00017253,-0.00005328,0.00008282,0.00011912,-0.000
 02032,-0.00008022,0.00000313,-0.00017213,-0.00012225,-0.00009220,0.000
 03448,-0.00008434,-0.00007326,0.00074122,0.00037699,-0.00003411,0.0000
 0712,0.00002769,0.00000952,-0.00023562,-0.00000553,0.00001960,0.000006
 50,0.00001219,-0.00001346,1.83553907,-0.12856093,-0.51131651,-1.842857
 11,0.12164246,0.48389725,-0.00029065,-0.00027460,-0.00004867,0.0002159
 1,0.00000547,0.00046038,0.00000437,0.00001029,-0.00000561,-0.00000729,
 0.00038883,-0.00032312,-0.00034075,-0.00022667,-0.00010178,0.00097764,
 -0.00058161,0.00131808,0.00012954,0.00011965,0.00010165,-0.00000704,-0
 .00046661,-0.00016982,0.00002900,0.00003235,-0.00003459,0.21705504,1.1
 9075589,-0.12811410,-0.01999422,0.08134011,0.00693479,-0.19777153,0.00
 026360,0.00027527,-0.00011795,-0.00043713,0.00004120,-0.00002772,0.000
 03102,0.00003844,-0.00002969,-0.00010657,-0.00029007,0.00001358,0.0002
 9118,0.00003668,-0.00001190,-0.00029944,0.00065336,-0.00051071,-0.0001
 3166,-0.00007052,-0.00007199,0.00011445,0.00008054,0.00017628,-0.00000
 619,-0.00001576,0.00003282,1.26142669,-2.83649511,0.43814872,0.0099571
 5,-0.00485551,0.00659521,-1.27110311,2.84060148,0.00042850,0.00027697,
 0.00013762,-0.00011780,-0.00006964,-0.00015930,-0.00007154,-0.00003444
 ,0.00001609,-0.00019263,-0.00047059,0.00002905,0.00013855,0.00016231,0
 .00001836,-0.00025348,0.00143502,-0.00063557,-0.00007633,-0.00007059,-
 0.00007217,0.00007543,-0.00001863,0.00005887,-0.00000872,-0.00000605,0
 .00001311,-0.15162971,0.48326429,0.59987533,0.03172492,-0.04027200,0.0
 2730837,0.11998280,-0.44419665,-0.62658975,-0.00034886,-0.00104544,-0.
 00049983,0.00001686,0.00032982,0.00033359,0.00016816,0.00054861,-0.000
 15330,0.00025573,0.00037638,0.00015226,-0.00041616,-0.00065524,-0.0000
 0693,0.00017813,-0.00004323,-0.00025056,-0.00012064,0.00026397,0.00096
 675,-0.00006766,0.00014176,-0.00001505,0.00004691,-0.00011018,-0.00003
 796,-0.00003496,0.00009336,0.00004479,-0.00021857,-0.00001972,0.000050
 89,0.00011238,-0.00005718,-0.00006959,-0.00002890,-0.00015366,0.000097
 58,-0.00002173,0.00004989,-0.00009202,0.00001343,0.00004229,-0.0000102
 2,0.00046411,0.00049747,0.00024811,-0.00014702,-0.00000196,-0.00024083
 ,0.00001572,-0.00000139,0.00005631,-0.00040055,0.00058364,0.00031270,0
 .00030037,-0.00018808,-0.00002116,-0.00027092,-0.00000673,-0.00002076,
 0.00007567,-0.00051786,-0.00033391,0.00007339,0.00014316,-0.00020755,0
 .00003869,-0.00002641,0.00008067,0.00003358,0.00005595,-0.00001098,-0.
 00013849,-0.00012195,0.00011720,-0.00011889,-0.00013393,-0.00007379,-0
 .00027383,0.00032173,0.00028065,0.00000955,-0.00001323,0.00000619,0.00
 006871,0.00008240,0.00000223,0.00075139,-0.00016349,-0.00014465,0.0000
 4781,0.00036304,0.00013087,-0.00006527,0.00002966,-0.00003642,0.000000
 61,0.00004187,0.00010370,-0.00002928,-0.00006518,-0.00039473,-0.000119
 49,-0.00007469,-0.00001056,-0.00004956,-0.00012919,-0.00043649,0.00002
 549,0.00002320,0.00000665,0.00006754,0.00002891,-0.00001416,-0.0000674
 8,0.00038726,0.00041645,-0.00019478,0.00025910,0.00008037,0.00012037,-
 0.00021616,-0.00001147,0.00004753,-0.00006097,-0.00002205,-0.00017525,
 -0.00002375,0.00003047,-0.00003196,0.00002908,0.00000381,0.00083522,0.
 00021316,-0.00014688,-0.00008642,-0.00018309,0.00003335,0.00010291,-0.
 00004327,0.00004779,0.00000878,0.00002987,-0.00001567,-0.00024270,-0.0
 0000668,-0.00003670,-0.00001126,0.00018111,0.00074000,0.00026596,0.000
 11377,0.00001391,-0.00011637,-0.00000108,-0.00001373,-0.00006737,-0.00
 004234,0.00003295,-0.00014056,-0.00045139,0.00044104,0.00006908,0.0000
 8281,-0.00000665,-0.00022282,0.00051518,-0.00102770,0.00005148,0.00001
 847,0.00006057,0.00006456,-0.00003366,-0.00015647,-0.00000138,0.000000
 57,-0.00001070,-0.00004679,-0.00004938,0.00000116,-0.00028237,-0.00010
 586,-0.00000904,-0.00000135,0.00002232,-0.00004736,0.00015373,0.000058
 69,0.00007130,0.00001721,-0.00000422,0.00003524,0.00005687,-0.00000137
 ,0.00000387,-0.00000505,-0.00002276,-0.00004952,0.00002071,-0.00006058
 ,0.00012818,-0.00019689,-0.00000078,0.00001443,-0.00004599,0.00008046,
 -0.00009457,0.00005647,0.00004686,0.00002218,0.00003383,0.00010534,0.0
 0004954,-0.00000755,0.00000214,0.00000510,-0.00004967,-0.00005599,0.00
 001461,-0.00012032,-0.00026806,-0.00017572,-0.00000055,0.00001001,-0.0
 0003380,0.00005195,0.00016025,0.00013597,0.00011252,-0.00009284,-0.000
 02913,-0.00022219,0.00027713,0.00017688,-0.00001797,0.00003880,0.00000
 271,-0.00002587,-0.00002007,-0.00000998,0.00000784,-0.00008094,-0.0000
 0747,-0.00009550,-0.00001387,-0.00007681,-0.00002793,0.00001324,0.0000
 2432,0.00022041,-0.00005916,0.00013063,0.00005286,0.00032907,-0.000244
 20,0.00002790,0.00003703,-0.00001034,-0.00002332,-0.00003982,-0.000043
 71,0.00000233,-0.00010546,0.00000808,0.00001549,-0.00004517,-0.0000639
 2,-0.00010333,0.00002119,-0.00003426,0.00000953,-0.00037368,0.00016696
 ,-0.00008140,-0.00002977,0.00004660,0.00014258,0.00003807,-0.00020706,
 0.00001935,0.00000376,-0.00000274,0.00000730,0.00002371,-0.00003365,-0
 .00001131,-0.00003619,0.00008663,-0.00000926,-0.00002111,-0.00003624,-
 0.00000447,-0.00001419,-0.00000875,-0.00017115,-0.00001479,0.00020068,
 -0.00000506,0.00000490,-0.00002736,0.00009340,0.00002889,0.00008165,0.
 00000374,-0.00000151,-0.00000834,0.00000921,0.00001999,0.00000245,-0.0
 0017987,-0.00001353,0.00008998,0.00000722,-0.00000480,0.00000643,0.000
 08120,-0.00005719,0.00001633,0.00001304,-0.00001412,-0.00000566,-0.000
 00690,0.00003852,0.00002986,0.00001594,-0.00007129,-0.00001333,0.00001
 510,-0.00000512,0.00000170,-0.00001042,-0.00000767,-0.00002510,0.00000
 868,-0.00005653,0.00018501,-0.00013807,-0.00000343,0.00001183,-0.00000
 290,0.00007991,-0.00005937,0.00001153,-0.00000530,0.00002995,-0.000010
 95,0.00003772,-0.00013913,-0.00000948,-0.00000496,0.00000454,0.0000838
 4,-0.00004546,-0.00008717,0.00000932,-0.00000960,-0.00000251,-0.000002
 19,0.00001105,0.00000369,0.00001561,-0.00001776,0.00012051,-0.00000649
 ,-0.00000222,0.00001040,0.00005315,-0.00004993,-0.00006198,-0.00000605
 ,-0.00000964,0.00000111,-0.00015163,0.00011414,0.00002007,-0.00060172,
 -0.00072473,-0.00014996,0.00011385,0.00050170,-0.00013398,0.00001560,0
 .00004133,0.00000951,0.00112006,0.00031847,0.00009341,0.00014581,-0.00
 029245,0.00001641,-0.00228402,-0.00043250,0.00089499,0.00004778,0.0000
 6317,0.00007727,-0.00013451,0.00020443,0.00010769,-0.00005483,-0.00000
 863,0.00002012,1.86625584,-0.00043471,-0.00043931,-0.00001565,0.000326
 85,0.00021304,-0.00021840,0.00001194,-0.00001060,0.00000502,0.00017048
 ,0.00094299,0.00017741,-0.00019224,0.00010750,0.00012584,0.00001553,-0
 .00230201,0.00019873,0.00003997,0.00000603,0.00001849,0.00014445,-0.00
 019513,0.00002779,0.00000286,-0.00004855,-0.00000227,-1.33577725,2.288
 61698,-0.00082480,-0.00081300,-0.00030775,0.00027400,0.00026028,-0.000
 12312,0.00007607,0.00008364,-0.00000795,0.00042684,0.00056567,0.000668
 91,-0.00021290,-0.00015160,0.00013843,-0.00013667,-0.00102415,-0.00023
 397,0.00012887,0.00008091,0.00013543,0.00025051,0.00020162,-0.00011386
 ,-0.00001196,-0.00003558,0.00000950,-1.78024113,-0.49393796,-0.1253666
 2,0.00034225,0.00042552,0.00001155,-0.00008435,-0.00035255,-0.00020030
 ,0.00001391,-0.00002364,-0.00000945,-0.00062987,0.00006831,-0.00014662
 ,-0.00000607,0.00024198,0.00007773,0.00097170,-0.00040220,-0.00045489,
 -0.00004655,-0.00006844,-0.00007945,0.00003795,0.00020721,0.00011209,0
 .00001902,-0.00001030,0.00000639,-2.19164756,0.10889849,1.94343970,2.1
 8728424,0.00010630,0.00011324,-0.00000250,-0.00009035,-0.00020353,0.00
 011640,0.00001853,-0.00001986,0.00000124,-0.00023481,-0.00029922,0.000
 19452,-0.00000569,-0.00004903,-0.00002895,0.00036158,0.00088017,-0.000
 17186,0.00000306,0.00000321,0.00000580,-0.00013142,0.00015993,0.000006
 81,0.00000587,0.00001718,-0.00000241,0.10796200,0.71523069,-0.05870618
 ,-0.10568980,-0.72072434,0.00005127,0.00031911,0.00019124,0.00009501,-
 0.00014484,0.00006800,-0.00001260,-0.00003861,-0.00001139,-0.00013083,
 -0.00004684,-0.00046921,0.00004008,-0.00001567,-0.00008151,0.00056153,
 0.00018684,0.00032810,-0.00002167,-0.00000162,-0.00002817,-0.00020186,
 -0.00002647,0.00004540,0.00000300,0.00002134,-0.00001215,1.94173163,-0
 .05865528,-0.53465302,-1.93841770,0.05981830,0.53509782,0.00019847,0.0
 0010122,0.00003109,-0.00013558,-0.00013613,0.00018444,-0.00003100,0.00
 000358,0.00001303,-0.00025247,-0.00026697,0.00001971,-0.00009037,0.000
 01577,-0.00002796,0.00080081,0.00063994,-0.00011028,0.00000764,-0.0000
 0022,-0.00000263,0.00013220,-0.00016151,-0.00010575,0.00001982,0.00001
 212,-0.00001258,0.32702371,1.22679363,-0.16316852,0.00374532,-0.002305
 26,-0.00369788,-0.33141857,0.00023284,0.00037596,-0.00002476,-0.000355
 58,-0.00012653,-0.00009760,-0.00001509,0.00001852,0.00000893,0.0000865
 5,-0.00055037,-0.00018242,0.00023535,-0.00000185,-0.00000171,-0.000496
 14,0.00083761,-0.00009159,-0.00007707,-0.00002453,-0.00004589,0.000244
 50,0.00009602,0.00002684,-0.00000909,0.00000996,0.00001906,1.22814448,
 -3.00212164,0.55347635,-0.00329460,0.00489155,-0.00141625,-1.22469617,
 2.99659528,0.00042203,0.00016661,0.00006674,-0.00020639,0.00004555,0.0
 0004520,-0.00003671,-0.00001422,-0.00000447,-0.00010350,-0.00005828,-0
 .00059055,0.00007195,0.00006535,-0.00004356,-0.00026689,0.00056413,0.0
 0052568,-0.00004599,-0.00002226,-0.00005439,0.00004802,-0.00013220,0.0
 0002188,0.00000514,0.00001118,-0.00000601,-0.16242593,0.55227627,0.659
 85403,-0.00433906,-0.00123117,-0.00047510,0.16687733,-0.55167095,-0.65
 933945\\@
 The archive entry for this job was punched.


 Sacred cows make the best hamburger.
                               -- Mark Twain
 Job cpu time:       6 days 18 hours 53 minutes 29.2 seconds.
 Elapsed time:       0 days  4 hours  8 minutes 10.0 seconds.
 File lengths (MBytes):  RWF=   6518 Int=      0 D2E=      0 Chk=     47 Scr=      1
 Normal termination of Gaussian 16 at Sat Mar 22 23:30:05 2025.
