 Entering Gaussian System, Link 0=g16
 Input=enoloneto2_h2o_mp2_avdz_opt_anharm.gjf
 Output=enoloneto2_h2o_mp2_avdz_opt_anharm.log
 Initial command:
 /sw/contrib/chem-src/g16/c01/g16/l1.exe "/scr/Gau-49840.inp" -scrdir="/scr/"
 Entering Link 1 = /sw/contrib/chem-src/g16/c01/g16/l1.exe PID=     49841.
  
 Copyright (c) 1988-2019, Gaussian, Inc.  All Rights Reserved.
  
 This is part of the Gaussian(R) 16 program.  It is based on
 the Gaussian(R) 09 system (copyright 2009, Gaussian, Inc.),
 the Gaussian(R) 03 system (copyright 2003, Gaussian, Inc.),
 the Gaussian(R) 98 system (copyright 1998, Gaussian, Inc.),
 the Gaussian(R) 94 system (copyright 1995, Gaussian, Inc.),
 the Gaussian 92(TM) system (copyright 1992, Gaussian, Inc.),
 the Gaussian 90(TM) system (copyright 1990, Gaussian, Inc.),
 the Gaussian 88(TM) system (copyright 1988, Gaussian, Inc.),
 the Gaussian 86(TM) system (copyright 1986, Carnegie Mellon
 University), and the Gaussian 82(TM) system (copyright 1983,
 Carnegie Mellon University). Gaussian is a federally registered
 trademark of Gaussian, Inc.
  
 This software contains proprietary and confidential information,
 including trade secrets, belonging to Gaussian, Inc.
  
 This software is provided under written license and may be
 used, copied, transmitted, or stored only in accord with that
 written license.
  
 The following legend is applicable only to US Government
 contracts under FAR:
  
                    RESTRICTED RIGHTS LEGEND
  
 Use, reproduction and disclosure by the US Government is
 subject to restrictions as set forth in subparagraphs (a)
 and (c) of the Commercial Computer Software - Restricted
 Rights clause in FAR 52.227-19.
  
 Gaussian, Inc.
 340 Quinnipiac St., Bldg. 40, Wallingford CT 06492
  
  
 ---------------------------------------------------------------
 Warning -- This program may not be used in any manner that
 competes with the business of Gaussian, Inc. or will provide
 assistance to any competitor of Gaussian, Inc.  The licensee
 of this program is prohibited from giving any competitor of
 Gaussian, Inc. access to this program.  By using this program,
 the user acknowledges that Gaussian, Inc. is engaged in the
 business of creating and licensing software in the field of
 computational chemistry and represents and warrants to the
 licensee that it is not a competitor of Gaussian, Inc. and that
 it will not use this program in any manner prohibited above.
 ---------------------------------------------------------------
  

 Cite this work as:
 Gaussian 16, Revision C.01,
 M. J. Frisch, G. W. Trucks, H. B. Schlegel, G. E. Scuseria, 
 M. A. Robb, J. R. Cheeseman, G. Scalmani, V. Barone, 
 G. A. Petersson, H. Nakatsuji, X. Li, M. Caricato, A. V. Marenich, 
 J. Bloino, B. G. Janesko, R. Gomperts, B. Mennucci, H. P. Hratchian, 
 J. V. Ortiz, A. F. Izmaylov, J. L. Sonnenberg, D. Williams-Young, 
 F. Ding, F. Lipparini, F. Egidi, J. Goings, B. Peng, A. Petrone, 
 T. Henderson, D. Ranasinghe, V. G. Zakrzewski, J. Gao, N. Rega, 
 G. Zheng, W. Liang, M. Hada, M. Ehara, K. Toyota, R. Fukuda, 
 J. Hasegawa, M. Ishida, T. Nakajima, Y. Honda, O. Kitao, H. Nakai, 
 T. Vreven, K. Throssell, J. A. Montgomery, Jr., J. E. Peralta, 
 F. Ogliaro, M. J. Bearpark, J. J. Heyd, E. N. Brothers, K. N. Kudin, 
 V. N. Staroverov, T. A. Keith, R. Kobayashi, J. Normand, 
 K. Raghavachari, A. P. Rendell, J. C. Burant, S. S. Iyengar, 
 J. Tomasi, M. Cossi, J. M. Millam, M. Klene, C. Adamo, R. Cammi, 
 J. W. Ochterski, R. L. Martin, K. Morokuma, O. Farkas, 
 J. B. Foresman, and D. J. Fox, Gaussian, Inc., Wallingford CT, 2019.
 
 ******************************************
 Gaussian 16:  EM64L-G16RevC.01  3-Jul-2019
                22-Mar-2025 
 ******************************************
 %nprocshared=40
 Will use up to   40 processors via shared memory.
 %mem=50gb
 ----------------------------------------------
 # MP2/aug-cc-pVDZ opt freq=(vibrot,anharmonic)
 ----------------------------------------------
 1/18=20,19=15,38=1,80=1/1,3;
 2/9=110,12=2,17=6,18=5,40=1/2;
 3/5=16,7=10,11=9,25=1,30=1,71=1/1,2,3;
 4//1;
 5/5=2,38=5/2;
 8/6=4,10=1/1;
 9/15=2,16=-3/6;
 10/5=1/2;
 6/7=2,8=2,9=2,10=2/1;
 7/12=2/1,2,3,16;
 1/18=20,19=15,80=1/3(2);
 2/9=110/2;
 99//99;
 2/9=110/2;
 3/5=16,7=10,11=9,25=1,30=1,71=1/1,2,3;
 4/5=5,16=3,69=1/1;
 5/5=2,38=5/2;
 8/6=4,10=1/1;
 9/15=2,16=-3/6;
 10/5=1/2;
 7/12=2/1,2,3,16;
 1/18=20,19=15,80=1/3(-8);
 2/9=110/2;
 6/7=2,8=2,9=2,10=2/1;
 99/9=10/99;
 ----
 blah
 ----
 Symbolic Z-matrix:
 Charge =  0 Multiplicity = 1
 C                    -0.70433   0.84529  -0.18717 
 C                    -1.38162   0.45738  -1.26801 
 H                    -0.8251    0.43354   0.8073 
 O                     0.23876   1.83608  -0.24382 
 C                    -2.38695  -0.6126   -1.15978 
 H                     0.61386   1.96183   0.6629 
 O                    -3.02718  -0.99367  -2.13177 
 H                    -1.22562   0.89996  -2.24321 
 H                    -2.53052  -1.05002  -0.15783 
 O                     1.2962    2.23094   2.17048 
 H                     2.16728   1.92755   2.48387 
 H                     1.0965    2.95964   2.78542 
 
 Add virtual bond connecting atoms O10        and H6         Dist= 3.17D+00.

 GradGradGradGradGradGradGradGradGradGradGradGradGradGradGradGradGradGrad
 Berny optimization.
 Initialization pass.
                           ----------------------------
                           !    Initial Parameters    !
                           ! (Angstroms and Degrees)  !
 --------------------------                            --------------------------
 ! Name  Definition              Value          Derivative Info.                !
 --------------------------------------------------------------------------------
 ! R1    R(1,2)                  1.3332         estimate D2E/DX2                !
 ! R2    R(1,3)                  1.0831         estimate D2E/DX2                !
 ! R3    R(1,4)                  1.369          estimate D2E/DX2                !
 ! R4    R(2,5)                  1.4722         estimate D2E/DX2                !
 ! R5    R(2,8)                  1.0822         estimate D2E/DX2                !
 ! R6    R(4,6)                  0.9893         estimate D2E/DX2                !
 ! R7    R(5,7)                  1.2247         estimate D2E/DX2                !
 ! R8    R(5,9)                  1.1027         estimate D2E/DX2                !
 ! R9    R(6,10)                 1.6765         estimate D2E/DX2                !
 ! R10   R(10,11)                0.9742         estimate D2E/DX2                !
 ! R11   R(10,12)                0.9742         estimate D2E/DX2                !
 ! A1    A(2,1,3)              125.2478         estimate D2E/DX2                !
 ! A2    A(2,1,4)              121.802          estimate D2E/DX2                !
 ! A3    A(3,1,4)              112.9503         estimate D2E/DX2                !
 ! A4    A(1,2,5)              119.9204         estimate D2E/DX2                !
 ! A5    A(1,2,8)              122.5691         estimate D2E/DX2                !
 ! A6    A(5,2,8)              117.5105         estimate D2E/DX2                !
 ! A7    A(1,4,6)              108.3764         estimate D2E/DX2                !
 ! A8    A(2,5,7)              121.6541         estimate D2E/DX2                !
 ! A9    A(2,5,9)              116.3619         estimate D2E/DX2                !
 ! A10   A(7,5,9)              121.984          estimate D2E/DX2                !
 ! A11   A(6,10,11)            127.0995         estimate D2E/DX2                !
 ! A12   A(6,10,12)            127.1752         estimate D2E/DX2                !
 ! A13   A(11,10,12)           102.3087         estimate D2E/DX2                !
 ! A14   L(4,6,10,3,-1)        182.682          estimate D2E/DX2                !
 ! A15   L(4,6,10,3,-2)        179.9859         estimate D2E/DX2                !
 ! D1    D(3,1,2,5)              0.0004         estimate D2E/DX2                !
 ! D2    D(3,1,2,8)           -179.9994         estimate D2E/DX2                !
 ! D3    D(4,1,2,5)           -179.9998         estimate D2E/DX2                !
 ! D4    D(4,1,2,8)              0.0004         estimate D2E/DX2                !
 ! D5    D(2,1,4,6)           -179.9924         estimate D2E/DX2                !
 ! D6    D(3,1,4,6)              0.0074         estimate D2E/DX2                !
 ! D7    D(1,2,5,7)           -179.9986         estimate D2E/DX2                !
 ! D8    D(1,2,5,9)              0.0015         estimate D2E/DX2                !
 ! D9    D(8,2,5,7)              0.0012         estimate D2E/DX2                !
 ! D10   D(8,2,5,9)           -179.9987         estimate D2E/DX2                !
 ! D11   D(1,4,10,11)          103.187          estimate D2E/DX2                !
 ! D12   D(1,4,10,12)         -102.9135         estimate D2E/DX2                !
 ! D13   D(6,10,11,12)         160.1259         estimate D2E/DX2                !
 --------------------------------------------------------------------------------
 Trust Radius=3.00D-01 FncErr=1.00D-07 GrdErr=1.00D-07 EigMax=2.50D+02 EigMin=1.00D-04
 Number of steps in this run=     49 maximum allowed number of steps=    100.
 GradGradGradGradGradGradGradGradGradGradGradGradGradGradGradGradGradGrad

                          Input orientation:                          
 ---------------------------------------------------------------------
 Center     Atomic      Atomic             Coordinates (Angstroms)
 Number     Number       Type             X           Y           Z
 ---------------------------------------------------------------------
      1          6           0       -0.704329    0.845293   -0.187167
      2          6           0       -1.381617    0.457377   -1.268008
      3          1           0       -0.825099    0.433540    0.807301
      4          8           0        0.238762    1.836084   -0.243817
      5          6           0       -2.386951   -0.612605   -1.159776
      6          1           0        0.613860    1.961826    0.662904
      7          8           0       -3.027176   -0.993669   -2.131773
      8          1           0       -1.225621    0.899955   -2.243207
      9          1           0       -2.530516   -1.050024   -0.157829
     10          8           0        1.296197    2.230935    2.170483
     11          1           0        2.167281    1.927554    2.483873
     12          1           0        1.096497    2.959637    2.785420
 ---------------------------------------------------------------------
                    Distance matrix (angstroms):
                    1          2          3          4          5
     1  C    0.000000
     2  C    1.333197   0.000000
     3  H    1.083094   2.148764   0.000000
     4  O    1.369049   2.361234   2.050311   0.000000
     5  C    2.429537   1.472166   2.720881   3.705324   0.000000
     6  H    1.925329   3.158120   2.104071   0.989269   4.353703
     7  O    3.543853   2.357857   3.940079   4.715743   1.224694
     8  H    2.121800   1.082231   3.111842   2.649210   2.193251
     9  H    2.632118   2.196525   2.457821   4.000738   1.102653
    10  O    3.388307   4.705254   3.096578   2.665130   5.722056
    11  H    4.068401   5.369609   3.741297   3.341832   6.361573
    12  H    4.068132   5.369603   3.739874   3.342807   6.360809
                    6          7          8          9         10
     6  H    0.000000
     7  O    5.459150   0.000000
     8  H    3.599548   2.616072   0.000000
     9  H    4.430795   2.036247   3.139104   0.000000
    10  O    1.676543   6.899205   5.254687   5.552428   0.000000
    11  H    2.393787   7.537911   5.908724   6.157422   0.974187
    12  H    2.394502   7.537380   5.909451   6.155917   0.974183
                   11         12
    11  H    0.000000
    12  H    1.517466   0.000000
 Stoichiometry    C3H6O3
 Framework group  C1[X(C3H6O3)]
 Deg. of freedom    30
 Full point group                 C1      NOp   1
 Largest Abelian subgroup         C1      NOp   1
 Largest concise Abelian subgroup C1      NOp   1
                         Standard orientation:                         
 ---------------------------------------------------------------------
 Center     Atomic      Atomic             Coordinates (Angstroms)
 Number     Number       Type             X           Y           Z
 ---------------------------------------------------------------------
      1          6           0       -0.173243    0.023747   -0.000180
      2          6           0        1.088527    0.454270   -0.000042
      3          1           0       -0.479188   -1.015239   -0.000237
      4          8           0       -1.231788    0.891950   -0.000262
      5          6           0        2.195536   -0.516196    0.000038
      6          1           0       -2.068297    0.363835   -0.000236
      7          8           0        3.366051   -0.155957    0.000190
      8          1           0        1.345376    1.505580    0.000019
      9          1           0        1.912422   -1.581883   -0.000049
     10          8           0       -3.526281   -0.463861    0.000196
     11          1           0       -4.119929   -0.608033    0.759035
     12          1           0       -4.119161   -0.612251   -0.758425
 ---------------------------------------------------------------------
 Rotational constants (GHZ):          16.8159867           0.9688254           0.9199184
 Standard basis: Aug-CC-pVDZ (5D, 7F)
 There are   204 symmetry adapted cartesian basis functions of A   symmetry.
 There are   192 symmetry adapted basis functions of A   symmetry.
   192 basis functions,   324 primitive gaussians,   204 cartesian basis functions
    24 alpha electrons       24 beta electrons
       nuclear repulsion energy       211.0118882555 Hartrees.
 NAtoms=   12 NActive=   12 NUniq=   12 SFac= 1.00D+00 NAtFMM=   60 NAOKFM=F Big=F
 Integral buffers will be    131072 words long.
 Raffenetti 1 integral format.
 Two-electron integral symmetry is turned on.
 One-electron integrals computed using PRISM.
 NBasis=   192 RedAO= T EigKep=  2.41D-05  NBF=   192
 NBsUse=   192 1.00D-06 EigRej= -1.00D+00 NBFU=   192
 ExpMin= 2.97D-02 ExpMax= 1.17D+04 ExpMxC= 4.01D+02 IAcc=3 IRadAn=         5 AccDes= 0.00D+00
 Harris functional with IExCor=  205 and IRadAn=       5 diagonalized for initial guess.
 HarFok:  IExCor=  205 AccDes= 0.00D+00 IRadAn=         5 IDoV= 1 UseB2=F ITyADJ=14
 ICtDFT=  3500011 ScaDFX=  1.000000  1.000000  1.000000  1.000000
 FoFCou: FMM=F IPFlag=           0 FMFlag=      100000 FMFlg1=           0
         NFxFlg=           0 DoJE=T BraDBF=F KetDBF=T FulRan=T
         wScrn=  0.000000 ICntrl=       500 IOpCl=  0 I1Cent=   200000004 NGrid=           0
         NMat0=    1 NMatS0=      1 NMatT0=    0 NMatD0=    1 NMtDS0=    0 NMtDT0=    0
 Petite list used in FoFCou.
 Keep R1 ints in memory in canonical form, NReq=180592919.
 Requested convergence on RMS density matrix=1.00D-08 within 128 cycles.
 Requested convergence on MAX density matrix=1.00D-06.
 Requested convergence on             energy=1.00D-06.
 No special actions if energy rises.
 SCF Done:  E(RHF) =  -341.711916800     A.U. after   14 cycles
            NFock= 14  Conv=0.89D-08     -V/T= 2.0017
 ExpMin= 2.97D-02 ExpMax= 1.17D+04 ExpMxC= 4.01D+02 IAcc=3 IRadAn=         5 AccDes= 0.00D+00
 HarFok:  IExCor=  205 AccDes= 0.00D+00 IRadAn=         5 IDoV=-2 UseB2=F ITyADJ=14
 ICtDFT= 12500011 ScaDFX=  1.000000  1.000000  1.000000  1.000000
 Range of M.O.s used for correlation:     7   192
 NBasis=   192 NAE=    24 NBE=    24 NFC=     6 NFV=     0
 NROrb=    186 NOA=    18 NOB=    18 NVA=   168 NVB=   168

 **** Warning!!: The largest alpha MO coefficient is  0.52291137D+02

 Fully direct method using O(ONN) memory.
 JobTyp=1 Pass  1:  I=   7 to  24 NPSUse= 40 ParTrn=T ParDer=T DoDerP=T.
 Spin components of T(2) and E(2):
     alpha-alpha T2 =       0.4226967180D-01 E2=     -0.1336221744D+00
     alpha-beta  T2 =       0.2337290577D+00 E2=     -0.7559503710D+00
     beta-beta   T2 =       0.4226967180D-01 E2=     -0.1336221744D+00
 ANorm=    0.1148158700D+01
 E2 =    -0.1023194720D+01 EUMP2 =    -0.34273511151991D+03
          IDoAtm=111111111111
          Differentiating once with respect to electric field.
                with respect to dipole field.
          Differentiating once with respect to nuclear coordinates.
 Keep R1 ints in memory in canonical form, NReq=180607761.
          There are     1 degrees of freedom in the 1st order CPHF.  IDoFFX=0 NUNeed=     1.
 LinEq1:  Iter=  0 NonCon=     1 RMS=4.78D-03 Max=1.30D-01 NDo=     1
 AX will form     1 AO Fock derivatives at one time.
 LinEq1:  Iter=  1 NonCon=     1 RMS=1.44D-03 Max=2.17D-02 NDo=     1
 LinEq1:  Iter=  2 NonCon=     1 RMS=5.15D-04 Max=9.65D-03 NDo=     1
 LinEq1:  Iter=  3 NonCon=     1 RMS=1.71D-04 Max=3.12D-03 NDo=     1
 LinEq1:  Iter=  4 NonCon=     1 RMS=6.00D-05 Max=9.87D-04 NDo=     1
 LinEq1:  Iter=  5 NonCon=     1 RMS=2.03D-05 Max=2.65D-04 NDo=     1
 LinEq1:  Iter=  6 NonCon=     1 RMS=6.29D-06 Max=1.48D-04 NDo=     1
 LinEq1:  Iter=  7 NonCon=     1 RMS=1.98D-06 Max=2.92D-05 NDo=     1
 LinEq1:  Iter=  8 NonCon=     1 RMS=8.62D-07 Max=2.40D-05 NDo=     1
 LinEq1:  Iter=  9 NonCon=     1 RMS=2.03D-07 Max=2.21D-06 NDo=     1
 LinEq1:  Iter= 10 NonCon=     1 RMS=5.80D-08 Max=7.58D-07 NDo=     1
 LinEq1:  Iter= 11 NonCon=     1 RMS=2.45D-08 Max=5.64D-07 NDo=     1
 LinEq1:  Iter= 12 NonCon=     1 RMS=6.73D-09 Max=1.10D-07 NDo=     1
 LinEq1:  Iter= 13 NonCon=     1 RMS=2.08D-09 Max=4.65D-08 NDo=     1
 LinEq1:  Iter= 14 NonCon=     1 RMS=6.31D-10 Max=6.62D-09 NDo=     1
 LinEq1:  Iter= 15 NonCon=     1 RMS=1.51D-10 Max=1.86D-09 NDo=     1
 LinEq1:  Iter= 16 NonCon=     0 RMS=2.58D-11 Max=2.55D-10 NDo=     1
 Linear equations converged to 1.000D-10 1.000D-09 after    16 iterations.
 End of Minotr F.D. properties file   721 does not exist.
 End of Minotr F.D. properties file   722 does not exist.
 End of Minotr F.D. properties file   788 does not exist.

 **********************************************************************

            Population analysis using the SCF Density.

 **********************************************************************

 Orbital symmetries:
       Occupied  (A) (A) (A) (A) (A) (A) (A) (A) (A) (A) (A) (A)
                 (A) (A) (A) (A) (A) (A) (A) (A) (A) (A) (A) (A)
       Virtual   (A) (A) (A) (A) (A) (A) (A) (A) (A) (A) (A) (A)
                 (A) (A) (A) (A) (A) (A) (A) (A) (A) (A) (A) (A)
                 (A) (A) (A) (A) (A) (A) (A) (A) (A) (A) (A) (A)
                 (A) (A) (A) (A) (A) (A) (A) (A) (A) (A) (A) (A)
                 (A) (A) (A) (A) (A) (A) (A) (A) (A) (A) (A) (A)
                 (A) (A) (A) (A) (A) (A) (A) (A) (A) (A) (A) (A)
                 (A) (A) (A) (A) (A) (A) (A) (A) (A) (A) (A) (A)
                 (A) (A) (A) (A) (A) (A) (A) (A) (A) (A) (A) (A)
                 (A) (A) (A) (A) (A) (A) (A) (A) (A) (A) (A) (A)
                 (A) (A) (A) (A) (A) (A) (A) (A) (A) (A) (A) (A)
                 (A) (A) (A) (A) (A) (A) (A) (A) (A) (A) (A) (A)
                 (A) (A) (A) (A) (A) (A) (A) (A) (A) (A) (A) (A)
                 (A) (A) (A) (A) (A) (A) (A) (A) (A) (A) (A) (A)
                 (A) (A) (A) (A) (A) (A) (A) (A) (A) (A) (A) (A)
 The electronic state is 1-A.
 Alpha  occ. eigenvalues --  -20.63838 -20.59357 -20.54134 -11.32781 -11.32663
 Alpha  occ. eigenvalues --  -11.22646  -1.41613  -1.39457  -1.36525  -1.06209
 Alpha  occ. eigenvalues --   -0.86109  -0.78441  -0.76540  -0.74306  -0.67372
 Alpha  occ. eigenvalues --   -0.65090  -0.59858  -0.58770  -0.57415  -0.57040
 Alpha  occ. eigenvalues --   -0.52765  -0.51421  -0.41091  -0.35052
 Alpha virt. eigenvalues --    0.01064   0.04075   0.04503   0.05393   0.06900
 Alpha virt. eigenvalues --    0.07337   0.10508   0.10712   0.12729   0.13234
 Alpha virt. eigenvalues --    0.14496   0.14958   0.15682   0.15756   0.17053
 Alpha virt. eigenvalues --    0.18038   0.18487   0.19170   0.20264   0.22336
 Alpha virt. eigenvalues --    0.23094   0.23962   0.25055   0.25965   0.26552
 Alpha virt. eigenvalues --    0.28889   0.29421   0.30389   0.32078   0.32646
 Alpha virt. eigenvalues --    0.33678   0.34395   0.35503   0.36245   0.36872
 Alpha virt. eigenvalues --    0.38365   0.39929   0.40258   0.41254   0.44661
 Alpha virt. eigenvalues --    0.45097   0.46293   0.48271   0.48343   0.49944
 Alpha virt. eigenvalues --    0.52186   0.53373   0.53683   0.53913   0.54196
 Alpha virt. eigenvalues --    0.54962   0.58135   0.61083   0.62445   0.62562
 Alpha virt. eigenvalues --    0.63945   0.65091   0.65708   0.66407   0.66554
 Alpha virt. eigenvalues --    0.69017   0.69786   0.71369   0.73733   0.75323
 Alpha virt. eigenvalues --    0.79112   0.81803   0.83961   0.84081   0.84456
 Alpha virt. eigenvalues --    0.85540   0.86387   0.87628   0.92098   0.93293
 Alpha virt. eigenvalues --    0.95642   0.96641   0.97093   0.98388   1.03438
 Alpha virt. eigenvalues --    1.04287   1.08041   1.09570   1.11891   1.17735
 Alpha virt. eigenvalues --    1.18586   1.21568   1.22355   1.26445   1.28004
 Alpha virt. eigenvalues --    1.28838   1.29551   1.31547   1.34604   1.35215
 Alpha virt. eigenvalues --    1.40872   1.42267   1.49063   1.50165   1.50228
 Alpha virt. eigenvalues --    1.51943   1.54044   1.59404   1.61383   1.65191
 Alpha virt. eigenvalues --    1.65321   1.69777   1.70068   1.71093   1.75497
 Alpha virt. eigenvalues --    1.79217   1.81768   1.86351   1.87928   1.93180
 Alpha virt. eigenvalues --    1.94055   1.95440   1.97243   1.99738   2.00194
 Alpha virt. eigenvalues --    2.02690   2.06148   2.09285   2.10729   2.11464
 Alpha virt. eigenvalues --    2.16336   2.17500   2.24239   2.26280   2.27087
 Alpha virt. eigenvalues --    2.30341   2.36447   2.40083   2.41706   2.41966
 Alpha virt. eigenvalues --    2.47065   2.49945   2.56844   2.61448   2.68289
 Alpha virt. eigenvalues --    2.70625   2.74440   2.76379   2.81416   2.82965
 Alpha virt. eigenvalues --    2.96303   3.04846   3.06510   3.19867   3.23758
 Alpha virt. eigenvalues --    3.36207   3.49994   3.53414   3.64705   3.71616
 Alpha virt. eigenvalues --    3.72697   3.75136   3.76909   3.79607   3.80097
 Alpha virt. eigenvalues --    3.81754   3.83086   3.98028   4.01875   4.03231
 Alpha virt. eigenvalues --    4.12403   4.27333   4.49889
          Condensed to atoms (all electrons):
               1          2          3          4          5          6
     1  C    5.271021  -0.111491  -0.062475  -0.153058  -0.004413   0.032941
     2  C   -0.111491   5.712764  -0.128134   0.032610   0.034733  -0.057528
     3  H   -0.062475  -0.128134   1.780312   0.023494  -0.065480  -0.132742
     4  O   -0.153058   0.032610   0.023494   8.695103  -0.003265   0.294326
     5  C   -0.004413   0.034733  -0.065480  -0.003265   4.937558   0.012815
     6  H    0.032941  -0.057528  -0.132742   0.294326   0.012815   0.546366
     7  O   -0.007530  -0.046442  -0.002535  -0.000994   0.264443  -0.000427
     8  H    0.033507   0.050559   0.075159  -0.006300  -0.163556  -0.016101
     9  H   -0.026791  -0.042099  -0.044369   0.001635   0.324965   0.002696
    10  O    0.022408  -0.031228   0.007350  -0.064500  -0.001183  -0.088320
    11  H    0.003454   0.000233  -0.000075  -0.002027   0.000005  -0.001630
    12  H    0.003449   0.000232  -0.000077  -0.002022   0.000005  -0.001615
               7          8          9         10         11         12
     1  C   -0.007530   0.033507  -0.026791   0.022408   0.003454   0.003449
     2  C   -0.046442   0.050559  -0.042099  -0.031228   0.000233   0.000232
     3  H   -0.002535   0.075159  -0.044369   0.007350  -0.000075  -0.000077
     4  O   -0.000994  -0.006300   0.001635  -0.064500  -0.002027  -0.002022
     5  C    0.264443  -0.163556   0.324965  -0.001183   0.000005   0.000005
     6  H   -0.000427  -0.016101   0.002696  -0.088320  -0.001630  -0.001615
     7  O    8.574201   0.013215  -0.049505   0.000068   0.000012   0.000012
     8  H    0.013215   1.414954   0.009252  -0.000562   0.000067   0.000065
     9  H   -0.049505   0.009252   0.967948   0.000010  -0.000015  -0.000015
    10  O    0.000068  -0.000562   0.000010   7.959976   0.353387   0.353329
    11  H    0.000012   0.000067  -0.000015   0.353387   0.478824  -0.040826
    12  H    0.000012   0.000065  -0.000015   0.353329  -0.040826   0.478758
 Mulliken charges:
               1
     1  C    0.998977
     2  C    0.585792
     3  H   -0.450430
     4  O   -0.815003
     5  C    0.663372
     6  H    0.409218
     7  O   -0.744518
     8  H   -0.410258
     9  H   -0.143711
    10  O   -0.510734
    11  H    0.208590
    12  H    0.208704
 Sum of Mulliken charges =  -0.00000
 Mulliken charges with hydrogens summed into heavy atoms:
               1
     1  C    0.548548
     2  C    0.175534
     4  O   -0.405785
     5  C    0.519661
     7  O   -0.744518
    10  O   -0.093441
 Electronic spatial extent (au):  <R**2>=           1151.6802
 Charge=              0.0000 electrons
 Dipole moment (field-independent basis, Debye):
    X=             -8.6813    Y=             -2.8497    Z=              0.0000  Tot=              9.1371
 Quadrupole moment (field-independent basis, Debye-Ang):
   XX=            -30.8531   YY=            -35.7113   ZZ=            -35.1120
   XY=              5.4656   XZ=             -0.0051   YZ=              0.0095
 Traceless Quadrupole moment (field-independent basis, Debye-Ang):
   XX=              3.0390   YY=             -1.8192   ZZ=             -1.2199
   XY=              5.4656   XZ=             -0.0051   YZ=              0.0095
 Octapole moment (field-independent basis, Debye-Ang**2):
  XXX=           -212.4293  YYY=             -2.6210  ZZZ=              0.0037  XYY=             -0.6353
  XXY=            -19.9551  XXZ=              0.0195  XZZ=            -16.3734  YZZ=             -2.4478
  YYZ=             -0.0101  XYZ=             -0.0345
 Hexadecapole moment (field-independent basis, Debye-Ang**3):
 XXXX=           -951.8774 YYYY=           -107.9843 ZZZZ=            -38.0935 XXXY=            104.8868
 XXXZ=             -0.1550 YYYX=              6.9445 YYYZ=              0.0153 ZZZX=             -0.0134
 ZZZY=              0.0090 XXYY=           -214.6844 XXZZ=           -165.6415 YYZZ=            -25.2572
 XXYZ=              0.1361 YYXZ=              0.0408 ZZXY=              8.0991
 N-N= 2.110118882555D+02 E-N=-1.227560579821D+03  KE= 3.411228098091D+02
 Calling FoFJK, ICntrl=  10002127 FMM=F ISym2X=0 I1Cent= 0 IOpClX= 0 NMat=1 NMatS=1 NMatT=0.
 ***** Axes restored to original set *****
 -------------------------------------------------------------------
 Center     Atomic                   Forces (Hartrees/Bohr)
 Number     Number              X              Y              Z
 -------------------------------------------------------------------
      1        6           0.029141972    0.025997907    0.014240015
      2        6          -0.020768668   -0.018754859   -0.009365164
      3        1          -0.006812906   -0.008935040    0.006562667
      4        8          -0.003861918   -0.005603848    0.005577733
      5        6           0.015459648    0.017480895   -0.005220164
      6        1          -0.002826250    0.000357305   -0.011298731
      7        8          -0.012084180   -0.010264837   -0.007698181
      8        1           0.002356294    0.004119544   -0.005840367
      9        1          -0.002034707   -0.004430728    0.008067970
     10        8           0.009442484    0.004735787    0.017320437
     11        1          -0.005617717   -0.000800072   -0.005717355
     12        1          -0.002394051   -0.003902055   -0.006628862
 -------------------------------------------------------------------
 Cartesian Forces:  Max     0.029141972 RMS     0.011243015

 GradGradGradGradGradGradGradGradGradGradGradGradGradGradGradGradGradGrad
 Berny optimization.
 FormGI is forming the generalized inverse of G from B-inverse, IUseBI=4.
 Internal  Forces:  Max     0.028380228 RMS     0.007045413
 Search for a local minimum.
 Step number   1 out of a maximum of   49
 All quantities printed in internal units (Hartrees-Bohrs-Radians)
 Mixed Optimization -- RFO/linear search
 Second derivative matrix not updated -- first step.
 ITU=  0
     Eigenvalues ---    0.00230   0.00230   0.00230   0.01134   0.01134
     Eigenvalues ---    0.01279   0.02100   0.02101   0.02727   0.02972
     Eigenvalues ---    0.07763   0.15547   0.16000   0.16000   0.16000
     Eigenvalues ---    0.16000   0.16000   0.22000   0.22000   0.22000
     Eigenvalues ---    0.33390   0.35482   0.35623   0.35726   0.49625
     Eigenvalues ---    0.51160   0.52531   0.52531   0.58757   0.93333
 RFO step:  Lambda=-5.73524061D-03 EMin= 2.30000000D-03
 Linear search not attempted -- first point.
 Iteration  1 RMS(Cart)=  0.13207286 RMS(Int)=  0.01159374
 Iteration  2 RMS(Cart)=  0.04504365 RMS(Int)=  0.00065513
 Iteration  3 RMS(Cart)=  0.00088890 RMS(Int)=  0.00029862
 Iteration  4 RMS(Cart)=  0.00000031 RMS(Int)=  0.00029862
 Variable       Old X    -DE/DX   Delta X   Delta X   Delta X     New X
                                 (Linear)    (Quad)   (Total)
    R1        2.51938   0.02838   0.00000   0.04783   0.04783   2.56721
    R2        2.04675   0.01018   0.00000   0.02813   0.02813   2.07488
    R3        2.58713  -0.00736   0.00000  -0.01423  -0.01423   2.57289
    R4        2.78199  -0.00330   0.00000  -0.00914  -0.00914   2.77285
    R5        2.04512   0.00729   0.00000   0.02007   0.02007   2.06519
    R6        1.86945  -0.00627   0.00000  -0.01249  -0.01246   1.85699
    R7        2.31434   0.01562   0.00000   0.01663   0.01663   2.33097
    R8        2.08371   0.00935   0.00000   0.02754   0.02754   2.11125
    R9        3.16821   0.00506   0.00000   0.06067   0.06065   3.22886
   R10        1.84095  -0.00661   0.00000  -0.01245  -0.01245   1.82849
   R11        1.84094  -0.00661   0.00000  -0.01245  -0.01245   1.82849
    A1        2.18599  -0.00986   0.00000  -0.05696  -0.05696   2.12903
    A2        2.12585   0.00313   0.00000   0.01386   0.01386   2.13971
    A3        1.97135   0.00673   0.00000   0.04310   0.04310   2.01445
    A4        2.09301  -0.00095   0.00000  -0.00419  -0.00419   2.08882
    A5        2.13923  -0.00145   0.00000  -0.00950  -0.00950   2.12974
    A6        2.05094   0.00239   0.00000   0.01369   0.01369   2.06463
    A7        1.89152   0.00082   0.00000   0.00494   0.00494   1.89646
    A8        2.12326   0.01178   0.00000   0.05219   0.05219   2.17546
    A9        2.03090  -0.00467   0.00000  -0.01873  -0.01873   2.01216
   A10        2.12902  -0.00711   0.00000  -0.03346  -0.03346   2.09556
   A11        2.21831  -0.00299   0.00000  -0.01968  -0.01948   2.19882
   A12        2.21963  -0.00274   0.00000  -0.01903  -0.01915   2.20048
   A13        1.78562   0.00548   0.00000   0.03161   0.03182   1.81744
   A14        3.18840  -0.00183   0.00000  -0.24877  -0.24928   2.93913
   A15        3.14135  -0.00000   0.00000  -0.00034  -0.00034   3.14100
    D1        0.00001  -0.00000   0.00000  -0.00000  -0.00000   0.00001
    D2       -3.14158  -0.00000   0.00000  -0.00001  -0.00001  -3.14159
    D3       -3.14159   0.00000   0.00000   0.00001   0.00001  -3.14158
    D4        0.00001   0.00000   0.00000   0.00001   0.00001   0.00002
    D5       -3.14146  -0.00000   0.00000  -0.00010  -0.00010  -3.14156
    D6        0.00013  -0.00000   0.00000  -0.00009  -0.00009   0.00004
    D7       -3.14157  -0.00000   0.00000  -0.00000  -0.00000  -3.14157
    D8        0.00003  -0.00000   0.00000  -0.00003  -0.00003   0.00000
    D9        0.00002   0.00000   0.00000   0.00000   0.00000   0.00002
   D10       -3.14157  -0.00000   0.00000  -0.00002  -0.00002  -3.14159
   D11        1.80095  -0.00079   0.00000  -0.05984  -0.05889   1.74207
   D12       -1.79618   0.00078   0.00000   0.05908   0.05813  -1.73805
   D13        2.79472  -0.00091   0.00000  -0.02166  -0.02051   2.77421
         Item               Value     Threshold  Converged?
 Maximum Force            0.028380     0.000450     NO 
 RMS     Force            0.007045     0.000300     NO 
 Maximum Displacement     0.333797     0.001800     NO 
 RMS     Displacement     0.172474     0.001200     NO 
 Predicted change in Energy=-3.124281D-03
 GradGradGradGradGradGradGradGradGradGradGradGradGradGradGradGradGradGrad

                          Input orientation:                          
 ---------------------------------------------------------------------
 Center     Atomic      Atomic             Coordinates (Angstroms)
 Number     Number       Type             X           Y           Z
 ---------------------------------------------------------------------
      1          6           0       -0.629551    0.936959   -0.236544
      2          6           0       -1.363003    0.481639   -1.285488
      3          1           0       -0.744444    0.526330    0.775258
      4          8           0        0.294687    1.928644   -0.363327
      5          6           0       -2.342360   -0.590785   -1.076167
      6          1           0        0.700634    2.094384    0.516099
      7          8           0       -3.054960   -1.072075   -1.960517
      8          1           0       -1.249188    0.889860   -2.292827
      9          1           0       -2.417424   -0.970681   -0.028198
     10          8           0        1.194516    2.131431    2.151382
     11          1           0        2.009617    1.750917    2.507841
     12          1           0        0.932763    2.789282    2.810895
 ---------------------------------------------------------------------
                    Distance matrix (angstroms):
                    1          2          3          4          5
     1  C    0.000000
     2  C    1.358510   0.000000
     3  H    1.097980   2.152042   0.000000
     4  O    1.361517   2.385820   2.083903   0.000000
     5  C    2.443907   1.467327   2.688690   3.716137   0.000000
     6  H    1.917158   3.178876   2.148070   0.982676   4.359501
     7  O    3.590391   2.394246   3.921460   4.772365   1.233497
     8  H    2.148131   1.092854   3.130505   2.680595   2.206263
     9  H    2.622783   2.191305   2.384418   3.984212   1.117227
    10  O    3.233601   4.590729   2.868734   2.678540   5.507906
    11  H    3.893505   5.232110   3.476537   3.349056   6.104783
    12  H    3.893432   5.232218   3.475312   3.350153   6.104141
                    6          7          8          9         10
     6  H    0.000000
     7  O    5.501325   0.000000
     8  H    3.625292   2.687086   0.000000
     9  H    4.406038   2.037300   3.155144   0.000000
    10  O    1.708638   6.725193   5.221512   5.236390   0.000000
    11  H    2.407996   7.320208   5.865803   5.782498   0.967597
    12  H    2.408912   7.319726   5.866574   5.781136   0.967594
                   11         12
    11  H    0.000000
    12  H    1.526322   0.000000
 Stoichiometry    C3H6O3
 Framework group  C1[X(C3H6O3)]
 Deg. of freedom    30
 Full point group                 C1      NOp   1
 Largest Abelian subgroup         C1      NOp   1
 Largest concise Abelian subgroup C1      NOp   1
                         Standard orientation:                         
 ---------------------------------------------------------------------
 Center     Atomic      Atomic             Coordinates (Angstroms)
 Number     Number       Type             X           Y           Z
 ---------------------------------------------------------------------
      1          6           0       -0.232470    0.133722   -0.000249
      2          6           0        1.073240    0.508782    0.000036
      3          1           0       -0.534334   -0.921947   -0.000531
      4          8           0       -1.254118    1.033702   -0.000220
      5          6           0        2.123518   -0.515897   -0.000037
      6          1           0       -2.105453    0.542905   -0.000429
      7          8           0        3.334095   -0.279219    0.000225
      8          1           0        1.374442    1.559309    0.000320
      9          1           0        1.759698   -1.572226   -0.000334
     10          8           0       -3.383880   -0.590703    0.000178
     11          1           0       -3.924780   -0.837185    0.763668
     12          1           0       -3.924080   -0.840740   -0.762649
 ---------------------------------------------------------------------
 Rotational constants (GHZ):          12.9548957           1.0185734           0.9484872
 Standard basis: Aug-CC-pVDZ (5D, 7F)
 There are   204 symmetry adapted cartesian basis functions of A   symmetry.
 There are   192 symmetry adapted basis functions of A   symmetry.
   192 basis functions,   324 primitive gaussians,   204 cartesian basis functions
    24 alpha electrons       24 beta electrons
       nuclear repulsion energy       211.1472566696 Hartrees.
 NAtoms=   12 NActive=   12 NUniq=   12 SFac= 1.00D+00 NAtFMM=   60 NAOKFM=F Big=F
 Integral buffers will be    131072 words long.
 Raffenetti 1 integral format.
 Two-electron integral symmetry is turned on.
 One-electron integrals computed using PRISM.
 NBasis=   192 RedAO= T EigKep=  2.51D-05  NBF=   192
 NBsUse=   192 1.00D-06 EigRej= -1.00D+00 NBFU=   192
 Initial guess from the checkpoint file:  "/scr/Gau-49841.chk"
 B after Tr=     0.000000   -0.000000   -0.000000
         Rot=    0.999998   -0.000075   -0.000002   -0.001787 Ang=  -0.20 deg.
 ExpMin= 2.97D-02 ExpMax= 1.17D+04 ExpMxC= 4.01D+02 IAcc=3 IRadAn=         5 AccDes= 0.00D+00
 Harris functional with IExCor=  205 and IRadAn=       5 diagonalized for initial guess.
 HarFok:  IExCor=  205 AccDes= 0.00D+00 IRadAn=         5 IDoV= 1 UseB2=F ITyADJ=14
 ICtDFT=  3500011 ScaDFX=  1.000000  1.000000  1.000000  1.000000
 FoFCou: FMM=F IPFlag=           0 FMFlag=      100000 FMFlg1=           0
         NFxFlg=           0 DoJE=T BraDBF=F KetDBF=T FulRan=T
         wScrn=  0.000000 ICntrl=       500 IOpCl=  0 I1Cent=   200000004 NGrid=           0
         NMat0=    1 NMatS0=      1 NMatT0=    0 NMatD0=    1 NMtDS0=    0 NMtDT0=    0
 Petite list used in FoFCou.
 Keep R1 ints in memory in canonical form, NReq=180595493.
 Requested convergence on RMS density matrix=1.00D-08 within 128 cycles.
 Requested convergence on MAX density matrix=1.00D-06.
 Requested convergence on             energy=1.00D-06.
 No special actions if energy rises.
 SCF Done:  E(RHF) =  -341.713026425     A.U. after   13 cycles
            NFock= 13  Conv=0.32D-08     -V/T= 2.0021
 ExpMin= 2.97D-02 ExpMax= 1.17D+04 ExpMxC= 4.01D+02 IAcc=3 IRadAn=         5 AccDes= 0.00D+00
 HarFok:  IExCor=  205 AccDes= 0.00D+00 IRadAn=         5 IDoV=-2 UseB2=F ITyADJ=14
 ICtDFT= 12500011 ScaDFX=  1.000000  1.000000  1.000000  1.000000
 Range of M.O.s used for correlation:     7   192
 NBasis=   192 NAE=    24 NBE=    24 NFC=     6 NFV=     0
 NROrb=    186 NOA=    18 NOB=    18 NVA=   168 NVB=   168

 **** Warning!!: The largest alpha MO coefficient is  0.49094248D+02

 Fully direct method using O(ONN) memory.
 JobTyp=1 Pass  1:  I=   7 to  24 NPSUse= 40 ParTrn=T ParDer=T DoDerP=T.
 Spin components of T(2) and E(2):
     alpha-alpha T2 =       0.4258370248D-01 E2=     -0.1338903927D+00
     alpha-beta  T2 =       0.2354789576D+00 E2=     -0.7573537834D+00
     beta-beta   T2 =       0.4258370248D-01 E2=     -0.1338903927D+00
 ANorm=    0.1149193788D+01
 E2 =    -0.1025134569D+01 EUMP2 =    -0.34273816099351D+03
          IDoAtm=111111111111
          Differentiating once with respect to electric field.
                with respect to dipole field.
          Differentiating once with respect to nuclear coordinates.
 Keep R1 ints in memory in canonical form, NReq=180611306.
          There are     1 degrees of freedom in the 1st order CPHF.  IDoFFX=0 NUNeed=     1.
 LinEq1:  Iter=  0 NonCon=     1 RMS=4.86D-03 Max=1.25D-01 NDo=     1
 AX will form     1 AO Fock derivatives at one time.
 LinEq1:  Iter=  1 NonCon=     1 RMS=1.48D-03 Max=2.21D-02 NDo=     1
 LinEq1:  Iter=  2 NonCon=     1 RMS=5.33D-04 Max=1.00D-02 NDo=     1
 LinEq1:  Iter=  3 NonCon=     1 RMS=1.84D-04 Max=3.49D-03 NDo=     1
 LinEq1:  Iter=  4 NonCon=     1 RMS=6.40D-05 Max=9.71D-04 NDo=     1
 LinEq1:  Iter=  5 NonCon=     1 RMS=2.21D-05 Max=2.39D-04 NDo=     1
 LinEq1:  Iter=  6 NonCon=     1 RMS=7.61D-06 Max=2.29D-04 NDo=     1
 LinEq1:  Iter=  7 NonCon=     1 RMS=2.24D-06 Max=2.92D-05 NDo=     1
 LinEq1:  Iter=  8 NonCon=     1 RMS=1.03D-06 Max=2.75D-05 NDo=     1
 LinEq1:  Iter=  9 NonCon=     1 RMS=2.24D-07 Max=2.79D-06 NDo=     1
 LinEq1:  Iter= 10 NonCon=     1 RMS=5.77D-08 Max=5.57D-07 NDo=     1
 LinEq1:  Iter= 11 NonCon=     1 RMS=2.28D-08 Max=4.79D-07 NDo=     1
 LinEq1:  Iter= 12 NonCon=     1 RMS=6.54D-09 Max=8.90D-08 NDo=     1
 LinEq1:  Iter= 13 NonCon=     1 RMS=2.19D-09 Max=5.01D-08 NDo=     1
 LinEq1:  Iter= 14 NonCon=     1 RMS=6.84D-10 Max=6.94D-09 NDo=     1
 LinEq1:  Iter= 15 NonCon=     1 RMS=1.67D-10 Max=2.20D-09 NDo=     1
 LinEq1:  Iter= 16 NonCon=     0 RMS=2.85D-11 Max=2.77D-10 NDo=     1
 Linear equations converged to 1.000D-10 1.000D-09 after    16 iterations.
 End of Minotr F.D. properties file   721 does not exist.
 End of Minotr F.D. properties file   722 does not exist.
 End of Minotr F.D. properties file   788 does not exist.
 Calling FoFJK, ICntrl=  10002127 FMM=F ISym2X=0 I1Cent= 0 IOpClX= 0 NMat=1 NMatS=1 NMatT=0.
 ***** Axes restored to original set *****
 -------------------------------------------------------------------
 Center     Atomic                   Forces (Hartrees/Bohr)
 Number     Number              X              Y              Z
 -------------------------------------------------------------------
      1        6           0.007725037    0.007557789    0.001479046
      2        6          -0.004539324   -0.004132646   -0.001930987
      3        1          -0.001396990   -0.001209886   -0.000820256
      4        8          -0.004548570   -0.004623381   -0.000262861
      5        6           0.003883175    0.003775606    0.000807387
      6        1          -0.003063241   -0.002026497   -0.003918741
      7        8          -0.000640841   -0.000486242   -0.000604564
      8        1           0.001097522    0.001035796    0.000341398
      9        1           0.000117786   -0.000195843    0.001104675
     10        8           0.002763442    0.000577538    0.007830145
     11        1          -0.000497989   -0.000333419   -0.002066205
     12        1          -0.000900008    0.000061185   -0.001959038
 -------------------------------------------------------------------
 Cartesian Forces:  Max     0.007830145 RMS     0.003112218

 GradGradGradGradGradGradGradGradGradGradGradGradGradGradGradGradGradGrad
 Berny optimization.
 Using GEDIIS/GDIIS optimizer.
 FormGI is forming the generalized inverse of G from B-inverse, IUseBI=4.
 Internal  Forces:  Max     0.008826320 RMS     0.002055621
 Search for a local minimum.
 Step number   2 out of a maximum of   49
 All quantities printed in internal units (Hartrees-Bohrs-Radians)
 Mixed Optimization -- RFO/linear search
 Update second derivatives using D2CorX and points    1    2
 DE= -3.05D-03 DEPred=-3.12D-03 R= 9.76D-01
 TightC=F SS=  1.41D+00  RLast= 3.00D-01 DXNew= 5.0454D-01 8.9961D-01
 Trust test= 9.76D-01 RLast= 3.00D-01 DXMaxT set to 5.05D-01
 ITU=  1  0
 Use linear search instead of GDIIS.
     Eigenvalues ---    0.00230   0.00230   0.00329   0.01134   0.01134
     Eigenvalues ---    0.01308   0.02088   0.02101   0.02706   0.02972
     Eigenvalues ---    0.06772   0.13491   0.15707   0.16000   0.16000
     Eigenvalues ---    0.16000   0.16231   0.20994   0.22000   0.22919
     Eigenvalues ---    0.32690   0.34692   0.35692   0.36444   0.47765
     Eigenvalues ---    0.50020   0.52531   0.52713   0.61042   0.92992
 RFO step:  Lambda=-2.03623927D-03 EMin= 2.29999838D-03
 Quartic linear search produced a step of  0.07987.
 Iteration  1 RMS(Cart)=  0.13589316 RMS(Int)=  0.03826110
 Iteration  2 RMS(Cart)=  0.12997627 RMS(Int)=  0.00794893
 Iteration  3 RMS(Cart)=  0.01693497 RMS(Int)=  0.00182530
 Iteration  4 RMS(Cart)=  0.00024423 RMS(Int)=  0.00182251
 Iteration  5 RMS(Cart)=  0.00000022 RMS(Int)=  0.00182251
 Variable       Old X    -DE/DX   Delta X   Delta X   Delta X     New X
                                 (Linear)    (Quad)   (Total)
    R1        2.56721   0.00026   0.00382   0.02136   0.02518   2.59239
    R2        2.07488  -0.00016   0.00225   0.01173   0.01398   2.08886
    R3        2.57289  -0.00883  -0.00114  -0.02548  -0.02662   2.54628
    R4        2.77285  -0.00432  -0.00073  -0.01754  -0.01827   2.75457
    R5        2.06519   0.00019   0.00160   0.00930   0.01091   2.07610
    R6        1.85699  -0.00108  -0.00100  -0.00785  -0.00862   1.84837
    R7        2.33097   0.00099   0.00133   0.00846   0.00979   2.34076
    R8        2.11125   0.00109   0.00220   0.01561   0.01781   2.12907
    R9        3.22886   0.00403   0.00484   0.08228   0.08700   3.31586
   R10        1.82849  -0.00105  -0.00099  -0.00766  -0.00865   1.81984
   R11        1.82849  -0.00105  -0.00099  -0.00766  -0.00865   1.81983
    A1        2.12903  -0.00237  -0.00455  -0.04039  -0.04494   2.08408
    A2        2.13971   0.00057   0.00111   0.00884   0.00995   2.14966
    A3        2.01445   0.00181   0.00344   0.03155   0.03499   2.04944
    A4        2.08882  -0.00324  -0.00033  -0.01818  -0.01852   2.07030
    A5        2.12974   0.00003  -0.00076  -0.00687  -0.00763   2.12211
    A6        2.06463   0.00321   0.00109   0.02505   0.02615   2.09078
    A7        1.89646  -0.00192   0.00039  -0.01115  -0.01075   1.88571
    A8        2.17546   0.00044   0.00417   0.02477   0.02894   2.20440
    A9        2.01216  -0.00051  -0.00150  -0.01121  -0.01271   1.99946
   A10        2.09556   0.00007  -0.00267  -0.01356  -0.01624   2.07933
   A11        2.19882  -0.00117  -0.00156  -0.01564  -0.01813   2.18069
   A12        2.20048  -0.00117  -0.00153  -0.01572  -0.01636   2.18411
   A13        1.81744   0.00236   0.00254   0.03088   0.03094   1.84839
   A14        2.93913   0.00189  -0.01991   0.44783   0.43067   3.36980
   A15        3.14100   0.00000  -0.00003   0.00074   0.00071   3.14172
    D1        0.00001   0.00000  -0.00000   0.00002   0.00002   0.00002
    D2       -3.14159   0.00000  -0.00000   0.00002   0.00002  -3.14157
    D3       -3.14158  -0.00000   0.00000  -0.00003  -0.00003   3.14158
    D4        0.00002  -0.00000   0.00000  -0.00003  -0.00003  -0.00002
    D5       -3.14156  -0.00000  -0.00001  -0.00012  -0.00012   3.14150
    D6        0.00004  -0.00000  -0.00001  -0.00016  -0.00017  -0.00013
    D7       -3.14157  -0.00000  -0.00000  -0.00009  -0.00009   3.14153
    D8        0.00000   0.00000  -0.00000   0.00005   0.00005   0.00005
    D9        0.00002  -0.00000   0.00000  -0.00009  -0.00009  -0.00006
   D10       -3.14159   0.00000  -0.00000   0.00005   0.00005  -3.14154
   D11        1.74207   0.00038  -0.00470   0.11939   0.10869   1.85076
   D12       -1.73805  -0.00038   0.00464  -0.12140  -0.11077  -1.84882
   D13        2.77421  -0.00004  -0.00164  -0.00293  -0.01107   2.76315
         Item               Value     Threshold  Converged?
 Maximum Force            0.008826     0.000450     NO 
 RMS     Force            0.002056     0.000300     NO 
 Maximum Displacement     0.529348     0.001800     NO 
 RMS     Displacement     0.269702     0.001200     NO 
 Predicted change in Energy=-1.298571D-03
 GradGradGradGradGradGradGradGradGradGradGradGradGradGradGradGradGradGrad

                          Input orientation:                          
 ---------------------------------------------------------------------
 Center     Atomic      Atomic             Coordinates (Angstroms)
 Number     Number       Type             X           Y           Z
 ---------------------------------------------------------------------
      1          6           0       -0.723225    0.823241   -0.179333
      2          6           0       -1.395421    0.457526   -1.317900
      3          1           0       -0.951599    0.311969    0.773715
      4          8           0        0.217044    1.788090   -0.156202
      5          6           0       -2.394448   -0.600258   -1.229565
      6          1           0        0.548645    1.866038    0.760679
      7          8           0       -3.081017   -1.040284   -2.161939
      8          1           0       -1.196946    0.941626   -2.283940
      9          1           0       -2.526663   -1.034608   -0.198446
     10          8           0        1.375441    2.291036    2.248859
     11          1           0        2.271221    2.022128    2.478357
     12          1           0        1.188255    3.069401    2.784122
 ---------------------------------------------------------------------
                    Distance matrix (angstroms):
                    1          2          3          4          5
     1  C    0.000000
     2  C    1.371834   0.000000
     3  H    1.105376   2.143133   0.000000
     4  O    1.347432   2.391649   2.099858   0.000000
     5  C    2.433583   1.457657   2.631939   3.698135   0.000000
     6  H    1.894386   3.175498   2.160100   0.978113   4.324983
     7  O    3.600366   2.407710   3.870539   4.785382   1.238677
     8  H    2.160508   1.098626   3.131440   2.691307   2.218811
     9  H    2.589278   2.181593   2.288929   3.936666   1.126653
    10  O    3.529155   4.874547   3.392325   2.716461   5.888215
    11  H    4.179396   5.504889   4.027035   3.348928   6.511072
    12  H    4.181035   5.506710   4.027920   3.351196   6.512437
                    6          7          8          9         10
     6  H    0.000000
     7  O    5.492071   0.000000
     8  H    3.629232   2.737256   0.000000
     9  H    4.334880   2.040256   3.165902   0.000000
    10  O    1.754678   7.100200   5.383711   5.681164   0.000000
    11  H    2.437632   7.717328   5.989585   6.287177   0.963017
    12  H    2.439571   7.718789   5.991816   6.288022   0.963014
                   11         12
    11  H    0.000000
    12  H    1.537234   0.000000
 Stoichiometry    C3H6O3
 Framework group  C1[X(C3H6O3)]
 Deg. of freedom    30
 Full point group                 C1      NOp   1
 Largest Abelian subgroup         C1      NOp   1
 Largest concise Abelian subgroup C1      NOp   1
                         Standard orientation:                         
 ---------------------------------------------------------------------
 Center     Atomic      Atomic             Coordinates (Angstroms)
 Number     Number       Type             X           Y           Z
 ---------------------------------------------------------------------
      1          6           0       -0.155332    0.011590    0.000075
      2          6           0        1.129114    0.493388   -0.000086
      3          1           0       -0.325356   -1.080631    0.000371
      4          8           0       -1.241650    0.808763   -0.000067
      5          6           0        2.232228   -0.459452    0.000110
      6          1           0       -2.036114    0.238209    0.000010
      7          8           0        3.439750   -0.183389   -0.000062
      8          1           0        1.339244    1.571731   -0.000360
      9          1           0        1.916788   -1.541046    0.000332
     10          8           0       -3.655942   -0.436370   -0.000123
     11          1           0       -4.233216   -0.485130    0.769148
     12          1           0       -4.234679   -0.488330   -0.768082
 ---------------------------------------------------------------------
 Rotational constants (GHZ):          18.5581927           0.9195572           0.8797767
 Standard basis: Aug-CC-pVDZ (5D, 7F)
 There are   204 symmetry adapted cartesian basis functions of A   symmetry.
 There are   192 symmetry adapted basis functions of A   symmetry.
   192 basis functions,   324 primitive gaussians,   204 cartesian basis functions
    24 alpha electrons       24 beta electrons
       nuclear repulsion energy       208.7330936838 Hartrees.
 NAtoms=   12 NActive=   12 NUniq=   12 SFac= 1.00D+00 NAtFMM=   60 NAOKFM=F Big=F
 Integral buffers will be    131072 words long.
 Raffenetti 1 integral format.
 Two-electron integral symmetry is turned on.
 One-electron integrals computed using PRISM.
 NBasis=   192 RedAO= T EigKep=  2.66D-05  NBF=   192
 NBsUse=   192 1.00D-06 EigRej= -1.00D+00 NBFU=   192
 Initial guess from the checkpoint file:  "/scr/Gau-49841.chk"
 B after Tr=    -0.000000    0.000000    0.000000
         Rot=    0.999996    0.000030   -0.000004    0.002745 Ang=   0.31 deg.
 ExpMin= 2.97D-02 ExpMax= 1.17D+04 ExpMxC= 4.01D+02 IAcc=3 IRadAn=         5 AccDes= 0.00D+00
 Harris functional with IExCor=  205 and IRadAn=       5 diagonalized for initial guess.
 HarFok:  IExCor=  205 AccDes= 0.00D+00 IRadAn=         5 IDoV= 1 UseB2=F ITyADJ=14
 ICtDFT=  3500011 ScaDFX=  1.000000  1.000000  1.000000  1.000000
 FoFCou: FMM=F IPFlag=           0 FMFlag=      100000 FMFlg1=           0
         NFxFlg=           0 DoJE=T BraDBF=F KetDBF=T FulRan=T
         wScrn=  0.000000 ICntrl=       500 IOpCl=  0 I1Cent=   200000004 NGrid=           0
         NMat0=    1 NMatS0=      1 NMatT0=    0 NMatD0=    1 NMtDS0=    0 NMtDT0=    0
 Petite list used in FoFCou.
 Keep R1 ints in memory in canonical form, NReq=180590769.
 Requested convergence on RMS density matrix=1.00D-08 within 128 cycles.
 Requested convergence on MAX density matrix=1.00D-06.
 Requested convergence on             energy=1.00D-06.
 No special actions if energy rises.
 SCF Done:  E(RHF) =  -341.712248410     A.U. after   13 cycles
            NFock= 13  Conv=0.63D-08     -V/T= 2.0022
 ExpMin= 2.97D-02 ExpMax= 1.17D+04 ExpMxC= 4.01D+02 IAcc=3 IRadAn=         5 AccDes= 0.00D+00
 HarFok:  IExCor=  205 AccDes= 0.00D+00 IRadAn=         5 IDoV=-2 UseB2=F ITyADJ=14
 ICtDFT= 12500011 ScaDFX=  1.000000  1.000000  1.000000  1.000000
 Range of M.O.s used for correlation:     7   192
 NBasis=   192 NAE=    24 NBE=    24 NFC=     6 NFV=     0
 NROrb=    186 NOA=    18 NOB=    18 NVA=   168 NVB=   168

 **** Warning!!: The largest alpha MO coefficient is  0.51306691D+02

 Fully direct method using O(ONN) memory.
 JobTyp=1 Pass  1:  I=   7 to  24 NPSUse= 40 ParTrn=T ParDer=T DoDerP=T.
 Spin components of T(2) and E(2):
     alpha-alpha T2 =       0.4267467406D-01 E2=     -0.1339292632D+00
     alpha-beta  T2 =       0.2360087336D+00 E2=     -0.7575484352D+00
     beta-beta   T2 =       0.4267467406D-01 E2=     -0.1339292632D+00
 ANorm=    0.1149503407D+01
 E2 =    -0.1025406962D+01 EUMP2 =    -0.34273765537137D+03
          IDoAtm=111111111111
          Differentiating once with respect to electric field.
                with respect to dipole field.
          Differentiating once with respect to nuclear coordinates.
 Keep R1 ints in memory in canonical form, NReq=180604590.
          There are     1 degrees of freedom in the 1st order CPHF.  IDoFFX=0 NUNeed=     1.
 LinEq1:  Iter=  0 NonCon=     1 RMS=4.89D-03 Max=1.03D-01 NDo=     1
 AX will form     1 AO Fock derivatives at one time.
 LinEq1:  Iter=  1 NonCon=     1 RMS=1.49D-03 Max=2.31D-02 NDo=     1
 LinEq1:  Iter=  2 NonCon=     1 RMS=5.43D-04 Max=8.97D-03 NDo=     1
 LinEq1:  Iter=  3 NonCon=     1 RMS=1.91D-04 Max=3.20D-03 NDo=     1
 LinEq1:  Iter=  4 NonCon=     1 RMS=6.70D-05 Max=9.15D-04 NDo=     1
 LinEq1:  Iter=  5 NonCon=     1 RMS=2.35D-05 Max=3.00D-04 NDo=     1
 LinEq1:  Iter=  6 NonCon=     1 RMS=8.41D-06 Max=2.25D-04 NDo=     1
 LinEq1:  Iter=  7 NonCon=     1 RMS=2.33D-06 Max=3.33D-05 NDo=     1
 LinEq1:  Iter=  8 NonCon=     1 RMS=1.08D-06 Max=2.46D-05 NDo=     1
 LinEq1:  Iter=  9 NonCon=     1 RMS=2.33D-07 Max=2.74D-06 NDo=     1
 LinEq1:  Iter= 10 NonCon=     1 RMS=5.84D-08 Max=5.82D-07 NDo=     1
 LinEq1:  Iter= 11 NonCon=     1 RMS=2.12D-08 Max=4.54D-07 NDo=     1
 LinEq1:  Iter= 12 NonCon=     1 RMS=6.03D-09 Max=6.24D-08 NDo=     1
 LinEq1:  Iter= 13 NonCon=     1 RMS=2.04D-09 Max=4.43D-08 NDo=     1
 LinEq1:  Iter= 14 NonCon=     1 RMS=6.69D-10 Max=6.17D-09 NDo=     1
 LinEq1:  Iter= 15 NonCon=     1 RMS=1.72D-10 Max=2.22D-09 NDo=     1
 LinEq1:  Iter= 16 NonCon=     0 RMS=2.93D-11 Max=2.63D-10 NDo=     1
 Linear equations converged to 1.000D-10 1.000D-09 after    16 iterations.
 End of Minotr F.D. properties file   721 does not exist.
 End of Minotr F.D. properties file   722 does not exist.
 End of Minotr F.D. properties file   788 does not exist.
 Calling FoFJK, ICntrl=  10002127 FMM=F ISym2X=0 I1Cent= 0 IOpClX= 0 NMat=1 NMatS=1 NMatT=0.
 ***** Axes restored to original set *****
 -------------------------------------------------------------------
 Center     Atomic                   Forces (Hartrees/Bohr)
 Number     Number              X              Y              Z
 -------------------------------------------------------------------
      1        6          -0.009491873   -0.007524654   -0.007932206
      2        6           0.006075631    0.005634357    0.002211741
      3        1           0.001969904    0.002956745   -0.003180819
      4        8          -0.002551745   -0.003238174    0.002048052
      5        6          -0.005428113   -0.006591126    0.003470659
      6        1           0.004133091    0.004757109   -0.001559289
      7        8           0.004926329    0.004277343    0.002788777
      8        1          -0.000362892   -0.001362553    0.003419762
      9        1           0.000906447    0.001875823   -0.003274699
     10        8          -0.002734627   -0.002861237    0.000034463
     11        1           0.002381475   -0.000022276    0.000684176
     12        1           0.000176374    0.002098643    0.001289384
 -------------------------------------------------------------------
 Cartesian Forces:  Max     0.009491873 RMS     0.003948307

 GradGradGradGradGradGradGradGradGradGradGradGradGradGradGradGradGradGrad
 Berny optimization.
 Using GEDIIS/GDIIS optimizer.
 FormGI is forming the generalized inverse of G from B-inverse, IUseBI=4.
 Internal  Forces:  Max     0.011170703 RMS     0.002866537
 Search for a local minimum.
 Step number   3 out of a maximum of   49
 All quantities printed in internal units (Hartrees-Bohrs-Radians)
 Mixed Optimization -- RFO/linear search
 Update second derivatives using D2CorX and points    1    3    2
 DE=  5.06D-04 DEPred=-1.30D-03 R=-3.89D-01
 Trust test=-3.89D-01 RLast= 4.77D-01 DXMaxT set to 2.52D-01
 ITU= -1  1  0
 Use linear search instead of GDIIS.
     Eigenvalues ---    0.00230   0.00230   0.01076   0.01134   0.01134
     Eigenvalues ---    0.01510   0.02070   0.02101   0.02689   0.02972
     Eigenvalues ---    0.05457   0.13454   0.15472   0.16000   0.16000
     Eigenvalues ---    0.16101   0.16928   0.21000   0.22023   0.22861
     Eigenvalues ---    0.33265   0.34621   0.35692   0.36498   0.47566
     Eigenvalues ---    0.49780   0.52531   0.52656   0.61813   0.93919
 RFO step:  Lambda=-5.89538297D-04 EMin= 2.29999141D-03
 Quartic linear search produced a step of -0.61428.
 Iteration  1 RMS(Cart)=  0.12719363 RMS(Int)=  0.02623349
 Iteration  2 RMS(Cart)=  0.10568856 RMS(Int)=  0.00387227
 Iteration  3 RMS(Cart)=  0.00647988 RMS(Int)=  0.00065872
 Iteration  4 RMS(Cart)=  0.00000235 RMS(Int)=  0.00065871
 Iteration  5 RMS(Cart)=  0.00000000 RMS(Int)=  0.00065871
 Variable       Old X    -DE/DX   Delta X   Delta X   Delta X     New X
                                 (Linear)    (Quad)   (Total)
    R1        2.59239  -0.01117  -0.01547  -0.00328  -0.01874   2.57365
    R2        2.08886  -0.00452  -0.00859  -0.00331  -0.01190   2.07696
    R3        2.54628   0.00155   0.01635  -0.01878  -0.00243   2.54385
    R4        2.75457   0.00022   0.01123  -0.01372  -0.00250   2.75207
    R5        2.07610  -0.00367  -0.00670  -0.00193  -0.00863   2.06747
    R6        1.84837   0.00209   0.00530  -0.00157   0.00377   1.85214
    R7        2.34076  -0.00635  -0.00601  -0.00020  -0.00622   2.33454
    R8        2.12907  -0.00383  -0.01094   0.00117  -0.00977   2.11929
    R9        3.31586   0.00142  -0.05344   0.06618   0.01271   3.32857
   R10        1.81984   0.00238   0.00532  -0.00136   0.00395   1.82379
   R11        1.81983   0.00238   0.00532  -0.00137   0.00395   1.82378
    A1        2.08408   0.00168   0.02761  -0.01555   0.01206   2.09614
    A2        2.14966  -0.00016  -0.00611   0.00351  -0.00260   2.14706
    A3        2.04944  -0.00152  -0.02149   0.01204  -0.00946   2.03998
    A4        2.07030  -0.00125   0.01137  -0.01853  -0.00715   2.06315
    A5        2.12211   0.00017   0.00469  -0.00339   0.00130   2.12341
    A6        2.09078   0.00108  -0.01606   0.02192   0.00585   2.09663
    A7        1.88571   0.00506   0.00661  -0.00041   0.00620   1.89190
    A8        2.20440  -0.00448  -0.01778  -0.00196  -0.01974   2.18466
    A9        1.99946   0.00155   0.00780  -0.00212   0.00568   2.00514
   A10        2.07933   0.00293   0.00997   0.00408   0.01405   2.09338
   A11        2.18069   0.00009   0.01114  -0.01239  -0.00083   2.17986
   A12        2.18411   0.00034   0.01005  -0.01109  -0.00136   2.18275
   A13        1.84839  -0.00084  -0.01901   0.01182  -0.00660   1.84179
   A14        3.36980  -0.00448  -0.26455  -0.09124  -0.35686   3.01294
   A15        3.14172  -0.00002  -0.00044  -0.00166  -0.00210   3.13962
    D1        0.00002  -0.00000  -0.00001   0.00000  -0.00001   0.00002
    D2       -3.14157  -0.00000  -0.00001   0.00000  -0.00001  -3.14158
    D3        3.14158   0.00000   0.00002  -0.00001   0.00001   3.14158
    D4       -0.00002   0.00000   0.00002  -0.00002   0.00000  -0.00001
    D5        3.14150   0.00000   0.00008  -0.00006   0.00001   3.14151
    D6       -0.00013   0.00000   0.00011  -0.00008   0.00003  -0.00011
    D7        3.14153   0.00000   0.00005   0.00006   0.00011  -3.14154
    D8        0.00005  -0.00000  -0.00003  -0.00007  -0.00011  -0.00005
    D9       -0.00006   0.00000   0.00005   0.00006   0.00012   0.00005
   D10       -3.14154  -0.00000  -0.00003  -0.00007  -0.00011   3.14154
   D11        1.85076  -0.00026  -0.06677  -0.00747  -0.07212   1.77864
   D12       -1.84882   0.00026   0.06804   0.00618   0.07211  -1.77671
   D13        2.76315  -0.00102   0.00680  -0.03166  -0.02238   2.74077
         Item               Value     Threshold  Converged?
 Maximum Force            0.011171     0.000450     NO 
 RMS     Force            0.002867     0.000300     NO 
 Maximum Displacement     0.435244     0.001800     NO 
 RMS     Displacement     0.231598     0.001200     NO 
 Predicted change in Energy=-5.807058D-04
 GradGradGradGradGradGradGradGradGradGradGradGradGradGradGradGradGradGrad

                          Input orientation:                          
 ---------------------------------------------------------------------
 Center     Atomic      Atomic             Coordinates (Angstroms)
 Number     Number       Type             X           Y           Z
 ---------------------------------------------------------------------
      1          6           0       -0.647479    0.923809   -0.252569
      2          6           0       -1.373429    0.479297   -1.315688
      3          1           0       -0.798839    0.481169    0.741983
      4          8           0        0.271978    1.902202   -0.349836
      5          6           0       -2.341220   -0.585604   -1.091463
      6          1           0        0.661625    2.049835    0.537289
      7          8           0       -3.064944   -1.083922   -1.959842
      8          1           0       -1.243564    0.901528   -2.316599
      9          1           0       -2.402079   -0.952967   -0.033605
     10          8           0        1.225729    2.148844    2.202982
     11          1           0        2.063118    1.792632    2.524432
     12          1           0        0.980392    2.839080    2.831321
 ---------------------------------------------------------------------
                    Distance matrix (angstroms):
                    1          2          3          4          5
     1  C    0.000000
     2  C    1.361916   0.000000
     3  H    1.099079   2.136391   0.000000
     4  O    1.346148   2.380103   2.087595   0.000000
     5  C    2.418849   1.456335   2.622683   3.683475   0.000000
     6  H    1.898832   3.168841   2.153036   0.980108   4.314562
     7  O    3.576297   2.391613   3.858057   4.758582   1.235387
     8  H    2.148495   1.094060   3.119199   2.677008   2.217514
     9  H    2.578537   2.180192   2.286627   3.924611   1.121482
    10  O    3.322552   4.682313   3.002422   2.736304   5.572585
    11  H    3.976672   5.318009   3.617714   3.388452   6.174860
    12  H    3.978518   5.320407   3.618113   3.391070   6.176552
                    6          7          8          9         10
     6  H    0.000000
     7  O    5.472057   0.000000
     8  H    3.618429   2.717851   0.000000
     9  H    4.327703   2.041306   3.161229   0.000000
    10  O    1.761406   6.796305   5.299040   5.271105   0.000000
    11  H    2.445214   7.394613   5.929906   5.832654   0.965109
    12  H    2.446856   7.396617   5.933057   5.833398   0.965104
                   11         12
    11  H    0.000000
    12  H    1.536727   0.000000
 Stoichiometry    C3H6O3
 Framework group  C1[X(C3H6O3)]
 Deg. of freedom    30
 Full point group                 C1      NOp   1
 Largest Abelian subgroup         C1      NOp   1
 Largest concise Abelian subgroup C1      NOp   1
                         Standard orientation:                         
 ---------------------------------------------------------------------
 Center     Atomic      Atomic             Coordinates (Angstroms)
 Number     Number       Type             X           Y           Z
 ---------------------------------------------------------------------
      1          6           0       -0.206396    0.141094   -0.000717
      2          6           0        1.099650    0.527175    0.000229
      3          1           0       -0.465429   -0.927023   -0.001783
      4          8           0       -1.229799    1.015601   -0.000385
      5          6           0        2.123626   -0.508385   -0.000237
      6          1           0       -2.069142    0.509524   -0.001301
      7          8           0        3.342050   -0.304364    0.000555
      8          1           0        1.386389    1.582990    0.001310
      9          1           0        1.732049   -1.559283   -0.001310
     10          8           0       -3.448418   -0.585987    0.000373
     11          1           0       -3.996905   -0.782004    0.769902
     12          1           0       -3.998902   -0.785509   -0.766819
 ---------------------------------------------------------------------
 Rotational constants (GHZ):          13.1002779           1.0016531           0.9346017
 Standard basis: Aug-CC-pVDZ (5D, 7F)
 There are   204 symmetry adapted cartesian basis functions of A   symmetry.
 There are   192 symmetry adapted basis functions of A   symmetry.
   192 basis functions,   324 primitive gaussians,   204 cartesian basis functions
    24 alpha electrons       24 beta electrons
       nuclear repulsion energy       210.7682932649 Hartrees.
 NAtoms=   12 NActive=   12 NUniq=   12 SFac= 1.00D+00 NAtFMM=   60 NAOKFM=F Big=F
 Integral buffers will be    131072 words long.
 Raffenetti 1 integral format.
 Two-electron integral symmetry is turned on.
 One-electron integrals computed using PRISM.
 NBasis=   192 RedAO= T EigKep=  2.54D-05  NBF=   192
 NBsUse=   192 1.00D-06 EigRej= -1.00D+00 NBFU=   192
 Lowest energy guess from the checkpoint file:  "/scr/Gau-49841.chk"
 B after Tr=    -0.000000    0.000000    0.000000
         Rot=    0.999997    0.000003   -0.000006    0.002475 Ang=   0.28 deg.
 B after Tr=    -0.000000    0.000000    0.000000
         Rot=    1.000000   -0.000081   -0.000004   -0.000596 Ang=  -0.07 deg.
 Keep R1 ints in memory in canonical form, NReq=180594884.
 Requested convergence on RMS density matrix=1.00D-08 within 128 cycles.
 Requested convergence on MAX density matrix=1.00D-06.
 Requested convergence on             energy=1.00D-06.
 No special actions if energy rises.
 SCF Done:  E(RHF) =  -341.714579804     A.U. after   13 cycles
            NFock= 13  Conv=0.30D-08     -V/T= 2.0020
 ExpMin= 2.97D-02 ExpMax= 1.17D+04 ExpMxC= 4.01D+02 IAcc=3 IRadAn=         5 AccDes= 0.00D+00
 HarFok:  IExCor=  205 AccDes= 0.00D+00 IRadAn=         5 IDoV=-2 UseB2=F ITyADJ=14
 ICtDFT= 12500011 ScaDFX=  1.000000  1.000000  1.000000  1.000000
 Range of M.O.s used for correlation:     7   192
 NBasis=   192 NAE=    24 NBE=    24 NFC=     6 NFV=     0
 NROrb=    186 NOA=    18 NOB=    18 NVA=   168 NVB=   168

 **** Warning!!: The largest alpha MO coefficient is  0.51235187D+02

 Fully direct method using O(ONN) memory.
 JobTyp=1 Pass  1:  I=   7 to  24 NPSUse= 40 ParTrn=T ParDer=T DoDerP=T.
 Spin components of T(2) and E(2):
     alpha-alpha T2 =       0.4251631470D-01 E2=     -0.1338156877D+00
     alpha-beta  T2 =       0.2349374640D+00 E2=     -0.7565789357D+00
     beta-beta   T2 =       0.4251631470D-01 E2=     -0.1338156877D+00
 ANorm=    0.1148899514D+01
 E2 =    -0.1024210311D+01 EUMP2 =    -0.34273879011484D+03
          IDoAtm=111111111111
          Differentiating once with respect to electric field.
                with respect to dipole field.
          Differentiating once with respect to nuclear coordinates.
 Keep R1 ints in memory in canonical form, NReq=180609720.
          There are     1 degrees of freedom in the 1st order CPHF.  IDoFFX=0 NUNeed=     1.
 LinEq1:  Iter=  0 NonCon=     1 RMS=4.86D-03 Max=1.05D-01 NDo=     1
 AX will form     1 AO Fock derivatives at one time.
 LinEq1:  Iter=  1 NonCon=     1 RMS=1.47D-03 Max=2.22D-02 NDo=     1
 LinEq1:  Iter=  2 NonCon=     1 RMS=5.33D-04 Max=8.99D-03 NDo=     1
 LinEq1:  Iter=  3 NonCon=     1 RMS=1.85D-04 Max=3.13D-03 NDo=     1
 LinEq1:  Iter=  4 NonCon=     1 RMS=6.47D-05 Max=8.62D-04 NDo=     1
 LinEq1:  Iter=  5 NonCon=     1 RMS=2.22D-05 Max=2.33D-04 NDo=     1
 LinEq1:  Iter=  6 NonCon=     1 RMS=7.99D-06 Max=2.23D-04 NDo=     1
 LinEq1:  Iter=  7 NonCon=     1 RMS=2.27D-06 Max=3.17D-05 NDo=     1
 LinEq1:  Iter=  8 NonCon=     1 RMS=1.04D-06 Max=2.34D-05 NDo=     1
 LinEq1:  Iter=  9 NonCon=     1 RMS=2.22D-07 Max=2.79D-06 NDo=     1
 LinEq1:  Iter= 10 NonCon=     1 RMS=5.70D-08 Max=6.30D-07 NDo=     1
 LinEq1:  Iter= 11 NonCon=     1 RMS=2.21D-08 Max=4.99D-07 NDo=     1
 LinEq1:  Iter= 12 NonCon=     1 RMS=6.37D-09 Max=6.88D-08 NDo=     1
 LinEq1:  Iter= 13 NonCon=     1 RMS=2.15D-09 Max=4.52D-08 NDo=     1
 LinEq1:  Iter= 14 NonCon=     1 RMS=6.75D-10 Max=6.58D-09 NDo=     1
 LinEq1:  Iter= 15 NonCon=     1 RMS=1.63D-10 Max=1.94D-09 NDo=     1
 LinEq1:  Iter= 16 NonCon=     0 RMS=2.75D-11 Max=2.46D-10 NDo=     1
 Linear equations converged to 1.000D-10 1.000D-09 after    16 iterations.
 End of Minotr F.D. properties file   721 does not exist.
 End of Minotr F.D. properties file   722 does not exist.
 End of Minotr F.D. properties file   788 does not exist.
 Calling FoFJK, ICntrl=  10002127 FMM=F ISym2X=0 I1Cent= 0 IOpClX= 0 NMat=1 NMatS=1 NMatT=0.
 ***** Axes restored to original set *****
 -------------------------------------------------------------------
 Center     Atomic                   Forces (Hartrees/Bohr)
 Number     Number              X              Y              Z
 -------------------------------------------------------------------
      1        6          -0.002992751   -0.002765216   -0.001138265
      2        6           0.002136457    0.002242959   -0.000107328
      3        1           0.000727479    0.000789572   -0.000130388
      4        8           0.002192372    0.001839381    0.001544227
      5        6          -0.002253173   -0.002422145    0.000259557
      6        1          -0.000244893    0.000233120   -0.001750601
      7        8           0.000457669    0.000280356    0.000691407
      8        1          -0.000262008   -0.000472844    0.000705579
      9        1           0.000037083    0.000358625   -0.001091542
     10        8          -0.000828225   -0.000986497    0.000444380
     11        1           0.000762904    0.000210736    0.000219114
     12        1           0.000267087    0.000691953    0.000353860
 -------------------------------------------------------------------
 Cartesian Forces:  Max     0.002992751 RMS     0.001285857

 GradGradGradGradGradGradGradGradGradGradGradGradGradGradGradGradGradGrad
 Berny optimization.
 Using GEDIIS/GDIIS optimizer.
 FormGI is forming the generalized inverse of G from B-inverse, IUseBI=4.
 Internal  Forces:  Max     0.002854795 RMS     0.000787239
 Search for a local minimum.
 Step number   4 out of a maximum of   49
 All quantities printed in internal units (Hartrees-Bohrs-Radians)
 Mixed Optimization -- En-DIIS/RFO-DIIS
 Update second derivatives using D2CorX and points    1    3    2    4
 DE= -6.29D-04 DEPred=-5.81D-04 R= 1.08D+00
 TightC=F SS=  1.41D+00  RLast= 1.60D-01 DXNew= 4.2426D-01 4.8143D-01
 Trust test= 1.08D+00 RLast= 1.60D-01 DXMaxT set to 4.24D-01
 ITU=  1 -1  1  0
 Use linear search instead of GDIIS.
     Eigenvalues ---    0.00230   0.00230   0.01134   0.01134   0.01160
     Eigenvalues ---    0.01427   0.02068   0.02101   0.02694   0.02972
     Eigenvalues ---    0.04920   0.14609   0.15671   0.16000   0.16033
     Eigenvalues ---    0.16117   0.16991   0.21144   0.22088   0.22868
     Eigenvalues ---    0.33552   0.35650   0.36101   0.36608   0.48893
     Eigenvalues ---    0.51720   0.52531   0.52582   0.60631   0.93595
 RFO step:  Lambda=-8.84223989D-05 EMin= 2.29997499D-03
 Quartic linear search produced a step of -0.07411.
 Iteration  1 RMS(Cart)=  0.02159346 RMS(Int)=  0.00017095
 Iteration  2 RMS(Cart)=  0.00020842 RMS(Int)=  0.00004143
 Iteration  3 RMS(Cart)=  0.00000003 RMS(Int)=  0.00004143
 Variable       Old X    -DE/DX   Delta X   Delta X   Delta X     New X
                                 (Linear)    (Quad)   (Total)
    R1        2.57365  -0.00041  -0.00048  -0.00005  -0.00052   2.57313
    R2        2.07696  -0.00054  -0.00015  -0.00114  -0.00130   2.07566
    R3        2.54385   0.00285   0.00215   0.00244   0.00459   2.54844
    R4        2.75207   0.00245   0.00154   0.00426   0.00580   2.75787
    R5        2.06747  -0.00086  -0.00017  -0.00194  -0.00211   2.06536
    R6        1.85214  -0.00065   0.00036  -0.00159  -0.00123   1.85091
    R7        2.33454  -0.00087  -0.00026  -0.00051  -0.00078   2.33377
    R8        2.11929  -0.00115  -0.00060  -0.00232  -0.00292   2.11637
    R9        3.32857   0.00102  -0.00739   0.02073   0.01334   3.34191
   R10        1.82379   0.00066   0.00035   0.00069   0.00104   1.82483
   R11        1.82378   0.00066   0.00035   0.00069   0.00104   1.82482
    A1        2.09614   0.00072   0.00244   0.00123   0.00367   2.09981
    A2        2.14706   0.00051  -0.00054   0.00276   0.00221   2.14928
    A3        2.03998  -0.00123  -0.00189  -0.00399  -0.00589   2.03410
    A4        2.06315   0.00068   0.00190   0.00045   0.00235   2.06550
    A5        2.12341  -0.00011   0.00047  -0.00069  -0.00022   2.12319
    A6        2.09663  -0.00058  -0.00237   0.00024  -0.00213   2.09450
    A7        1.89190   0.00090   0.00034   0.00533   0.00567   1.89757
    A8        2.18466   0.00016  -0.00068   0.00149   0.00080   2.18547
    A9        2.00514  -0.00005   0.00052  -0.00077  -0.00025   2.00489
   A10        2.09338  -0.00011   0.00016  -0.00071  -0.00055   2.09283
   A11        2.17986   0.00000   0.00141  -0.00526  -0.00398   2.17588
   A12        2.18275   0.00011   0.00131  -0.00450  -0.00334   2.17941
   A13        1.84179  -0.00028  -0.00180  -0.00304  -0.00497   1.83682
   A14        3.01294   0.00008  -0.00547   0.02171   0.01623   3.02917
   A15        3.13962   0.00002   0.00010   0.00694   0.00705   3.14667
    D1        0.00002  -0.00000  -0.00000  -0.00001  -0.00001   0.00001
    D2       -3.14158  -0.00000  -0.00000  -0.00001  -0.00001  -3.14159
    D3        3.14158  -0.00000   0.00000  -0.00003  -0.00003   3.14155
    D4       -0.00001  -0.00000   0.00000  -0.00003  -0.00003  -0.00004
    D5        3.14151   0.00000   0.00001   0.00004   0.00004   3.14156
    D6       -0.00011   0.00000   0.00001   0.00001   0.00002  -0.00008
    D7       -3.14154  -0.00000  -0.00000  -0.00029  -0.00030   3.14135
    D8       -0.00005   0.00000   0.00000   0.00030   0.00030   0.00025
    D9        0.00005  -0.00000  -0.00000  -0.00030  -0.00030  -0.00025
   D10        3.14154   0.00000   0.00000   0.00029   0.00030  -3.14135
   D11        1.77864   0.00031  -0.00271   0.02438   0.02170   1.80034
   D12       -1.77671  -0.00032   0.00287  -0.02522  -0.02238  -1.79909
   D13        2.74077  -0.00040   0.00248  -0.03178  -0.02921   2.71156
         Item               Value     Threshold  Converged?
 Maximum Force            0.002855     0.000450     NO 
 RMS     Force            0.000787     0.000300     NO 
 Maximum Displacement     0.049663     0.001800     NO 
 RMS     Displacement     0.021578     0.001200     NO 
 Predicted change in Energy=-4.860916D-05
 GradGradGradGradGradGradGradGradGradGradGradGradGradGradGradGradGradGrad

                          Input orientation:                          
 ---------------------------------------------------------------------
 Center     Atomic      Atomic             Coordinates (Angstroms)
 Number     Number       Type             X           Y           Z
 ---------------------------------------------------------------------
      1          6           0       -0.653605    0.913332   -0.250456
      2          6           0       -1.378072    0.476661   -1.317475
      3          1           0       -0.804451    0.467304    0.741900
      4          8           0        0.269570    1.892567   -0.337078
      5          6           0       -2.350560   -0.590499   -1.104656
      6          1           0        0.659565    2.036331    0.549814
      7          8           0       -3.072572   -1.080767   -1.978443
      8          1           0       -1.245805    0.904797   -2.314336
      9          1           0       -2.415610   -0.965322   -0.051311
     10          8           0        1.236439    2.158026    2.217107
     11          1           0        2.084313    1.818912    2.531123
     12          1           0        1.002076    2.864564    2.832218
 ---------------------------------------------------------------------
                    Distance matrix (angstroms):
                    1          2          3          4          5
     1  C    0.000000
     2  C    1.361640   0.000000
     3  H    1.098393   2.137792   0.000000
     4  O    1.348576   2.383421   2.085447   0.000000
     5  C    2.422978   1.459403   2.630432   3.690512   0.000000
     6  H    1.904199   3.173531   2.154549   0.979459   4.324160
     7  O    3.579633   2.394534   3.865380   4.764946   1.234976
     8  H    2.147178   1.092944   3.118777   2.679851   2.218044
     9  H    2.583342   2.181506   2.297266   3.931842   1.119937
    10  O    3.348193   4.707008   3.033151   2.743932   5.608482
    11  H    4.006677   5.348033   3.656928   3.394892   6.220310
    12  H    4.006428   5.346694   3.657843   3.394963   6.219052
                    6          7          8          9         10
     6  H    0.000000
     7  O    5.480623   0.000000
     8  H    3.621347   2.718891   0.000000
     9  H    4.339120   2.039305   3.160232   0.000000
    10  O    1.768463   6.830812   5.316586   5.313989   0.000000
    11  H    2.450054   7.438938   5.950106   5.888143   0.965657
    12  H    2.452071   7.437126   5.948165   5.887557   0.965652
                   11         12
    11  H    0.000000
    12  H    1.534693   0.000000
[...]
 0.00023411,-0.00013340,-0.00038749,0.00005775,0.00013156,-0.00023968,-
 0.00002263,-0.00009282,0.00014255,0.00011625,0.00000749,0.00039424,0.0
 0007392,-0.00019537,0.00166845,-0.00009911,0.00011311,-0.00082690,-0.0
 0023684,-0.00011367,-0.00047780,0.00005450,0.00012249,0.00000173,0.000
 06908,0.00008049,-0.00083643,0.00474910,0.00498215,-0.00219326,-0.0027
 1950,-0.00253277,-0.00000002,-0.00043871,-0.00078725,0.00084032,-0.003
 55261,-0.00454017,-0.00656099,0.00127436,0.00164221,-0.00030751,-0.011
 53615,0.01335973,0.02049886,-0.00093030,-0.00084044,-0.00061277,0.0001
 7482,0.00001117,0.00013548,-0.00000677,-0.00011639,0.00020296,0.020854
 08,0.00180920,0.00248380,-0.00024591,-0.00077664,-0.00102061,-0.000196
 22,-0.00021091,-0.00024196,0.00039417,-0.00353674,0.00014092,-0.003908
 65,0.00058710,0.00042149,-0.00014746,0.01255768,-0.01906355,0.00629893
 ,-0.00033156,-0.00023976,-0.00017159,-0.00000998,0.00009122,0.00008703
 ,-0.00003621,-0.00001292,0.00008892,-0.02682886,0.02352692,0.00878548,
 0.01109107,-0.00644351,-0.00605762,-0.00646036,0.00040653,-0.00116099,
 -0.00167245,0.00173185,-0.01003394,-0.00748736,-0.00730377,0.00333928,
 0.00362169,-0.00081363,0.02327630,0.00906019,0.02162670,-0.00236877,-0
 .00198981,-0.00154468,0.00020666,0.00016190,0.00030909,-0.00007750,-0.
 00019814,0.00046756,-0.01339807,-0.00195295,0.00926588,-0.00062681,-0.
 00055347,-0.00015925,0.00033439,0.00025071,0.00017708,-0.00003121,-0.0
 0004578,0.00003802,0.00128728,0.00098141,0.00191925,-0.00027604,-0.000
 26379,-0.00000466,-0.00283456,-0.00288512,-0.00633912,0.00018026,0.000
 15375,0.00014768,0.00001413,-0.00000789,0.00000843,-0.00000522,-0.0000
 0401,-0.00002670,-0.00967474,0.00720668,0.00212243,0.01069272,0.000588
 50,0.00069723,-0.00020420,-0.00029911,-0.00030007,-0.00002863,-0.00009
 614,-0.00013000,0.00007974,-0.00039947,-0.00056846,-0.00030008,0.00016
 724,0.00016393,-0.00004238,0.00032677,-0.00115188,0.00522595,-0.000104
 52,-0.00009552,-0.00006679,0.00000597,0.00000482,0.00001957,-0.0000065
 3,-0.00001054,0.00003029,0.00603522,0.00516519,-0.00330885,-0.00568262
 ,-0.00444559,0.00140706,0.00140137,-0.00071301,-0.00076113,-0.00074452
 ,-0.00001318,-0.00018278,-0.00016135,0.00026586,-0.00124533,-0.0014209
 9,-0.00130205,0.00035357,0.00050438,-0.00008000,-0.00508700,0.00354394
 ,0.00902995,-0.00026489,-0.00024092,-0.00017542,0.00005252,-0.00000413
 ,0.00003718,0.00000585,-0.00004533,0.00005178,0.00773473,-0.00501726,-
 0.01134443,-0.00053891,0.00004088,0.00274620,0.00091825,0.00110104,-0.
 00038737,-0.00048925,-0.00050652,-0.00003187,-0.00012494,-0.00019108,0
 .00014748,-0.00107774,-0.00059165,-0.00053745,0.00027000,0.00028594,-0
 .00006638,0.00191928,-0.00314613,0.00663934,-0.00018437,-0.00014815,-0
 .00010963,0.00001161,0.00001217,0.00003183,-0.00000999,-0.00001776,0.0
 0004493,0.00180643,0.00957024,-0.00463325,0.00093980,-0.00053531,-0.00
 147368,-0.00397908,-0.00083448,-0.00097939,-0.00000312,0.00045939,0.00
 047387,0.00018634,-0.00001617,0.00002044,-0.00002234,0.00185601,0.0010
 0656,0.00209693,-0.00036420,-0.00036848,0.00001825,-0.00597660,0.00066
 922,-0.00691153,0.00025226,0.00019461,0.00018188,-0.00000607,-0.000000
 56,0.00000099,-0.00000286,0.00000379,-0.00003907,0.00961539,-0.0112507
 3,-0.00086494,0.00085013,0.00067088,0.00214393,-0.00583278,0.00955981,
 0.00074265,0.00116721,-0.00058744,-0.00050921,-0.00056021,0.00004128,-
 0.00006023,-0.00021757,0.00021009,-0.00100637,-0.00055152,-0.00048541,
 0.00031917,0.00023939,-0.00009554,0.00402717,-0.00650518,0.00241387,-0
 .00017822,-0.00014373,-0.00010037,0.00000224,0.00004001,0.00004486,-0.
 00002932,-0.00000656,0.00004198,-0.00633971,0.00477098,-0.00635759,0.0
 0265576,-0.00144551,0.00149710,0.00037607,0.00321268,0.00337715,0.0000
 9742,0.00069839,0.00002813,0.00009098,-0.00015786,-0.00002257,-0.00004
 416,-0.00006951,0.00010610,0.00004664,-0.00006566,-0.00002954,0.000189
 95,-0.00010204,0.00024957,0.00009889,0.00017408,0.00014640,-0.00021972
 ,-0.00034055,-0.00021121,0.00001791,-0.00010198,-0.00007069,-0.0000239
 7,0.00009565,-0.00005194,0.00000650,-0.00007766,0.00003089,0.00003411,
 0.00002670,-0.00002951,-0.00009207,0.00001944,-0.00000379,-0.00007453,
 -0.00001254,-0.00009367,0.00001245,0.00001910,-0.00007819,0.00000840,0
 .00002398,-0.00008652,-0.00021456,-0.00076157,0.00020253,0.00015697,0.
 00015648,0.00003144,-0.00001608,0.00006126,-0.00011995,-0.00051617,-0.
 00067053,-0.00023529,0.00028977,0.00020524,0.00011106,0.00000206,0.000
 01556,0.00001058,-0.00014666,0.00181804,-0.00330194,-0.00021802,-0.000
 15359,0.00020426,0.00008620,0.00006853,0.00006012,0.00006845,0.0000454
 0,0.00001799,0.00790351,0.00245144,0.01535943,0.00003695,0.00002720,0.
 00006637,0.00005896,0.00001291,-0.00010085,0.00001563,0.00002032,0.000
 00392,-0.00006983,-0.00006779,-0.00007864,-0.00020408,0.00007895,0.000
 05867,0.00000384,0.00000711,-0.00012908,0.00007820,-0.00000154,0.00003
 945,0.00000609,-0.00007015,-0.00007726,-0.00005825,-0.00014856,0.00029
 785,0.00001131,0.00000030,-0.00005411,0.00001678,0.00001305,0.00006663
 ,-0.00001747,-0.00001508,0.00000309,-0.00001238,0.00001636,-0.00000658
 ,0.00022020,-0.00000731,0.00015767,0.00018327,0.00036320,-0.00031321,-
 0.00014810,-0.00014489,0.00006094,-0.00003840,-0.00009232,0.00005424,0
 .00083111,-0.00151496,-0.00846775,0.00007863,0.00005549,-0.00003006,-0
 .00189969,0.00004917,0.00003697,-0.00024849,-0.00004403,-0.00005672,0.
 00004476,-0.00007836,-0.00004255,-0.00000576,-0.00135468,0.00394368,-0
 .00245410,-0.00000170,0.00003204,-0.00000284,0.00166055,-0.00524522,0.
 00083369,0.00093210,-0.00033810,-0.00035185,-0.00036614,0.00002822,-0.
 00000230,-0.00006337,0.00025524,-0.00904139,-0.00304943,-0.01719889,0.
 00017744,0.00020728,-0.00005410,0.00979703,0.00258711,0.01996550,-0.00
 003732,0.00000918,-0.00004965,0.00006389,0.00005451,0.00016811,-0.0000
 0247,-0.00000653,0.00000120,0.00007143,0.00005150,0.00004791,-0.000029
 68,0.00005193,-0.00013819,-0.00004589,-0.00001075,-0.00012044,0.000010
 12,-0.00001302,-0.00003957,-0.00003007,0.00002104,0.00002680,0.0000363
 2,-0.00000871,-0.00000533,-0.00000061,0.00004625,0.00005377,0.00003074
 ,0.00004986,-0.00016927,-0.00002552,-0.00003927,-0.00001316,-0.0001049
 1,-0.00009055,0.00012570,-0.00004431,-0.00004350,-0.00001391,0.0000921
 0,0.00006664,0.00006601,0.00000840,0.00000465,-0.00000496,0.00006326,0
 .00005682,0.00002535,-0.00012461,-0.00005150,-0.00014804,-0.00002786,-
 0.00001070,-0.00006998,0.00001660,-0.00003336,0.00007188,0.00000331,-0
 .00002709,-0.00001367,-0.00008391,0.00004943,0.00002789,0.00000188,-0.
 00001182,-0.00001361,-0.00000080,-0.00000868,-0.00001520,0.00004502,-0
 .00001536,0.00001554,-0.00000533,0.00002329,0.00004014,0.00000194,0.00
 000070,-0.00000252,0.00003121,-0.00002835,0.00000620,-0.00002291,0.000
 02454,-0.00007128,0.00003192,-0.00001837,0.00000699,-0.00000830,-0.000
 00474,0.00000059,-0.00000155,0.00000389,0.00002178,0.00001101,0.000027
 54,-0.00001699,0.00001824,0.00000187,0.00000829,0.00000356,-0.00001757
 ,0.00004155,-0.00003291,-0.00003569,0.00004222,0.00003799,0.00001855,-
 0.00008576,-0.00000301,-0.00000159,0.00000582,-0.00000401,0.00001081,-
 0.00003892,0.00000967,0.00002850,0.00003015,0.00002703,0.00000404,0.00
 004052,-0.00000357,-0.00000241,-0.00001372,-0.00002415,-0.00002435,0.0
 0002683,0.00001929,-0.00000901,0.00002112,-0.00005069,-0.00007341,-0.0
 0004850,-0.00000605,0.00001011,0.00000723,-0.00000099,-0.00000319,0.00
 001121,0.00009327,0.00005790,-0.00007041,-0.00000769,0.00000258,-0.000
 00060,-0.00004894,0.00001890,0.00000204,-0.00000429,0.00001441,-0.0000
 0377,0.00000247,-0.00002521,0.00000006,-0.00000534,-0.00002206,-0.0000
 0771,0.00002843,0.00001083,-0.00000545,0.00000603,0.00002297,0.0000140
 4,0.00001670,0.00008273,-0.00008946,0.00002228,-0.00000371,-0.00000637
 ,-0.00001885,-0.00005528,0.00002149,0.00000529,0.00000855,-0.00000957,
 -0.00000201,-0.00001702,0.00008158,0.00001489,0.00001134,0.00002043,-0
 .00004373,0.00005720,0.00001506,-0.00000140,0.00000725,-0.00000342,0.0
 0000129,-0.00000926,-0.00001551,-0.00004635,-0.00005866,-0.00004363,0.
 00000729,-0.00000441,0.00003328,-0.00001184,0.00005313,0.00003567,-0.0
 0000505,-0.00000567,0.00000377,0.00008378,-0.00006023,-0.00002250,-0.0
 0011135,0.00038579,-0.00007099,0.00003682,-0.00016133,0.00003379,-0.00
 023710,-0.00000513,-0.00001122,-0.00005535,-0.00006758,0.00017627,-0.0
 0002807,-0.00002987,-0.00001155,-0.00018639,0.00043254,-0.00008668,0.0
 0002644,0.00000012,0.00000365,0.00002665,-0.00000609,-0.00001992,0.000
 00630,-0.00001711,-0.00000679,2.44891404,0.00041596,0.00000064,-0.0001
 0562,-0.00014386,0.00000853,0.00007041,-0.00001816,-0.00022649,-0.0000
 8189,-0.00015053,-0.00010769,-0.00029685,-0.00002369,-0.00001734,-0.00
 000650,0.00025399,-0.00033044,0.00008939,-0.00000626,0.00001906,0.0000
 0093,-0.00000959,0.00003205,-0.00001260,-0.00001835,0.00000676,-0.0000
 0183,-1.42772635,1.77965449,-0.00019335,-0.00023034,-0.00035104,-0.000
 01308,0.00002096,0.00005758,0.00004403,-0.00002981,0.00001795,0.000453
 39,-0.00001164,0.00163183,-0.00003513,-0.00003123,-0.00001363,0.000526
 28,0.00072706,-0.00119618,0.00002402,0.00002198,0.00003348,-0.00000783
 ,0.00000038,0.00001033,-0.00000441,0.00000334,0.00000654,0.38664533,1.
 54912223,-0.20381905,0.00054028,-0.00012870,0.00032867,-0.00018323,-0.
 00002242,-0.00009756,0.00033963,0.00022011,0.00019735,-0.00046816,-0.0
 0018926,0.00000352,0.00022028,0.00025616,0.00002551,0.00085189,-0.0002
 2573,0.00054717,-0.00014313,-0.00009808,-0.00008599,-0.00000733,0.0000
 1029,0.00001861,0.00000583,0.00001197,0.00002578,-2.98267687,0.9165794
 5,-0.67113290,2.99759231,-0.00043762,-0.00028791,-0.00034378,0.0001940
 9,0.00009726,0.00008499,-0.00017030,-0.00005392,-0.00002155,0.00045971
 ,0.00011308,0.00041402,-0.00020678,-0.00020755,-0.00001524,-0.00059325
 ,0.00083569,-0.00121820,0.00012273,0.00009901,0.00009337,-0.00000882,-
 0.00000635,0.00000183,-0.00000278,-0.00000276,-0.00001430,0.84369351,0
 .43686734,0.13506478,-0.92664446,-0.42433547,-0.00014882,-0.00051322,0
 .00007502,0.00013209,0.00021455,0.00001147,-0.00005709,-0.00000268,-0.
 00005205,0.00040414,0.00024959,0.00003968,-0.00014238,-0.00009699,0.00
 003572,-0.00131647,0.00007449,-0.00094298,0.00007280,0.00005717,0.0000
 3543,0.00000339,-0.00000810,-0.00001486,0.00000175,-0.00000163,-0.0000
 2182,-0.71553137,0.15809196,0.53057279,0.67931304,-0.13225334,-0.56003
 721,-0.00049118,-0.00038606,-0.00029747,0.00017104,0.00020098,0.000097
 55,-0.00005752,-0.00016450,-0.00006551,0.00028245,0.00043163,0.0004825
 3,-0.00021711,-0.00024206,-0.00000935,0.00038659,-0.00045288,-0.001792
 21,0.00013358,0.00011275,0.00009923,-0.00000832,-0.00000741,-0.0000019
 7,-0.00000852,0.00000332,-0.00001787,0.53428489,0.51084739,0.28369365,
 -0.01607149,0.08359396,0.03726892,-0.51840440,0.00007551,0.00043065,0.
 00039645,-0.00009708,-0.00016922,-0.00011850,0.00025590,0.00027910,0.0
 0022210,-0.00022306,-0.00052461,-0.00006249,0.00025157,0.00024016,0.00
 000940,0.00002763,0.00086306,0.00098679,-0.00012235,-0.00012682,-0.000
 09219,0.00001696,-0.00001325,0.00001492,0.00001985,-0.00000263,0.00002
 542,0.58350151,-2.21590689,-1.68465772,0.01023068,-0.01311843,-0.02581
 181,-0.59393711,2.22804887,-0.00033803,0.00002869,0.00038514,0.0001449
 7,0.00003848,-0.00007635,0.00007459,0.00008919,0.00001868,0.00011814,0
 .00014011,-0.00007874,0.00005034,-0.00002000,0.00002684,-0.00031747,-0
 .00071116,-0.00052254,-0.00000698,-0.00000247,-0.00001726,-0.00000493,
 0.00000577,-0.00000638,0.00000055,0.00000598,-0.00000786,0.32887949,-1
 .70686963,-0.32695058,-0.00914320,-0.00179259,0.03029881,-0.31945748,1
 .70908764,0.29693025,-0.00015787,-0.00126645,-0.00042383,0.00008607,0.
 00004481,0.00088118,0.00012778,0.00036558,-0.00030122,-0.00027986,0.00
 027050,0.00027657,-0.00013127,-0.00031810,-0.00027528,0.00004645,0.000
 21558,-0.00030697,0.00020178,-0.00009008,0.00016205,-0.00002993,0.0000
 6668,-0.00001445,0.00004016,0.00008572,0.00004681,-0.00016324,0.000075
 60,-0.00003817,0.00002885,0.00003871,0.00000735,-0.00001086,-0.0001633
 7,-0.00009714,0.00004442,0.00004545,-0.00009149,0.00002191,0.00000977,
 0.00003431,-0.00013799,-0.00014067,0.00000354,0.00045237,0.00088232,0.
 00005589,-0.00023143,-0.00024336,-0.00022631,0.00012017,0.00000462,0.0
 0005750,-0.00050165,0.00089257,0.00056793,0.00006534,-0.00023652,-0.00
 020533,-0.00026471,0.00003276,0.00010464,0.00007820,-0.00078829,-0.000
 59599,-0.00010169,-0.00010811,-0.00042410,-0.00000745,-0.00002789,0.00
 012898,-0.00000798,0.00000828,0.00001497,0.00006418,0.00009331,0.00010
 981,-0.00025916,-0.00006103,-0.00001042,0.00022651,0.00021663,-0.00002
 847,0.00000872,-0.00001415,-0.00002054,0.00008104,0.00007117,-0.000011
 12,-0.00028375,-0.00002509,-0.00019636,-0.00013114,0.00024447,0.000020
 93,0.00018835,-0.00005748,0.00002362,-0.00001617,0.00008578,0.00005960
 ,0.00000526,-0.00031754,0.00021012,-0.00001374,-0.00007654,-0.00006772
 ,-0.00000872,0.00001456,-0.00007415,0.00002727,0.00003383,0.00002696,0
 .00000304,0.00002602,0.00001631,0.00021579,0.00006338,-0.00007221,-0.0
 0022738,0.00006827,-0.00003169,0.00010306,-0.00001688,0.00001118,-0.00
 005960,-0.00009123,-0.00006577,0.00001141,0.00013710,0.00022975,0.0000
 1787,-0.00005630,-0.00001855,0.00063932,0.00018621,-0.00006524,-0.0001
 1336,-0.00007916,0.00005297,0.00003607,-0.00013655,-0.00007794,-0.0000
 5211,0.00006050,-0.00014397,0.00002861,-0.00003648,0.00003818,0.000003
 16,0.00007996,0.00064685,-0.00037789,-0.00047440,-0.00000498,0.0001577
 7,0.00020420,0.00002022,0.00008402,0.00010321,-0.00000164,0.00047137,0
 .00027944,0.00056859,-0.00007679,-0.00006177,0.00001136,-0.00028436,0.
 00030098,-0.00138582,0.00008065,0.00001166,0.00003297,0.00001489,-0.00
 000261,0.00006856,0.00000003,-0.00000089,0.00000370,-0.00005812,-0.000
 05212,-0.00000175,0.00004198,0.00005148,-0.00015330,0.00000815,0.00001
 684,0.00004753,-0.00003113,-0.00000079,0.00003800,0.00006640,-0.000051
 06,0.00001693,-0.00006406,0.00000076,0.00000051,0.00000027,-0.00003927
 ,-0.00003672,-0.00001231,0.00004757,-0.00009294,-0.00004730,0.00002363
 ,-0.00000747,0.00003234,0.00000884,0.00005074,0.00000134,0.00001347,0.
 00004637,0.00003471,0.00001297,0.00007085,-0.00000225,-0.00000817,-0.0
 0000354,-0.00005144,-0.00005255,-0.00002126,-0.00013496,-0.00006814,-0
 .00002059,0.00001790,0.00000002,0.00003695,0.00009259,0.00003980,-0.00
 009177,-0.00002105,-0.00003052,0.00000641,0.00000771,0.00002584,-0.000
 01710,-0.00000056,-0.00000060,0.00001680,0.00002661,-0.00000126,-0.000
 02605,-0.00000052,-0.00000164,0.00000376,-0.00002355,0.00002132,0.0000
 1836,-0.00000487,-0.00000614,0.00000314,0.00000796,-0.00003542,-0.0000
 4045,0.00002027,-0.00000619,0.00004563,-0.00002971,-0.00000036,-0.0000
 0315,0.00001754,0.00000138,0.00003476,-0.00001857,0.00002325,-0.000011
 47,-0.00000475,0.00002268,-0.00002780,0.00000307,-0.00000724,-0.000001
 81,0.00000029,0.00001141,0.00000363,-0.00000039,0.00002132,-0.00006375
 ,0.00001144,-0.00002646,0.00009483,0.00000318,-0.00000105,0.00000440,-
 0.00001015,-0.00000097,0.00000392,-0.00001714,-0.00000103,-0.00001633,
 0.00001515,-0.00000091,0.00000513,0.00001052,0.00000275,0.00001662,0.0
 0000116,0.00000669,-0.00004688,0.00002065,0.00002026,0.00000021,-0.000
 01937,-0.00000926,-0.00004715,-0.00001302,-0.00000807,-0.00000989,-0.0
 0001196,-0.00001474,0.00000579,0.00014359,0.00002423,-0.00007860,0.000
 00116,-0.00000202,0.00000572,-0.00003462,0.00004125,0.00006141,0.00001
 432,0.00000147,-0.00000248,-0.00010500,-0.00000066,0.00001167,-0.00002
 845,0.00003069,0.00000991,0.00004814,-0.00000629,-0.00000388,-0.000006
 40,0.00000867,0.00000394,0.00000593,0.00004250,-0.00004370,-0.00002940
 ,-0.00000340,-0.00000007,0.00000109,-0.00001215,0.00003074,0.00007286,
 -0.00000430,0.00000376,0.00001187,-0.00005950,-0.00001741,0.00000601,0
 .00000223,-0.00000102,0.00000606,0.00012743,-0.00006478,-0.00002310,-0
 .00000925,-0.00000637,0.00000924,-0.00000711,0.00000419,-0.00002080,-0
 .00008034,0.00020566,-0.00000416,-0.00000253,-0.00000255,-0.00004073,0
 .00003229,-0.00000278,-0.00000555,0.00000633,-0.00000764,0.00006875,-0
 .00007107,-0.00013208,-0.00061767,0.00001513,0.00038302,0.00027985,-0.
 00003050,-0.00009019,-0.00001229,0.00012304,0.00000676,0.00097084,0.00
 003985,-0.00027674,-0.00008717,-0.00008731,0.00004478,-0.00240168,0.00
 016301,-0.00052109,0.00006353,0.00001482,-0.00000551,-0.00001838,-0.00
 001931,-0.00003194,0.00000827,-0.00000324,-0.00001273,2.48403491,-0.00
 011615,-0.00094502,0.00028620,0.00004654,0.00037669,0.00000813,0.00015
 761,0.00003369,-0.00002836,0.00007636,0.00115917,-0.00023154,-0.000123
 72,-0.00015989,0.00006183,-0.00019916,-0.00225358,-0.00120834,0.000042
 13,0.00009050,0.00001557,-0.00003111,-0.00001159,-0.00003997,-0.000003
 18,0.00001759,-0.00001810,-1.33826761,1.77084806,0.00085471,0.00077186
 ,-0.00036350,-0.00035457,-0.00026587,-0.00001704,-0.00010507,-0.000147
 14,-0.00001040,-0.00044237,-0.00038999,0.00080200,0.00017236,0.0001936
 6,-0.00006803,0.00072429,0.00008245,-0.00010860,-0.00010452,-0.0000861
 3,-0.00002652,0.00000784,0.00000174,0.00003202,-0.00001542,-0.00001818
 ,0.00003222,0.51139450,1.67550449,-0.23135574,0.00059045,-0.00008869,0
 .00000236,-0.00020153,0.00001611,0.00000927,0.00012673,0.00002087,0.00
 003740,-0.00062510,0.00007743,0.00021735,0.00010815,0.00015081,-0.0000
 1340,0.00102260,-0.00053896,0.00022821,-0.00008656,-0.00004035,-0.0000
 3213,0.00001877,0.00000569,0.00001395,-0.00000223,0.00000117,0.0000171
 3,-3.12492867,0.84672371,-0.79399905,3.11875516,-0.00000539,0.00022263
 ,-0.00022506,-0.00000880,-0.00011620,0.00000440,0.00000726,-0.00004356
 ,0.00003104,-0.00019686,-0.00024707,0.00008080,0.00001095,0.00001314,-
 0.00001636,0.00047431,0.00082587,0.00028077,-0.00000318,-0.00000617,0.
 00001486,0.00000238,-0.00000333,0.00000860,0.00000389,-0.00000279,0.00
 000221,0.84510357,0.54179906,0.15624193,-0.84305824,-0.54612722,-0.000
 14473,-0.00040990,0.00011094,0.00007987,0.00014114,-0.00000580,0.00006
 412,0.00005081,0.00000979,0.00006591,0.00007781,-0.00063525,-0.0000858
 0,-0.00003300,0.00004033,-0.00046819,0.00012886,0.00047988,0.00003104,
 0.00002770,0.00000562,0.00000674,-0.00001620,-0.00001628,0.00000855,0.
 00000497,-0.00001556,-0.79295736,0.15606905,0.57654877,0.79227838,-0.1
 5995160,-0.57580765,0.00004105,0.00001667,-0.00020914,-0.00006754,0.00
 000611,0.00002521,-0.00001720,0.00001544,0.00004570,-0.00023418,-0.000
 15797,-0.00008429,0.00000270,-0.00001143,-0.00000835,0.00090864,0.0002
 6533,0.00024712,0.00000605,0.00000075,0.00001520,-0.00000642,0.0000026
 6,0.00000670,-0.00000178,0.00000652,-0.00000011,0.64270846,0.49169458,
 0.28186731,0.00522223,-0.00232989,0.00112147,-0.64856202,0.00002500,0.
 00059218,0.00011742,-0.00002601,-0.00021002,-0.00004121,0.00001323,0.0
 0009400,0.00006145,0.00014814,-0.00070097,0.00017623,0.00014084,0.0001
 3874,-0.00002848,-0.00043899,0.00101220,0.00053943,-0.00005275,-0.0000
 8234,-0.00004098,0.00001464,0.00001181,0.00001915,0.00000566,-0.000009
 76,0.00001792,0.49294856,-2.31095469,-1.83188882,-0.00326955,0.0036856
 4,0.00391036,-0.48950876,2.30642320,-0.00040071,-0.00004594,0.00028508
 ,0.00015863,0.00003175,-0.00004253,0.00006542,0.00009215,0.00001947,0.
 00000313,0.00009521,-0.00056816,0.00001788,-0.00005907,0.00001845,-0.0
 0012554,-0.00041125,0.00038145,0.00001339,0.00000824,-0.00000996,-0.00
 001551,0.00001329,-0.00000603,0.00000311,0.00000863,-0.00000928,0.2820
 6650,-1.83041895,-0.34546520,0.00124053,0.00352841,-0.00071480,-0.2830
 2682,1.82715753,0.34611151\\@
 The archive entry for this job was punched.


 CONTRAIWISE...CONTINUED TWEEDLEDEE, IF IT WAS SO, IT MIGHT BE,
 AND IF IT WERE SO, IT WOULD BE.....
 BUT AS IT ISN'T, IT AIN'T....
 THAT'S LOGIC.....
 ALICE THROUGH THE LOOKING GLASS
 Job cpu time:       6 days 16 hours 13 minutes 47.6 seconds.
 Elapsed time:       0 days  4 hours  4 minutes 13.4 seconds.
 File lengths (MBytes):  RWF=   6518 Int=      0 D2E=      0 Chk=     47 Scr=      1
 Normal termination of Gaussian 16 at Sat Mar 22 21:04:41 2025.
