 Entering Gaussian System, Link 0=g16
 Input=enolonetc2_nh3_mp2_avdz_opt_anharm.gjf
 Output=enolonetc2_nh3_mp2_avdz_opt_anharm.log
 Initial command:
 /sw/contrib/chem-src/g16/c01/g16/l1.exe "/scr/Gau-90112.inp" -scrdir="/scr/"
 Entering Link 1 = /sw/contrib/chem-src/g16/c01/g16/l1.exe PID=     90113.
  
 Copyright (c) 1988-2019, Gaussian, Inc.  All Rights Reserved.
  
 This is part of the Gaussian(R) 16 program.  It is based on
 the Gaussian(R) 09 system (copyright 2009, Gaussian, Inc.),
 the Gaussian(R) 03 system (copyright 2003, Gaussian, Inc.),
 the Gaussian(R) 98 system (copyright 1998, Gaussian, Inc.),
 the Gaussian(R) 94 system (copyright 1995, Gaussian, Inc.),
 the Gaussian 92(TM) system (copyright 1992, Gaussian, Inc.),
 the Gaussian 90(TM) system (copyright 1990, Gaussian, Inc.),
 the Gaussian 88(TM) system (copyright 1988, Gaussian, Inc.),
 the Gaussian 86(TM) system (copyright 1986, Carnegie Mellon
 University), and the Gaussian 82(TM) system (copyright 1983,
 Carnegie Mellon University). Gaussian is a federally registered
 trademark of Gaussian, Inc.
  
 This software contains proprietary and confidential information,
 including trade secrets, belonging to Gaussian, Inc.
  
 This software is provided under written license and may be
 used, copied, transmitted, or stored only in accord with that
 written license.
  
 The following legend is applicable only to US Government
 contracts under FAR:
  
                    RESTRICTED RIGHTS LEGEND
  
 Use, reproduction and disclosure by the US Government is
 subject to restrictions as set forth in subparagraphs (a)
 and (c) of the Commercial Computer Software - Restricted
 Rights clause in FAR 52.227-19.
  
 Gaussian, Inc.
 340 Quinnipiac St., Bldg. 40, Wallingford CT 06492
  
  
 ---------------------------------------------------------------
 Warning -- This program may not be used in any manner that
 competes with the business of Gaussian, Inc. or will provide
 assistance to any competitor of Gaussian, Inc.  The licensee
 of this program is prohibited from giving any competitor of
 Gaussian, Inc. access to this program.  By using this program,
 the user acknowledges that Gaussian, Inc. is engaged in the
 business of creating and licensing software in the field of
 computational chemistry and represents and warrants to the
 licensee that it is not a competitor of Gaussian, Inc. and that
 it will not use this program in any manner prohibited above.
 ---------------------------------------------------------------
  

 Cite this work as:
 Gaussian 16, Revision C.01,
 M. J. Frisch, G. W. Trucks, H. B. Schlegel, G. E. Scuseria, 
 M. A. Robb, J. R. Cheeseman, G. Scalmani, V. Barone, 
 G. A. Petersson, H. Nakatsuji, X. Li, M. Caricato, A. V. Marenich, 
 J. Bloino, B. G. Janesko, R. Gomperts, B. Mennucci, H. P. Hratchian, 
 J. V. Ortiz, A. F. Izmaylov, J. L. Sonnenberg, D. Williams-Young, 
 F. Ding, F. Lipparini, F. Egidi, J. Goings, B. Peng, A. Petrone, 
 T. Henderson, D. Ranasinghe, V. G. Zakrzewski, J. Gao, N. Rega, 
 G. Zheng, W. Liang, M. Hada, M. Ehara, K. Toyota, R. Fukuda, 
 J. Hasegawa, M. Ishida, T. Nakajima, Y. Honda, O. Kitao, H. Nakai, 
 T. Vreven, K. Throssell, J. A. Montgomery, Jr., J. E. Peralta, 
 F. Ogliaro, M. J. Bearpark, J. J. Heyd, E. N. Brothers, K. N. Kudin, 
 V. N. Staroverov, T. A. Keith, R. Kobayashi, J. Normand, 
 K. Raghavachari, A. P. Rendell, J. C. Burant, S. S. Iyengar, 
 J. Tomasi, M. Cossi, J. M. Millam, M. Klene, C. Adamo, R. Cammi, 
 J. W. Ochterski, R. L. Martin, K. Morokuma, O. Farkas, 
 J. B. Foresman, and D. J. Fox, Gaussian, Inc., Wallingford CT, 2019.
 
 ******************************************
 Gaussian 16:  EM64L-G16RevC.01  3-Jul-2019
                22-Mar-2025 
 ******************************************
 %nprocshared=40
 Will use up to   40 processors via shared memory.
 %mem=50gb
 ----------------------------------------------
 # MP2/aug-cc-pVDZ opt freq=(vibrot,anharmonic)
 ----------------------------------------------
 1/18=20,19=15,38=1,80=1/1,3;
 2/9=110,12=2,17=6,18=5,40=1/2;
 3/5=16,7=10,11=9,25=1,30=1,71=1/1,2,3;
 4//1;
 5/5=2,38=5/2;
 8/6=4,10=1/1;
 9/15=2,16=-3/6;
 10/5=1/2;
 6/7=2,8=2,9=2,10=2/1;
 7/12=2/1,2,3,16;
 1/18=20,19=15,80=1/3(2);
 2/9=110/2;
 99//99;
 2/9=110/2;
 3/5=16,7=10,11=9,25=1,30=1,71=1/1,2,3;
 4/5=5,16=3,69=1/1;
 5/5=2,38=5/2;
 8/6=4,10=1/1;
 9/15=2,16=-3/6;
 10/5=1/2;
 7/12=2/1,2,3,16;
 1/18=20,19=15,80=1/3(-8);
 2/9=110/2;
 6/7=2,8=2,9=2,10=2/1;
 99/9=10/99;
 ----
 blah
 ----
 Symbolic Z-matrix:
 Charge =  0 Multiplicity = 1
 C                    -0.89014   0.59987  -0.23222 
 C                    -1.71297   0.24998  -1.22304 
 H                    -0.86212   0.13771   0.74764 
 O                     0.04206   1.59944  -0.31353 
 C                    -2.67674  -0.84494  -1.01637 
 H                     0.01234   2.01819  -1.21071 
 O                    -3.44577  -1.19089  -1.9048 
 H                    -1.71911   0.7294   -2.19237 
 H                    -2.66603  -1.33007  -0.02614 
 N                     0.18958   2.93401  -2.67483 
 H                     0.94701   3.59929  -2.48502 
 H                     0.49048   2.45132  -3.52744 
 H                    -0.58968   3.52516  -2.98107 
 
 Add virtual bond connecting atoms N10        and H6         Dist= 3.28D+00.

 GradGradGradGradGradGradGradGradGradGradGradGradGradGradGradGradGradGrad
 Berny optimization.
 Initialization pass.
                           ----------------------------
                           !    Initial Parameters    !
                           ! (Angstroms and Degrees)  !
 --------------------------                            --------------------------
 ! Name  Definition              Value          Derivative Info.                !
 --------------------------------------------------------------------------------
 ! R1    R(1,2)                  1.3346         estimate D2E/DX2                !
 ! R2    R(1,3)                  1.0837         estimate D2E/DX2                !
 ! R3    R(1,4)                  1.3692         estimate D2E/DX2                !
 ! R4    R(2,5)                  1.4732         estimate D2E/DX2                !
 ! R5    R(2,8)                  1.0814         estimate D2E/DX2                !
 ! R6    R(4,6)                  0.9905         estimate D2E/DX2                !
 ! R7    R(5,7)                  1.2249         estimate D2E/DX2                !
 ! R8    R(5,9)                  1.1027         estimate D2E/DX2                !
 ! R9    R(6,10)                 1.736          estimate D2E/DX2                !
 ! R10   R(10,11)                1.0258         estimate D2E/DX2                !
 ! R11   R(10,12)                1.0249         estimate D2E/DX2                !
 ! R12   R(10,13)                1.0249         estimate D2E/DX2                !
 ! A1    A(2,1,3)              125.1258         estimate D2E/DX2                !
 ! A2    A(2,1,4)              124.5446         estimate D2E/DX2                !
 ! A3    A(3,1,4)              110.3297         estimate D2E/DX2                !
 ! A4    A(1,2,5)              119.6053         estimate D2E/DX2                !
 ! A5    A(1,2,8)              123.5543         estimate D2E/DX2                !
 ! A6    A(5,2,8)              116.8404         estimate D2E/DX2                !
 ! A7    A(1,4,6)              109.9982         estimate D2E/DX2                !
 ! A8    A(2,5,7)              121.2569         estimate D2E/DX2                !
 ! A9    A(2,5,9)              116.5245         estimate D2E/DX2                !
 ! A10   A(7,5,9)              122.2186         estimate D2E/DX2                !
 ! A11   A(6,10,11)            105.1565         estimate D2E/DX2                !
 ! A12   A(6,10,12)            118.8892         estimate D2E/DX2                !
 ! A13   A(6,10,13)            118.5961         estimate D2E/DX2                !
 ! A14   A(11,10,12)           104.0385         estimate D2E/DX2                !
 ! A15   A(11,10,13)           104.0404         estimate D2E/DX2                !
 ! A16   A(12,10,13)           104.2581         estimate D2E/DX2                !
 ! A17   L(4,6,10,7,-1)        190.3141         estimate D2E/DX2                !
 ! A18   L(4,6,10,7,-2)        179.994          estimate D2E/DX2                !
 ! D1    D(3,1,2,5)             -0.0017         estimate D2E/DX2                !
 ! D2    D(3,1,2,8)            179.9985         estimate D2E/DX2                !
 ! D3    D(4,1,2,5)            179.9977         estimate D2E/DX2                !
 ! D4    D(4,1,2,8)             -0.0021         estimate D2E/DX2                !
 ! D5    D(2,1,4,6)             -0.0083         estimate D2E/DX2                !
 ! D6    D(3,1,4,6)            179.9911         estimate D2E/DX2                !
 ! D7    D(1,2,5,7)           -179.9967         estimate D2E/DX2                !
 ! D8    D(1,2,5,9)              0.0026         estimate D2E/DX2                !
 ! D9    D(8,2,5,7)              0.0031         estimate D2E/DX2                !
 ! D10   D(8,2,5,9)           -179.9976         estimate D2E/DX2                !
 ! D11   D(1,4,10,11)         -179.2984         estimate D2E/DX2                !
 ! D12   D(1,4,10,12)          -65.3315         estimate D2E/DX2                !
 ! D13   D(1,4,10,13)           66.9199         estimate D2E/DX2                !
 --------------------------------------------------------------------------------
 Trust Radius=3.00D-01 FncErr=1.00D-07 GrdErr=1.00D-07 EigMax=2.50D+02 EigMin=1.00D-04
 Number of steps in this run=     53 maximum allowed number of steps=    100.
 GradGradGradGradGradGradGradGradGradGradGradGradGradGradGradGradGradGrad

                          Input orientation:                          
 ---------------------------------------------------------------------
 Center     Atomic      Atomic             Coordinates (Angstroms)
 Number     Number       Type             X           Y           Z
 ---------------------------------------------------------------------
      1          6           0       -0.890135    0.599870   -0.232215
      2          6           0       -1.712970    0.249985   -1.223040
      3          1           0       -0.862125    0.137712    0.747636
      4          8           0        0.042063    1.599439   -0.313532
      5          6           0       -2.676737   -0.844940   -1.016373
      6          1           0        0.012343    2.018194   -1.210706
      7          8           0       -3.445772   -1.190889   -1.904800
      8          1           0       -1.719110    0.729405   -2.192374
      9          1           0       -2.666030   -1.330071   -0.026140
     10          7           0        0.189582    2.934008   -2.674830
     11          1           0        0.947012    3.599291   -2.485022
     12          1           0        0.490483    2.451323   -3.527440
     13          1           0       -0.589681    3.525163   -2.981065
 ---------------------------------------------------------------------
                    Distance matrix (angstroms):
                    1          2          3          4          5
     1  C    0.000000
     2  C    1.334620   0.000000
     3  H    1.083736   2.149443   0.000000
     4  O    1.369213   2.393402   2.019970   0.000000
     5  C    2.427823   1.473234   2.714802   3.723016   0.000000
     6  H    1.945136   2.470511   2.852369   0.990535   3.932742
     7  O    3.540570   2.354467   3.933933   4.741630   1.224907
     8  H    2.132182   1.081430   3.119004   2.718223   2.185999
     9  H    2.630768   2.199424   2.450957   3.999798   1.102737
    10  N    3.546879   3.596023   4.542976   2.716351   5.024611
    11  H    4.176933   4.459367   5.070067   3.087671   5.919432
    12  H    4.023989   3.874450   5.045653   3.354995   5.215563
    13  H    4.025392   3.883198   5.045023   3.350111   5.226243
                    6          7          8          9         10
     6  H    0.000000
     7  O    4.768495   0.000000
     8  H    2.371199   2.598382   0.000000
     9  H    4.448343   2.038807   3.135389   0.000000
    10  N    1.736026   5.551893   2.955697   5.775158   0.000000
    11  H    2.235476   6.525261   3.928116   6.587775   1.025830
    12  H    2.404885   5.602926   3.103177   6.043312   1.024924
    13  H    2.401575   5.617539   3.116714   6.051124   1.024937
                   11         12         13
    11  H    0.000000
    12  H    1.616441   0.000000
    13  H    1.616471   1.618151   0.000000
 Stoichiometry    C3H7NO2
 Framework group  C1[X(C3H7NO2)]
 Deg. of freedom    33
 Full point group                 C1      NOp   1
 Largest Abelian subgroup         C1      NOp   1
 Largest concise Abelian subgroup C1      NOp   1
                         Standard orientation:                         
 ---------------------------------------------------------------------
 Center     Atomic      Atomic             Coordinates (Angstroms)
 Number     Number       Type             X           Y           Z
 ---------------------------------------------------------------------
      1          6           0       -0.034212    1.158439   -0.000008
      2          6           0        0.644074    0.009031    0.000050
      3          1           0        0.412254    2.145936   -0.000072
      4          8           0       -1.400091    1.253925   -0.000009
      5          6           0        2.117110    0.033209   -0.000008
      6          1           0       -1.802932    0.349006   -0.000095
      7          8           0        2.769783   -1.003331   -0.000017
      8          1           0        0.171703   -0.963777    0.000136
      9          1           0        2.593312    1.027824   -0.000055
     10          7           0       -2.781510   -1.084930   -0.000073
     11          1           0       -3.750483   -0.748377   -0.012380
     12          1           0       -2.728820   -1.720376   -0.802508
     13          1           0       -2.743835   -1.704546    0.815496
 ---------------------------------------------------------------------
 Rotational constants (GHZ):           5.7712112           1.3954688           1.1303812
 Standard basis: Aug-CC-pVDZ (5D, 7F)
 There are   213 symmetry adapted cartesian basis functions of A   symmetry.
 There are   201 symmetry adapted basis functions of A   symmetry.
   201 basis functions,   335 primitive gaussians,   213 cartesian basis functions
    24 alpha electrons       24 beta electrons
       nuclear repulsion energy       217.3231859770 Hartrees.
 NAtoms=   13 NActive=   13 NUniq=   13 SFac= 1.00D+00 NAtFMM=   60 NAOKFM=F Big=F
 Integral buffers will be    131072 words long.
 Raffenetti 1 integral format.
 Two-electron integral symmetry is turned on.
 One-electron integrals computed using PRISM.
 NBasis=   201 RedAO= T EigKep=  2.46D-05  NBF=   201
 NBsUse=   201 1.00D-06 EigRej= -1.00D+00 NBFU=   201
 ExpMin= 2.97D-02 ExpMax= 1.17D+04 ExpMxC= 4.01D+02 IAcc=3 IRadAn=         5 AccDes= 0.00D+00
 Harris functional with IExCor=  205 and IRadAn=       5 diagonalized for initial guess.
 HarFok:  IExCor=  205 AccDes= 0.00D+00 IRadAn=         5 IDoV= 1 UseB2=F ITyADJ=14
 ICtDFT=  3500011 ScaDFX=  1.000000  1.000000  1.000000  1.000000
 FoFCou: FMM=F IPFlag=           0 FMFlag=      100000 FMFlg1=           0
         NFxFlg=           0 DoJE=T BraDBF=F KetDBF=T FulRan=T
         wScrn=  0.000000 ICntrl=       500 IOpCl=  0 I1Cent=   200000004 NGrid=           0
         NMat0=    1 NMatS0=      1 NMatT0=    0 NMatD0=    1 NMtDS0=    0 NMtDT0=    0
 Petite list used in FoFCou.
 Requested convergence on RMS density matrix=1.00D-08 within 128 cycles.
 Requested convergence on MAX density matrix=1.00D-06.
 Requested convergence on             energy=1.00D-06.
 No special actions if energy rises.
 SCF Done:  E(RHF) =  -321.881540317     A.U. after   14 cycles
            NFock= 14  Conv=0.81D-08     -V/T= 2.0018
 ExpMin= 2.97D-02 ExpMax= 1.17D+04 ExpMxC= 4.01D+02 IAcc=3 IRadAn=         5 AccDes= 0.00D+00
 HarFok:  IExCor=  205 AccDes= 0.00D+00 IRadAn=         5 IDoV=-2 UseB2=F ITyADJ=14
 ICtDFT= 12500011 ScaDFX=  1.000000  1.000000  1.000000  1.000000
 Range of M.O.s used for correlation:     7   201
 NBasis=   201 NAE=    24 NBE=    24 NFC=     6 NFV=     0
 NROrb=    195 NOA=    18 NOB=    18 NVA=   177 NVB=   177

 **** Warning!!: The largest alpha MO coefficient is  0.49654607D+02

 Fully direct method using O(ONN) memory.
 JobTyp=1 Pass  1:  I=   7 to  24 NPSUse= 40 ParTrn=T ParDer=T DoDerP=T.
 Spin components of T(2) and E(2):
     alpha-alpha T2 =       0.4224650018D-01 E2=     -0.1292750757D+00
     alpha-beta  T2 =       0.2373131207D+00 E2=     -0.7463927196D+00
     beta-beta   T2 =       0.4224650018D-01 E2=     -0.1292750757D+00
 ANorm=    0.1149698274D+01
 E2 =    -0.1004942871D+01 EUMP2 =    -0.32288648318779D+03
          IDoAtm=1111111111111
          Differentiating once with respect to electric field.
                with respect to dipole field.
          Differentiating once with respect to nuclear coordinates.
 Keep R1 ints in memory in canonical form, NReq=215116500.
          There are     1 degrees of freedom in the 1st order CPHF.  IDoFFX=0 NUNeed=     1.
 LinEq1:  Iter=  0 NonCon=     1 RMS=4.59D-03 Max=1.34D-01 NDo=     1
 AX will form     1 AO Fock derivatives at one time.
 LinEq1:  Iter=  1 NonCon=     1 RMS=1.40D-03 Max=1.91D-02 NDo=     1
 LinEq1:  Iter=  2 NonCon=     1 RMS=5.01D-04 Max=8.66D-03 NDo=     1
 LinEq1:  Iter=  3 NonCon=     1 RMS=1.59D-04 Max=3.09D-03 NDo=     1
 LinEq1:  Iter=  4 NonCon=     1 RMS=5.52D-05 Max=9.34D-04 NDo=     1
 LinEq1:  Iter=  5 NonCon=     1 RMS=1.93D-05 Max=2.21D-04 NDo=     1
 LinEq1:  Iter=  6 NonCon=     1 RMS=6.52D-06 Max=1.70D-04 NDo=     1
 LinEq1:  Iter=  7 NonCon=     1 RMS=2.13D-06 Max=3.69D-05 NDo=     1
 LinEq1:  Iter=  8 NonCon=     1 RMS=8.60D-07 Max=2.68D-05 NDo=     1
 LinEq1:  Iter=  9 NonCon=     1 RMS=1.88D-07 Max=2.39D-06 NDo=     1
 LinEq1:  Iter= 10 NonCon=     1 RMS=5.23D-08 Max=1.08D-06 NDo=     1
 LinEq1:  Iter= 11 NonCon=     1 RMS=1.83D-08 Max=3.64D-07 NDo=     1
 LinEq1:  Iter= 12 NonCon=     1 RMS=4.27D-09 Max=7.26D-08 NDo=     1
 LinEq1:  Iter= 13 NonCon=     1 RMS=1.09D-09 Max=1.04D-08 NDo=     1
 LinEq1:  Iter= 14 NonCon=     1 RMS=4.09D-10 Max=3.99D-09 NDo=     1
 LinEq1:  Iter= 15 NonCon=     1 RMS=9.90D-11 Max=1.22D-09 NDo=     1
 LinEq1:  Iter= 16 NonCon=     0 RMS=1.81D-11 Max=1.52D-10 NDo=     1
 Linear equations converged to 1.000D-10 1.000D-09 after    16 iterations.
 End of Minotr F.D. properties file   721 does not exist.
 End of Minotr F.D. properties file   722 does not exist.
 End of Minotr F.D. properties file   788 does not exist.

 **********************************************************************

            Population analysis using the SCF Density.

 **********************************************************************

 Orbital symmetries:
       Occupied  (A) (A) (A) (A) (A) (A) (A) (A) (A) (A) (A) (A)
                 (A) (A) (A) (A) (A) (A) (A) (A) (A) (A) (A) (A)
       Virtual   (A) (A) (A) (A) (A) (A) (A) (A) (A) (A) (A) (A)
                 (A) (A) (A) (A) (A) (A) (A) (A) (A) (A) (A) (A)
                 (A) (A) (A) (A) (A) (A) (A) (A) (A) (A) (A) (A)
                 (A) (A) (A) (A) (A) (A) (A) (A) (A) (A) (A) (A)
                 (A) (A) (A) (A) (A) (A) (A) (A) (A) (A) (A) (A)
                 (A) (A) (A) (A) (A) (A) (A) (A) (A) (A) (A) (A)
                 (A) (A) (A) (A) (A) (A) (A) (A) (A) (A) (A) (A)
                 (A) (A) (A) (A) (A) (A) (A) (A) (A) (A) (A) (A)
                 (A) (A) (A) (A) (A) (A) (A) (A) (A) (A) (A) (A)
                 (A) (A) (A) (A) (A) (A) (A) (A) (A) (A) (A) (A)
                 (A) (A) (A) (A) (A) (A) (A) (A) (A) (A) (A) (A)
                 (A) (A) (A) (A) (A) (A) (A) (A) (A) (A) (A) (A)
                 (A) (A) (A) (A) (A) (A) (A) (A) (A) (A) (A) (A)
                 (A) (A) (A) (A) (A) (A) (A) (A) (A) (A) (A) (A)
                 (A) (A) (A) (A) (A) (A) (A) (A) (A)
 The electronic state is 1-A.
 Alpha  occ. eigenvalues --  -20.58561 -20.54288 -15.60353 -11.32993 -11.32831
 Alpha  occ. eigenvalues --  -11.22874  -1.39205  -1.36732  -1.19358  -1.06107
 Alpha  occ. eigenvalues --   -0.86586  -0.79958  -0.71288  -0.67113  -0.66793
 Alpha  occ. eigenvalues --   -0.65986  -0.61442  -0.57297  -0.56967  -0.56233
 Alpha  occ. eigenvalues --   -0.51604  -0.48015  -0.41197  -0.35235
 Alpha virt. eigenvalues --    0.02117   0.04277   0.04892   0.04941   0.06273
 Alpha virt. eigenvalues --    0.06738   0.09160   0.10230   0.10766   0.11991
 Alpha virt. eigenvalues --    0.14023   0.15020   0.15033   0.15181   0.15601
 Alpha virt. eigenvalues --    0.16483   0.17636   0.18633   0.19013   0.19191
 Alpha virt. eigenvalues --    0.20355   0.23092   0.23695   0.24912   0.25079
 Alpha virt. eigenvalues --    0.25990   0.28005   0.29291   0.29385   0.30066
 Alpha virt. eigenvalues --    0.31288   0.33177   0.33584   0.34550   0.34781
 Alpha virt. eigenvalues --    0.35095   0.38171   0.39268   0.40496   0.40838
 Alpha virt. eigenvalues --    0.43845   0.44605   0.45297   0.45374   0.47221
 Alpha virt. eigenvalues --    0.47824   0.48448   0.50770   0.50891   0.51677
 Alpha virt. eigenvalues --    0.52925   0.53354   0.54590   0.55676   0.57946
 Alpha virt. eigenvalues --    0.59605   0.60318   0.60965   0.62825   0.63507
 Alpha virt. eigenvalues --    0.64369   0.65571   0.66360   0.67519   0.67719
 Alpha virt. eigenvalues --    0.70712   0.70819   0.71906   0.73489   0.73960
 Alpha virt. eigenvalues --    0.75853   0.79708   0.80578   0.81926   0.83594
 Alpha virt. eigenvalues --    0.84614   0.86765   0.87001   0.89328   0.91403
 Alpha virt. eigenvalues --    0.94146   0.95617   0.95996   0.97090   0.99158
 Alpha virt. eigenvalues --    0.99707   1.03842   1.06141   1.10532   1.11750
 Alpha virt. eigenvalues --    1.12798   1.16816   1.21840   1.22162   1.26943
 Alpha virt. eigenvalues --    1.27592   1.28421   1.29551   1.31267   1.33668
 Alpha virt. eigenvalues --    1.36126   1.37486   1.39552   1.42430   1.48977
 Alpha virt. eigenvalues --    1.50251   1.53665   1.56534   1.61375   1.61904
 Alpha virt. eigenvalues --    1.65375   1.68739   1.71204   1.72362   1.74243
 Alpha virt. eigenvalues --    1.77973   1.80494   1.85496   1.85569   1.88489
 Alpha virt. eigenvalues --    1.91746   1.91848   1.93570   1.94056   1.97599
 Alpha virt. eigenvalues --    1.97677   1.98918   2.01511   2.05396   2.06660
 Alpha virt. eigenvalues --    2.11457   2.12498   2.13791   2.16563   2.19998
 Alpha virt. eigenvalues --    2.23689   2.25009   2.26926   2.29869   2.32888
 Alpha virt. eigenvalues --    2.34825   2.39349   2.39883   2.40053   2.42963
 Alpha virt. eigenvalues --    2.45663   2.48668   2.49602   2.59097   2.68505
 Alpha virt. eigenvalues --    2.71145   2.75731   2.77207   2.81966   2.84909
 Alpha virt. eigenvalues --    2.86392   2.89676   2.97389   2.98601   3.08235
 Alpha virt. eigenvalues --    3.12597   3.15948   3.36223   3.48171   3.52219
 Alpha virt. eigenvalues --    3.55482   3.59113   3.73431   3.75726   3.79659
 Alpha virt. eigenvalues --    3.80169   3.82232   3.87984   3.99788   4.06228
 Alpha virt. eigenvalues --    4.12765   4.46886
          Condensed to atoms (all electrons):
               1          2          3          4          5          6
     1  C    5.153612   0.033514   0.258575  -0.097536  -0.137412  -0.135643
     2  C    0.033514   5.487693  -0.175721   0.016208  -0.140221   0.043043
     3  H    0.258575  -0.175721   1.317736  -0.190397   0.067106  -0.009317
     4  O   -0.097536   0.016208  -0.190397   8.919665  -0.044514   0.292997
     5  C   -0.137412  -0.140221   0.067106  -0.044514   5.453533   0.011605
     6  H   -0.135643   0.043043  -0.009317   0.292997   0.011605   0.539729
     7  O   -0.012914  -0.036506  -0.003259   0.001900   0.237242  -0.000721
     8  H    0.041830   0.033973   0.050441  -0.061339  -0.261427   0.014842
     9  H   -0.066078   0.088698  -0.021583   0.004569   0.224477   0.004404
    10  N    0.047988  -0.028585   0.001512  -0.061823  -0.019908  -0.129257
    11  H   -0.000284  -0.004616   0.001810  -0.005537  -0.000188  -0.010603
    12  H    0.004266  -0.001023  -0.000289  -0.005064   0.000247  -0.009511
    13  H    0.004197  -0.000887  -0.000253  -0.005217   0.000370  -0.009994
               7          8          9         10         11         12
     1  C   -0.012914   0.041830  -0.066078   0.047988  -0.000284   0.004266
     2  C   -0.036506   0.033973   0.088698  -0.028585  -0.004616  -0.001023
     3  H   -0.003259   0.050441  -0.021583   0.001512   0.001810  -0.000289
     4  O    0.001900  -0.061339   0.004569  -0.061823  -0.005537  -0.005064
     5  C    0.237242  -0.261427   0.224477  -0.019908  -0.000188   0.000247
     6  H   -0.000721   0.014842   0.004404  -0.129257  -0.010603  -0.009511
     7  O    8.581802   0.025844  -0.046580   0.000551  -0.000048  -0.000125
     8  H    0.025844   1.681872   0.012383  -0.017984   0.007757  -0.006612
     9  H   -0.046580   0.012383   0.947204  -0.000582  -0.000022  -0.000029
    10  N    0.000551  -0.017984  -0.000582   6.288308   0.415774   0.412237
    11  H   -0.000048   0.007757  -0.000022   0.415774   0.713284  -0.071070
    12  H   -0.000125  -0.006612  -0.000029   0.412237  -0.071070   0.679334
    13  H   -0.000125  -0.006640  -0.000021   0.412648  -0.069054  -0.086705
              13
     1  C    0.004197
     2  C   -0.000887
     3  H   -0.000253
     4  O   -0.005217
     5  C    0.000370
     6  H   -0.009994
     7  O   -0.000125
     8  H   -0.006640
     9  H   -0.000021
    10  N    0.412648
    11  H   -0.069054
    12  H   -0.086705
    13  H    0.676650
 Mulliken charges:
               1
     1  C    0.905884
     2  C    0.684430
     3  H   -0.296363
     4  O   -0.763913
     5  C    0.609090
     6  H    0.398426
     7  O   -0.747062
     8  H   -0.514941
     9  H   -0.146840
    10  N   -0.320880
    11  H    0.022795
    12  H    0.084345
    13  H    0.085030
 Sum of Mulliken charges =  -0.00000
 Mulliken charges with hydrogens summed into heavy atoms:
               1
     1  C    0.609522
     2  C    0.169488
     4  O   -0.365488
     5  C    0.462250
     7  O   -0.747062
    10  N   -0.128710
 Electronic spatial extent (au):  <R**2>=            977.9042
 Charge=             -0.0000 electrons
 Dipole moment (field-independent basis, Debye):
    X=             -5.2539    Y=             -0.0411    Z=              0.0008  Tot=              5.2540
 Quadrupole moment (field-independent basis, Debye-Ang):
   XX=            -36.3907   YY=            -35.3178   ZZ=            -37.0616
   XY=             16.7840   XZ=             -0.0013   YZ=             -0.0004
 Traceless Quadrupole moment (field-independent basis, Debye-Ang):
   XX=             -0.1340   YY=              0.9389   ZZ=             -0.8049
   XY=             16.7840   XZ=             -0.0013   YZ=             -0.0004
 Octapole moment (field-independent basis, Debye-Ang**2):
  XXX=            -88.0797  YYY=             -3.5246  ZZZ=              0.0416  XYY=            -11.1102
  XXY=              0.6984  XXZ=             -0.0197  XZZ=             -6.2294  YZZ=             -4.5075
  YYZ=             -0.0220  XYZ=              0.0178
 Hexadecapole moment (field-independent basis, Debye-Ang**3):
 XXXX=           -854.9473 YYYY=           -235.2347 ZZZZ=            -41.8528 XXXY=            114.0148
 XXXZ=              0.2036 YYYX=             36.3787 YYYZ=              0.0934 ZZZX=             -0.1302
 ZZZY=             -0.0612 XXYY=           -199.7494 XXZZ=           -150.2376 YYZZ=            -45.2693
 XXYZ=             -0.0857 YYXZ=              0.0118 ZZXY=              7.6571
 N-N= 2.173231859770D+02 E-N=-1.191538180942D+03  KE= 3.213090189707D+02
 Calling FoFJK, ICntrl=  10002127 FMM=F ISym2X=0 I1Cent= 0 IOpClX= 0 NMat=1 NMatS=1 NMatT=0.
 ***** Axes restored to original set *****
 -------------------------------------------------------------------
 Center     Atomic                   Forces (Hartrees/Bohr)
 Number     Number              X              Y              Z
 -------------------------------------------------------------------
      1        6           0.035547294    0.031861984    0.009372236
      2        6          -0.025266583   -0.023143193   -0.005671369
      3        1          -0.003735573   -0.006563243    0.005434149
      4        8          -0.007879398   -0.013736032    0.011244847
      5        6           0.014807481    0.019175656   -0.007873020
      6        1          -0.000510065    0.001504915   -0.004067770
      7        8          -0.013907988   -0.011007957   -0.006582636
      8        1           0.001221921    0.004481272   -0.006432253
      9        1          -0.000731840   -0.004522823    0.007524744
     10        7           0.003198789    0.008333063   -0.010039524
     11        1          -0.001257088   -0.002034880    0.001525362
     12        1          -0.000854372   -0.002075369    0.002841613
     13        1          -0.000632577   -0.002273392    0.002723620
 -------------------------------------------------------------------
 Cartesian Forces:  Max     0.035547294 RMS     0.011786250

 GradGradGradGradGradGradGradGradGradGradGradGradGradGradGradGradGradGrad
 Berny optimization.
 FormGI is forming the generalized inverse of G from B-inverse, IUseBI=4.
 Internal  Forces:  Max     0.032789087 RMS     0.007338431
 Search for a local minimum.
 Step number   1 out of a maximum of   53
 All quantities printed in internal units (Hartrees-Bohrs-Radians)
 Mixed Optimization -- RFO/linear search
 Second derivative matrix not updated -- first step.
 ITU=  0
     Eigenvalues ---    0.00230   0.00230   0.00230   0.01120   0.01120
     Eigenvalues ---    0.02099   0.02099   0.02718   0.02954   0.06901
     Eigenvalues ---    0.07808   0.10074   0.16000   0.16000   0.16000
     Eigenvalues ---    0.16000   0.16000   0.16000   0.16000   0.22000
     Eigenvalues ---    0.22000   0.22000   0.33381   0.35356   0.35547
     Eigenvalues ---    0.35822   0.43421   0.43560   0.43562   0.49387
     Eigenvalues ---    0.51128   0.58428   0.93242
 RFO step:  Lambda=-6.12247020D-03 EMin= 2.30000000D-03
 Linear search not attempted -- first point.
 Iteration  1 RMS(Cart)=  0.12532444 RMS(Int)=  0.00605439
 Iteration  2 RMS(Cart)=  0.01743560 RMS(Int)=  0.00056304
 Iteration  3 RMS(Cart)=  0.00008267 RMS(Int)=  0.00056115
 Iteration  4 RMS(Cart)=  0.00000010 RMS(Int)=  0.00056115
 Variable       Old X    -DE/DX   Delta X   Delta X   Delta X     New X
                                 (Linear)    (Quad)   (Total)
    R1        2.52207   0.03279   0.00000   0.05554   0.05554   2.57760
    R2        2.04796   0.00762   0.00000   0.02106   0.02106   2.06903
    R3        2.58744  -0.01316   0.00000  -0.02543  -0.02543   2.56200
    R4        2.78401  -0.00379   0.00000  -0.01054  -0.01054   2.77347
    R5        2.04361   0.00775   0.00000   0.02126   0.02126   2.06486
    R6        1.87184   0.00784   0.00000   0.01565   0.01566   1.88750
    R7        2.31474   0.01662   0.00000   0.01770   0.01770   2.33244
    R8        2.08387   0.00874   0.00000   0.02571   0.02571   2.10958
    R9        3.28061   0.00355   0.00000   0.04732   0.04732   3.32793
   R10        1.93854  -0.00197   0.00000  -0.00446  -0.00446   1.93407
   R11        1.93683  -0.00164   0.00000  -0.00371  -0.00371   1.93312
   R12        1.93685  -0.00164   0.00000  -0.00372  -0.00372   1.93313
    A1        2.18386  -0.00998   0.00000  -0.05286  -0.05286   2.13099
    A2        2.17371   0.00901   0.00000   0.03984   0.03984   2.21355
    A3        1.92562   0.00097   0.00000   0.01302   0.01302   1.93864
    A4        2.08751   0.00147   0.00000   0.00651   0.00651   2.09402
    A5        2.15643  -0.00249   0.00000  -0.01384  -0.01384   2.14259
    A6        2.03925   0.00102   0.00000   0.00733   0.00733   2.04658
    A7        1.91983  -0.00143   0.00000  -0.00859  -0.00859   1.91125
    A8        2.11633   0.01319   0.00000   0.05834   0.05834   2.17467
    A9        2.03374  -0.00544   0.00000  -0.02221  -0.02221   2.01153
   A10        2.13312  -0.00775   0.00000  -0.03613  -0.03613   2.09699
   A11        1.83533  -0.00120   0.00000  -0.00454  -0.00347   1.83186
   A12        2.07501  -0.00278   0.00000  -0.01820  -0.01888   2.05613
   A13        2.06989  -0.00274   0.00000  -0.01793  -0.01863   2.05126
   A14        1.81581   0.00238   0.00000   0.01664   0.01760   1.83342
   A15        1.81585   0.00237   0.00000   0.01661   0.01754   1.83338
   A16        1.81965   0.00318   0.00000   0.01606   0.01442   1.83406
   A17        3.32161  -0.00148   0.00000  -0.20421  -0.20482   3.11679
   A18        3.14149   0.00001   0.00000   0.00040   0.00038   3.14187
    D1       -0.00003  -0.00000   0.00000  -0.00004  -0.00004  -0.00007
    D2        3.14157  -0.00000   0.00000  -0.00006  -0.00006   3.14150
    D3        3.14155   0.00000   0.00000   0.00005   0.00005  -3.14158
    D4       -0.00004   0.00000   0.00000   0.00003   0.00003  -0.00001
    D5       -0.00014  -0.00000   0.00000  -0.00016  -0.00016  -0.00030
    D6        3.14144  -0.00000   0.00000  -0.00007  -0.00007   3.14137
    D7       -3.14153  -0.00000   0.00000  -0.00003  -0.00003  -3.14157
    D8        0.00004  -0.00000   0.00000  -0.00000  -0.00000   0.00004
    D9        0.00005  -0.00000   0.00000  -0.00001  -0.00001   0.00004
   D10       -3.14155   0.00000   0.00000   0.00002   0.00002  -3.14153
   D11       -3.12935   0.00001   0.00000  -0.00022  -0.00019  -3.12953
   D12       -1.14025   0.00101   0.00000   0.04830   0.04647  -1.09378
   D13        1.16797  -0.00103   0.00000  -0.04928  -0.04748   1.12049
         Item               Value     Threshold  Converged?
 Maximum Force            0.032789     0.000450     NO 
 RMS     Force            0.007338     0.000300     NO 
 Maximum Displacement     0.300621     0.001800     NO 
 RMS     Displacement     0.138811     0.001200     NO 
 Predicted change in Energy=-3.258780D-03
 GradGradGradGradGradGradGradGradGradGradGradGradGradGradGradGradGradGrad

                          Input orientation:                          
 ---------------------------------------------------------------------
 Center     Atomic      Atomic             Coordinates (Angstroms)
 Number     Number       Type             X           Y           Z
 ---------------------------------------------------------------------
      1          6           0       -0.843859    0.636609   -0.210799
      2          6           0       -1.664965    0.313621   -1.250983
      3          1           0       -0.886594    0.111358    0.748914
      4          8           0        0.105026    1.604820   -0.194844
      5          6           0       -2.644951   -0.768840   -1.102928
      6          1           0        0.124032    2.067787   -1.079685
      7          8           0       -3.427653   -1.131266   -1.985799
      8          1           0       -1.631690    0.830481   -2.213115
      9          1           0       -2.650193   -1.273604   -0.107235
     10          7           0        0.125727    2.857579   -2.653717
     11          1           0        0.861690    3.566203   -2.592919
     12          1           0        0.368261    2.292242   -3.471044
     13          1           0       -0.715908    3.371499   -2.925745
 ---------------------------------------------------------------------
                    Distance matrix (angstroms):
                    1          2          3          4          5
     1  C    0.000000
     2  C    1.364009   0.000000
     3  H    1.094881   2.155542   0.000000
     4  O    1.355754   2.432178   2.025937   0.000000
     5  C    2.452573   1.467657   2.701089   3.744496   0.000000
     6  H    1.933920   2.511364   2.862299   0.998821   3.964122
     7  O    3.598888   2.394727   3.934431   4.813886   1.234275
     8  H    2.160447   1.092679   3.137821   2.772941   2.194776
     9  H    2.631061   2.190461   2.400289   3.985502   1.116342
    10  N    3.441024   3.412617   4.488253   2.759690   4.820012
    11  H    4.143177   4.331751   5.114715   3.189095   5.771413
    12  H    3.852214   3.602446   4.913142   3.357875   4.904859
    13  H    3.855765   3.613330   4.915361   3.354535   4.917955
                    6          7          8          9         10
     6  H    0.000000
     7  O    4.865125   0.000000
     8  H    2.428611   2.669382   0.000000
     9  H    4.450492   2.038065   3.146308   0.000000
    10  N    1.761065   5.383632   2.718781   5.590793   0.000000
    11  H    2.253723   6.390092   3.720937   6.475777   1.023468
    12  H    2.414254   5.323093   2.778297   5.756868   1.022963
    13  H    2.411037   5.339658   2.793434   5.767360   1.022967
                   11         12         13
    11  H    0.000000
    12  H    1.624054   0.000000
    13  H    1.624037   1.624060   0.000000
 Stoichiometry    C3H7NO2
 Framework group  C1[X(C3H7NO2)]
 Deg. of freedom    33
 Full point group                 C1      NOp   1
 Largest Abelian subgroup         C1      NOp   1
 Largest concise Abelian subgroup C1      NOp   1
                         Standard orientation:                         
 ---------------------------------------------------------------------
 Center     Atomic      Atomic             Coordinates (Angstroms)
 Number     Number       Type             X           Y           Z
 ---------------------------------------------------------------------
      1          6           0       -0.119024    1.182828   -0.000088
      2          6           0        0.586624    0.015532    0.000152
      3          1           0        0.373770    2.160538   -0.000408
      4          8           0       -1.468137    1.316858    0.000113
      5          6           0        2.053971    0.045637   -0.000112
      6          1           0       -1.893096    0.412948    0.000190
      7          8           0        2.775533   -0.955755    0.000048
      8          1           0        0.106169   -0.965851    0.000555
      9          1           0        2.509390    1.064858   -0.000462
     10          7           0       -2.602608   -1.198865   -0.000163
     11          1           0       -3.613962   -1.042299   -0.011899
     12          1           0       -2.417789   -1.801452   -0.805883
     13          1           0       -2.434814   -1.789495    0.818044
 ---------------------------------------------------------------------
 Rotational constants (GHZ):           5.3639997           1.4680434           1.1596260
 Standard basis: Aug-CC-pVDZ (5D, 7F)
 There are   213 symmetry adapted cartesian basis functions of A   symmetry.
 There are   201 symmetry adapted basis functions of A   symmetry.
   201 basis functions,   335 primitive gaussians,   213 cartesian basis functions
    24 alpha electrons       24 beta electrons
       nuclear repulsion energy       217.3875480257 Hartrees.
 NAtoms=   13 NActive=   13 NUniq=   13 SFac= 1.00D+00 NAtFMM=   60 NAOKFM=F Big=F
 Integral buffers will be    131072 words long.
 Raffenetti 1 integral format.
 Two-electron integral symmetry is turned on.
 One-electron integrals computed using PRISM.
 NBasis=   201 RedAO= T EigKep=  2.70D-05  NBF=   201
 NBsUse=   201 1.00D-06 EigRej= -1.00D+00 NBFU=   201
 Initial guess from the checkpoint file:  "/scr/Gau-90113.chk"
 B after Tr=     0.000000    0.000000   -0.000000
         Rot=    0.999858   -0.000010   -0.000002   -0.016835 Ang=  -1.93 deg.
 ExpMin= 2.97D-02 ExpMax= 1.17D+04 ExpMxC= 4.01D+02 IAcc=3 IRadAn=         5 AccDes= 0.00D+00
 Harris functional with IExCor=  205 and IRadAn=       5 diagonalized for initial guess.
 HarFok:  IExCor=  205 AccDes= 0.00D+00 IRadAn=         5 IDoV= 1 UseB2=F ITyADJ=14
 ICtDFT=  3500011 ScaDFX=  1.000000  1.000000  1.000000  1.000000
 FoFCou: FMM=F IPFlag=           0 FMFlag=      100000 FMFlg1=           0
         NFxFlg=           0 DoJE=T BraDBF=F KetDBF=T FulRan=T
         wScrn=  0.000000 ICntrl=       500 IOpCl=  0 I1Cent=   200000004 NGrid=           0
         NMat0=    1 NMatS0=      1 NMatT0=    0 NMatD0=    1 NMtDS0=    0 NMtDT0=    0
 Petite list used in FoFCou.
 Requested convergence on RMS density matrix=1.00D-08 within 128 cycles.
 Requested convergence on MAX density matrix=1.00D-06.
 Requested convergence on             energy=1.00D-06.
 No special actions if energy rises.
 SCF Done:  E(RHF) =  -321.881207262     A.U. after   13 cycles
            NFock= 13  Conv=0.52D-08     -V/T= 2.0023
 ExpMin= 2.97D-02 ExpMax= 1.17D+04 ExpMxC= 4.01D+02 IAcc=3 IRadAn=         5 AccDes= 0.00D+00
 HarFok:  IExCor=  205 AccDes= 0.00D+00 IRadAn=         5 IDoV=-2 UseB2=F ITyADJ=14
 ICtDFT= 12500011 ScaDFX=  1.000000  1.000000  1.000000  1.000000
 Range of M.O.s used for correlation:     7   201
 NBasis=   201 NAE=    24 NBE=    24 NFC=     6 NFV=     0
 NROrb=    195 NOA=    18 NOB=    18 NVA=   177 NVB=   177

 **** Warning!!: The largest alpha MO coefficient is  0.47963688D+02

 Fully direct method using O(ONN) memory.
 JobTyp=1 Pass  1:  I=   7 to  24 NPSUse= 40 ParTrn=T ParDer=T DoDerP=T.
 Spin components of T(2) and E(2):
     alpha-alpha T2 =       0.4271566574D-01 E2=     -0.1297878108D+00
     alpha-beta  T2 =       0.2396671073D+00 E2=     -0.7487366600D+00
     beta-beta   T2 =       0.4271566574D-01 E2=     -0.1297878108D+00
 ANorm=    0.1151129202D+01
 E2 =    -0.1008312282D+01 EUMP2 =    -0.32288951954349D+03
          IDoAtm=1111111111111
          Differentiating once with respect to electric field.
                with respect to dipole field.
          Differentiating once with respect to nuclear coordinates.
 Keep R1 ints in memory in canonical form, NReq=215118728.
          There are     1 degrees of freedom in the 1st order CPHF.  IDoFFX=0 NUNeed=     1.
 LinEq1:  Iter=  0 NonCon=     1 RMS=4.69D-03 Max=1.16D-01 NDo=     1
 AX will form     1 AO Fock derivatives at one time.
 LinEq1:  Iter=  1 NonCon=     1 RMS=1.45D-03 Max=1.93D-02 NDo=     1
 LinEq1:  Iter=  2 NonCon=     1 RMS=5.22D-04 Max=7.19D-03 NDo=     1
 LinEq1:  Iter=  3 NonCon=     1 RMS=1.74D-04 Max=2.75D-03 NDo=     1
 LinEq1:  Iter=  4 NonCon=     1 RMS=5.93D-05 Max=1.03D-03 NDo=     1
 LinEq1:  Iter=  5 NonCon=     1 RMS=2.12D-05 Max=2.54D-04 NDo=     1
 LinEq1:  Iter=  6 NonCon=     1 RMS=7.89D-06 Max=1.99D-04 NDo=     1
 LinEq1:  Iter=  7 NonCon=     1 RMS=2.47D-06 Max=4.09D-05 NDo=     1
 LinEq1:  Iter=  8 NonCon=     1 RMS=1.06D-06 Max=3.23D-05 NDo=     1
 LinEq1:  Iter=  9 NonCon=     1 RMS=2.20D-07 Max=2.70D-06 NDo=     1
 LinEq1:  Iter= 10 NonCon=     1 RMS=6.39D-08 Max=9.14D-07 NDo=     1
 LinEq1:  Iter= 11 NonCon=     1 RMS=2.20D-08 Max=4.00D-07 NDo=     1
 LinEq1:  Iter= 12 NonCon=     1 RMS=5.30D-09 Max=1.20D-07 NDo=     1
 LinEq1:  Iter= 13 NonCon=     1 RMS=1.54D-09 Max=1.45D-08 NDo=     1
 LinEq1:  Iter= 14 NonCon=     1 RMS=5.29D-10 Max=5.28D-09 NDo=     1
 LinEq1:  Iter= 15 NonCon=     1 RMS=1.16D-10 Max=1.12D-09 NDo=     1
 LinEq1:  Iter= 16 NonCon=     0 RMS=2.04D-11 Max=1.72D-10 NDo=     1
 Linear equations converged to 1.000D-10 1.000D-09 after    16 iterations.
 End of Minotr F.D. properties file   721 does not exist.
 End of Minotr F.D. properties file   722 does not exist.
 End of Minotr F.D. properties file   788 does not exist.
 Calling FoFJK, ICntrl=  10002127 FMM=F ISym2X=0 I1Cent= 0 IOpClX= 0 NMat=1 NMatS=1 NMatT=0.
 ***** Axes restored to original set *****
 -------------------------------------------------------------------
 Center     Atomic                   Forces (Hartrees/Bohr)
 Number     Number              X              Y              Z
 -------------------------------------------------------------------
      1        6           0.009185188    0.009306953    0.000298232
      2        6          -0.006024137   -0.005279856   -0.001830841
      3        1          -0.002091885   -0.001875717   -0.000555708
      4        8          -0.005379989   -0.005982866    0.000902260
      5        6           0.004567704    0.003958584    0.001483878
      6        1          -0.002966335   -0.002688640   -0.000767269
      7        8          -0.000530889   -0.000096745   -0.000898876
      8        1           0.001044428    0.000648038    0.000860881
      9        1           0.000151126   -0.000381645    0.001068635
     10        7           0.002945379    0.005358468   -0.004597302
     11        1          -0.000553214   -0.000437113   -0.000235174
     12        1           0.000076067   -0.001521801    0.002025669
     13        1          -0.000423445   -0.001007662    0.002245617
 -------------------------------------------------------------------
 Cartesian Forces:  Max     0.009306953 RMS     0.003374505

 GradGradGradGradGradGradGradGradGradGradGradGradGradGradGradGradGradGrad
 Berny optimization.
 Using GEDIIS/GDIIS optimizer.
 FormGI is forming the generalized inverse of G from B-inverse, IUseBI=4.
 Internal  Forces:  Max     0.008900007 RMS     0.002243296
 Search for a local minimum.
 Step number   2 out of a maximum of   53
 All quantities printed in internal units (Hartrees-Bohrs-Radians)
 Mixed Optimization -- RFO/linear search
 Update second derivatives using D2CorX and points    1    2
 DE= -3.04D-03 DEPred=-3.26D-03 R= 9.32D-01
 TightC=F SS=  1.41D+00  RLast= 2.57D-01 DXNew= 5.0454D-01 7.7225D-01
 Trust test= 9.32D-01 RLast= 2.57D-01 DXMaxT set to 5.05D-01
 ITU=  1  0
 Use linear search instead of GDIIS.
     Eigenvalues ---    0.00230   0.00230   0.00351   0.01120   0.01120
     Eigenvalues ---    0.02088   0.02099   0.02704   0.02954   0.06608
     Eigenvalues ---    0.08152   0.09944   0.13032   0.16000   0.16000
     Eigenvalues ---    0.16000   0.16000   0.16000   0.16207   0.20480
     Eigenvalues ---    0.22000   0.23411   0.32650   0.34590   0.35645
     Eigenvalues ---    0.36405   0.43295   0.43497   0.43561   0.46917
     Eigenvalues ---    0.49760   0.60350   0.92760
 RFO step:  Lambda=-4.66407998D-03 EMin= 2.29999391D-03
 Quartic linear search produced a step of -0.00320.
 Maximum step size (   0.505) exceeded in Quadratic search.
    -- Step size scaled by   0.756
 Iteration  1 RMS(Cart)=  0.19923244 RMS(Int)=  0.04698543
 Iteration  2 RMS(Cart)=  0.15093437 RMS(Int)=  0.01620159
 Iteration  3 RMS(Cart)=  0.06359212 RMS(Int)=  0.00147119
 Iteration  4 RMS(Cart)=  0.00285206 RMS(Int)=  0.00043612
 Iteration  5 RMS(Cart)=  0.00000074 RMS(Int)=  0.00043612
 Variable       Old X    -DE/DX   Delta X   Delta X   Delta X     New X
                                 (Linear)    (Quad)   (Total)
    R1        2.57760   0.00023  -0.00018   0.03978   0.03961   2.61721
    R2        2.06903   0.00049  -0.00007   0.01601   0.01594   2.08496
    R3        2.56200  -0.00890   0.00008  -0.03219  -0.03211   2.52990
    R4        2.77347  -0.00520   0.00003  -0.01933  -0.01930   2.75417
    R5        2.06486  -0.00042  -0.00007   0.01407   0.01401   2.07887
    R6        1.88750   0.00102  -0.00005   0.01279   0.01266   1.90016
    R7        2.33244   0.00101  -0.00006   0.01350   0.01345   2.34589
    R8        2.10958   0.00112  -0.00008   0.02087   0.02079   2.13037
    R9        3.32793   0.00158  -0.00015   0.04905   0.04894   3.37687
   R10        1.93407  -0.00071   0.00001  -0.00450  -0.00448   1.92959
   R11        1.93312  -0.00076   0.00001  -0.00404  -0.00403   1.92909
   R12        1.93313  -0.00076   0.00001  -0.00404  -0.00403   1.92910
    A1        2.13099  -0.00435   0.00017  -0.05655  -0.05639   2.07461
    A2        2.21355   0.00286  -0.00013   0.03832   0.03819   2.25174
    A3        1.93864   0.00149  -0.00004   0.01824   0.01820   1.95684
    A4        2.09402  -0.00315  -0.00002  -0.00692  -0.00694   2.08707
    A5        2.14259   0.00009   0.00004  -0.01129  -0.01124   2.13135
    A6        2.04658   0.00306  -0.00002   0.01821   0.01819   2.06477
    A7        1.91125   0.00223   0.00003   0.00514   0.00517   1.91642
    A8        2.17467  -0.00030  -0.00019   0.03977   0.03958   2.21425
    A9        2.01153  -0.00007   0.00007  -0.01616  -0.01609   1.99543
   A10        2.09699   0.00037   0.00012  -0.02360  -0.02349   2.07350
   A11        1.83186   0.00177   0.00001   0.00986   0.01055   1.84242
   A12        2.05613  -0.00274   0.00006  -0.02860  -0.02931   2.02682
   A13        2.05126  -0.00267   0.00006  -0.02806  -0.02886   2.02240
   A14        1.83342   0.00121  -0.00006   0.02124   0.02192   1.85534
   A15        1.83338   0.00121  -0.00006   0.02122   0.02166   1.85505
   A16        1.83406   0.00204  -0.00005   0.01551   0.01417   1.84824
   A17        3.11679   0.00481   0.00066   0.48684   0.48699   3.60378
   A18        3.14187  -0.00000  -0.00000  -0.00063  -0.00066   3.14121
    D1       -0.00007  -0.00000   0.00000  -0.00006  -0.00006  -0.00013
    D2        3.14150  -0.00000   0.00000  -0.00011  -0.00011   3.14139
    D3       -3.14158  -0.00000  -0.00000   0.00003   0.00003  -3.14156
    D4       -0.00001  -0.00000  -0.00000  -0.00003  -0.00003  -0.00004
    D5       -0.00030  -0.00001   0.00000  -0.00038  -0.00037  -0.00068
    D6        3.14137  -0.00001   0.00000  -0.00030  -0.00029   3.14107
    D7       -3.14157   0.00000   0.00000   0.00001   0.00002  -3.14155
    D8        0.00004  -0.00000   0.00000  -0.00006  -0.00006  -0.00002
    D9        0.00004   0.00000   0.00000   0.00007   0.00007   0.00011
   D10       -3.14153  -0.00000  -0.00000  -0.00001  -0.00001  -3.14154
   D11       -3.12953  -0.00000   0.00000  -0.00141  -0.00120  -3.13074
   D12       -1.09378   0.00044  -0.00015  -0.06488  -0.06646  -1.16024
   D13        1.12049  -0.00046   0.00015   0.06341   0.06481   1.18530
         Item               Value     Threshold  Converged?
 Maximum Force            0.008900     0.000450     NO 
 RMS     Force            0.002243     0.000300     NO 
 Maximum Displacement     0.783948     0.001800     NO 
 RMS     Displacement     0.405045     0.001200     NO 
 Predicted change in Energy=-2.800741D-03
 GradGradGradGradGradGradGradGradGradGradGradGradGradGradGradGradGradGrad

                          Input orientation:                          
 ---------------------------------------------------------------------
 Center     Atomic      Atomic             Coordinates (Angstroms)
 Number     Number       Type             X           Y           Z
 ---------------------------------------------------------------------
      1          6           0       -0.940482    0.605631   -0.347509
      2          6           0       -1.856866    0.124816   -1.267939
      3          1           0       -0.899989    0.145038    0.654250
      4          8           0       -0.047137    1.593255   -0.484705
      5          6           0       -2.741993   -0.971837   -0.896396
      6          1           0       -0.113553    1.986892   -1.407586
      7          8           0       -3.607536   -1.504561   -1.609202
      8          1           0       -1.943175    0.544360   -2.281218
      9          1           0       -2.596622   -1.349999    0.155633
     10          7           0        0.364641    3.125729   -2.698951
     11          1           0        1.119820    3.687480   -2.302998
     12          1           0        0.736187    2.707089   -3.552643
     13          1           0       -0.354373    3.784596   -3.000638
 ---------------------------------------------------------------------
                    Distance matrix (angstroms):
                    1          2          3          4          5
     1  C    0.000000
     2  C    1.384967   0.000000
     3  H    1.103316   2.147285   0.000000
     4  O    1.338764   2.458635   2.030248   0.000000
     5  C    2.456649   1.457443   2.654221   3.743185   0.000000
     6  H    1.927552   2.554597   2.874382   1.005519   3.990499
     7  O    3.627390   2.415818   3.895536   4.851536   1.241391
     8  H    2.179077   1.100091   3.140807   2.814712   2.203337
     9  H    2.611597   2.179191   2.315668   3.946220   1.127344
    10  N    3.685583   3.998546   4.661305   2.724137   5.448892
    11  H    4.191249   4.756530   5.037245   3.008945   6.212999
    12  H    4.183328   4.314155   5.190292   3.356556   5.717331
    13  H    4.181918   4.318996   5.186741   3.350565   5.722955
                    6          7          8          9         10
     6  H    0.000000
     7  O    4.943562   0.000000
     8  H    2.488303   2.723927   0.000000
     9  H    4.443436   2.039725   3.154969   0.000000
    10  N    1.786965   6.197203   3.487690   6.078640   0.000000
    11  H    2.283631   7.055957   4.388806   6.725548   1.021096
    12  H    2.417026   6.354753   3.670545   6.427977   1.020832
    13  H    2.414032   6.363517   3.679809   6.430692   1.020834
                   11         12         13
    11  H    0.000000
    12  H    1.634000   0.000000
    13  H    1.633823   1.629434   0.000000
 Stoichiometry    C3H7NO2
 Framework group  C1[X(C3H7NO2)]
 Deg. of freedom    33
 Full point group                 C1      NOp   1
 Largest Abelian subgroup         C1      NOp   1
 Largest concise Abelian subgroup C1      NOp   1
                         Standard orientation:                         
 ---------------------------------------------------------------------
 Center     Atomic      Atomic             Coordinates (Angstroms)
 Number     Number       Type             X           Y           Z
 ---------------------------------------------------------------------
      1          6           0       -0.031805    1.033275   -0.000060
      2          6           0        0.757050   -0.105075    0.000126
      3          1           0        0.458983    2.021421   -0.000240
      4          8           0       -1.366812    1.133512    0.000113
      5          6           0        2.208630    0.025519   -0.000083
      6          1           0       -1.777339    0.215614   -0.000219
      7          8           0        3.039417   -0.896894    0.000004
      8          1           0        0.324357   -1.116499    0.000497
      9          1           0        2.579171    1.090227   -0.000410
     10          7           0       -3.157746   -0.919163   -0.000190
     11          1           0       -3.993988   -0.333312   -0.010976
     12          1           0       -3.230972   -1.538032   -0.808730
     13          1           0       -3.240079   -1.520539    0.820584
 ---------------------------------------------------------------------
 Rotational constants (GHZ):           7.1777674           1.1722671           1.0130970
 Standard basis: Aug-CC-pVDZ (5D, 7F)
 There are   213 symmetry adapted cartesian basis functions of A   symmetry.
 There are   201 symmetry adapted basis functions of A   symmetry.
   201 basis functions,   335 primitive gaussians,   213 cartesian basis functions
    24 alpha electrons       24 beta electrons
       nuclear repulsion energy       212.9206087326 Hartrees.
 NAtoms=   13 NActive=   13 NUniq=   13 SFac= 1.00D+00 NAtFMM=   60 NAOKFM=F Big=F
 Integral buffers will be    131072 words long.
 Raffenetti 1 integral format.
 Two-electron integral symmetry is turned on.
 One-electron integrals computed using PRISM.
 NBasis=   201 RedAO= T EigKep=  3.03D-05  NBF=   201
 NBsUse=   201 1.00D-06 EigRej= -1.00D+00 NBFU=   201
 Initial guess from the checkpoint file:  "/scr/Gau-90113.chk"
 B after Tr=    -0.000000    0.000000   -0.000000
         Rot=    0.999659   -0.000021   -0.000009    0.026123 Ang=  -2.99 deg.
 ExpMin= 2.97D-02 ExpMax= 1.17D+04 ExpMxC= 4.01D+02 IAcc=3 IRadAn=         5 AccDes= 0.00D+00
 Harris functional with IExCor=  205 and IRadAn=       5 diagonalized for initial guess.
 HarFok:  IExCor=  205 AccDes= 0.00D+00 IRadAn=         5 IDoV= 1 UseB2=F ITyADJ=14
 ICtDFT=  3500011 ScaDFX=  1.000000  1.000000  1.000000  1.000000
 FoFCou: FMM=F IPFlag=           0 FMFlag=      100000 FMFlg1=           0
         NFxFlg=           0 DoJE=T BraDBF=F KetDBF=T FulRan=T
         wScrn=  0.000000 ICntrl=       500 IOpCl=  0 I1Cent=   200000004 NGrid=           0
         NMat0=    1 NMatS0=      1 NMatT0=    0 NMatD0=    1 NMtDS0=    0 NMtDT0=    0
 Petite list used in FoFCou.
 Requested convergence on RMS density matrix=1.00D-08 within 128 cycles.
 Requested convergence on MAX density matrix=1.00D-06.
 Requested convergence on             energy=1.00D-06.
 No special actions if energy rises.
 SCF Done:  E(RHF) =  -321.877968657     A.U. after   14 cycles
            NFock= 14  Conv=0.74D-08     -V/T= 2.0026
 ExpMin= 2.97D-02 ExpMax= 1.17D+04 ExpMxC= 4.01D+02 IAcc=3 IRadAn=         5 AccDes= 0.00D+00
 HarFok:  IExCor=  205 AccDes= 0.00D+00 IRadAn=         5 IDoV=-2 UseB2=F ITyADJ=14
 ICtDFT= 12500011 ScaDFX=  1.000000  1.000000  1.000000  1.000000
 Range of M.O.s used for correlation:     7   201
 NBasis=   201 NAE=    24 NBE=    24 NFC=     6 NFV=     0
 NROrb=    195 NOA=    18 NOB=    18 NVA=   177 NVB=   177

 **** Warning!!: The largest alpha MO coefficient is  0.44344817D+02

 Fully direct method using O(ONN) memory.
 JobTyp=1 Pass  1:  I=   7 to  24 NPSUse= 40 ParTrn=T ParDer=T DoDerP=T.
 Spin components of T(2) and E(2):
     alpha-alpha T2 =       0.4294297757D-01 E2=     -0.1299443887D+00
     alpha-beta  T2 =       0.2410147831D+00 E2=     -0.7496820368D+00
     beta-beta   T2 =       0.4294297757D-01 E2=     -0.1299443887D+00
 ANorm=    0.1151911775D+01
 E2 =    -0.1009570814D+01 EUMP2 =    -0.32288753947139D+03
          IDoAtm=1111111111111
          Differentiating once with respect to electric field.
                with respect to dipole field.
          Differentiating once with respect to nuclear coordinates.
 Keep R1 ints in memory in canonical form, NReq=215107652.
          There are     1 degrees of freedom in the 1st order CPHF.  IDoFFX=0 NUNeed=     1.
 LinEq1:  Iter=  0 NonCon=     1 RMS=4.77D-03 Max=1.01D-01 NDo=     1
 AX will form     1 AO Fock derivatives at one time.
 LinEq1:  Iter=  1 NonCon=     1 RMS=1.48D-03 Max=2.20D-02 NDo=     1
 LinEq1:  Iter=  2 NonCon=     1 RMS=5.39D-04 Max=7.23D-03 NDo=     1
 LinEq1:  Iter=  3 NonCon=     1 RMS=1.86D-04 Max=2.87D-03 NDo=     1
 LinEq1:  Iter=  4 NonCon=     1 RMS=6.44D-05 Max=1.00D-03 NDo=     1
 LinEq1:  Iter=  5 NonCon=     1 RMS=2.35D-05 Max=3.43D-04 NDo=     1
 LinEq1:  Iter=  6 NonCon=     1 RMS=9.25D-06 Max=2.40D-04 NDo=     1
 LinEq1:  Iter=  7 NonCon=     1 RMS=2.73D-06 Max=4.53D-05 NDo=     1
 LinEq1:  Iter=  8 NonCon=     1 RMS=1.17D-06 Max=3.10D-05 NDo=     1
 LinEq1:  Iter=  9 NonCon=     1 RMS=2.39D-07 Max=3.10D-06 NDo=     1
 LinEq1:  Iter= 10 NonCon=     1 RMS=6.77D-08 Max=8.17D-07 NDo=     1
 LinEq1:  Iter= 11 NonCon=     1 RMS=2.27D-08 Max=3.75D-07 NDo=     1
 LinEq1:  Iter= 12 NonCon=     1 RMS=5.45D-09 Max=1.17D-07 NDo=     1
 LinEq1:  Iter= 13 NonCon=     1 RMS=1.48D-09 Max=1.31D-08 NDo=     1
 LinEq1:  Iter= 14 NonCon=     1 RMS=5.38D-10 Max=5.34D-09 NDo=     1
 LinEq1:  Iter= 15 NonCon=     1 RMS=1.28D-10 Max=1.36D-09 NDo=     1
 LinEq1:  Iter= 16 NonCon=     0 RMS=2.38D-11 Max=1.96D-10 NDo=     1
 Linear equations converged to 1.000D-10 1.000D-09 after    16 iterations.
 End of Minotr F.D. properties file   721 does not exist.
 End of Minotr F.D. properties file   722 does not exist.
 End of Minotr F.D. properties file   788 does not exist.
 Calling FoFJK, ICntrl=  10002127 FMM=F ISym2X=0 I1Cent= 0 IOpClX= 0 NMat=1 NMatS=1 NMatT=0.
 ***** Axes restored to original set *****
 -------------------------------------------------------------------
 Center     Atomic                   Forces (Hartrees/Bohr)
 Number     Number              X              Y              Z
 -------------------------------------------------------------------
      1        6          -0.013790308   -0.014060707   -0.000199188
      2        6           0.010733012    0.010834305    0.000411935
      3        1          -0.000107374    0.001814111   -0.003843992
      4        8          -0.006189593   -0.001306521   -0.010140692
      5        6          -0.004523209   -0.008752648    0.008151385
      6        1           0.006858015    0.003321470    0.007457464
      7        8           0.007934718    0.007429990    0.001466076
      8        1           0.000984327   -0.000613817    0.003229661
      9        1           0.000107470    0.002200831   -0.004160560
     10        7          -0.001898671   -0.000143257   -0.003525708
     11        1          -0.000331592   -0.000541413    0.000352850
     12        1           0.000314111   -0.000278489    0.000307859
     13        1          -0.000090905    0.000096145    0.000492912
 -------------------------------------------------------------------
 Cartesian Forces:  Max     0.014060707 RMS     0.005616272

 GradGradGradGradGradGradGradGradGradGradGradGradGradGradGradGradGradGrad
 Berny optimization.
 Using GEDIIS/GDIIS optimizer.
 FormGI is forming the generalized inverse of G from B-inverse, IUseBI=4.
 Internal  Forces:  Max     0.019981157 RMS     0.004470634
 Search for a local minimum.
 Step number   3 out of a maximum of   53
 All quantities printed in internal units (Hartrees-Bohrs-Radians)
 Mixed Optimization -- RFO/linear search
 Update second derivatives using D2CorX and points    1    3    2
 DE=  1.98D-03 DEPred=-2.80D-03 R=-7.07D-01
 Trust test=-7.07D-01 RLast= 5.13D-01 DXMaxT set to 2.52D-01
 ITU= -1  1  0
 Use linear search instead of GDIIS.
     Eigenvalues ---    0.00230   0.00230   0.01120   0.01120   0.02072
     Eigenvalues ---    0.02099   0.02447   0.02689   0.02953   0.06277
     Eigenvalues ---    0.08056   0.10432   0.12335   0.16000   0.16000
     Eigenvalues ---    0.16000   0.16000   0.16057   0.16138   0.21096
     Eigenvalues ---    0.22200   0.23703   0.32863   0.34261   0.35662
     Eigenvalues ---    0.36199   0.43230   0.43494   0.43561   0.46838
     Eigenvalues ---    0.49584   0.62388   0.93738
 RFO step:  Lambda=-6.84679198D-04 EMin= 2.29999364D-03
 Quartic linear search produced a step of -0.70722.
 Iteration  1 RMS(Cart)=  0.14902200 RMS(Int)=  0.02909401
 Iteration  2 RMS(Cart)=  0.13893017 RMS(Int)=  0.00545910
 Iteration  3 RMS(Cart)=  0.00933178 RMS(Int)=  0.00051859
 Iteration  4 RMS(Cart)=  0.00000396 RMS(Int)=  0.00051858
 Iteration  5 RMS(Cart)=  0.00000000 RMS(Int)=  0.00051858
 Variable       Old X    -DE/DX   Delta X   Delta X   Delta X     New X
                                 (Linear)    (Quad)   (Total)
    R1        2.61721  -0.01998  -0.02801  -0.00429  -0.03230   2.58491
    R2        2.08496  -0.00425  -0.01127  -0.00015  -0.01142   2.07354
    R3        2.52990   0.00047   0.02271  -0.01967   0.00304   2.53294
    R4        2.75417  -0.00141   0.01365  -0.01688  -0.00323   2.75094
    R5        2.07887  -0.00329  -0.00991  -0.00188  -0.01179   2.06708
    R6        1.90016  -0.00399  -0.00895   0.00111  -0.00785   1.89230
    R7        2.34589  -0.00956  -0.00951  -0.00018  -0.00969   2.33620
    R8        2.13037  -0.00461  -0.01470   0.00171  -0.01299   2.11738
    R9        3.37687   0.00061  -0.03461   0.02764  -0.00697   3.36991
   R10        1.92959  -0.00041   0.00317  -0.00235   0.00082   1.93041
   R11        1.92909  -0.00003   0.00285  -0.00212   0.00073   1.92982
   R12        1.92910  -0.00002   0.00285  -0.00211   0.00074   1.92984
    A1        2.07461   0.00381   0.03988  -0.02392   0.01596   2.09057
    A2        2.25174  -0.00748  -0.02701   0.00649  -0.02052   2.23122
    A3        1.95684   0.00367  -0.01287   0.01743   0.00456   1.96140
    A4        2.08707  -0.00404   0.00491  -0.01905  -0.01414   2.07293
    A5        2.13135   0.00099   0.00795  -0.00244   0.00552   2.13686
    A6        2.06477   0.00305  -0.01286   0.02148   0.00862   2.07339
    A7        1.91642   0.00234  -0.00366   0.01736   0.01371   1.93012
    A8        2.21425  -0.00771  -0.02799  -0.00647  -0.03446   2.17979
    A9        1.99543   0.00282   0.01138   0.00055   0.01193   2.00736
   A10        2.07350   0.00489   0.01661   0.00592   0.02254   2.09603
   A11        1.84242  -0.00149  -0.00746   0.01128   0.00501   1.84742
   A12        2.02682   0.00024   0.02073  -0.02052  -0.00016   2.02666
   A13        2.02240   0.00024   0.02041  -0.02007  -0.00002   2.02238
   A14        1.85534  -0.00031  -0.01550   0.01136  -0.00309   1.85225
   A15        1.85505  -0.00029  -0.01532   0.01137  -0.00286   1.85218
   A16        1.84824   0.00144  -0.01002   0.01178   0.00052   1.84876
   A17        3.60378  -0.00935  -0.34441  -0.03650  -0.38145   3.22232
   A18        3.14121   0.00000   0.00047  -0.00072  -0.00025   3.14096
    D1       -0.00013   0.00000   0.00004  -0.00002   0.00002  -0.00011
    D2        3.14139   0.00000   0.00008  -0.00004   0.00004   3.14143
    D3       -3.14156  -0.00000  -0.00002  -0.00004  -0.00006   3.14157
    D4       -0.00004  -0.00000   0.00002  -0.00006  -0.00004  -0.00008
    D5       -0.00068   0.00001   0.00026  -0.00023   0.00004  -0.00064
    D6        3.14107   0.00000   0.00021  -0.00025  -0.00004   3.14103
    D7       -3.14155  -0.00000  -0.00001   0.00001  -0.00000  -3.14155
    D8       -0.00002   0.00000   0.00004  -0.00001   0.00004   0.00002
    D9        0.00011  -0.00000  -0.00005   0.00003  -0.00002   0.00009
   D10       -3.14154   0.00000   0.00000   0.00001   0.00002  -3.14152
   D11       -3.13074   0.00001   0.00085  -0.00120  -0.00038  -3.13112
   D12       -1.16024   0.00053   0.04700   0.02082   0.06614  -1.09410
   D13        1.18530  -0.00055  -0.04584  -0.02323  -0.06735   1.11795
         Item               Value     Threshold  Converged?
 Maximum Force            0.019981     0.000450     NO 
 RMS     Force            0.004471     0.000300     NO 
 Maximum Displacement     0.561564     0.001800     NO 
 RMS     Displacement     0.288418     0.001200     NO 
 Predicted change in Energy=-4.646913D-04
 GradGradGradGradGradGradGradGradGradGradGradGradGradGradGradGradGradGrad

                          Input orientation:                          
 ---------------------------------------------------------------------
 Center     Atomic      Atomic             Coordinates (Angstroms)
 Number     Number       Type             X           Y           Z
 ---------------------------------------------------------------------
      1          6           0       -0.880015    0.619267   -0.250813
      2          6           0       -1.725241    0.258072   -1.263838
      3          1           0       -0.924498    0.091727    0.710295
      4          8           0        0.051751    1.582747   -0.261486
      5          6           0       -2.668894   -0.826675   -1.035797
      6          1           0        0.069664    2.045452   -1.149355
      7          8           0       -3.481183   -1.244252   -1.868964
      8          1           0       -1.718261    0.754172   -2.238699
      9          1           0       -2.621650   -1.289260   -0.016369
     10          7           0        0.206569    2.952937   -2.678345
     11          1           0        0.954479    3.633381   -2.532912
     12          1           0        0.473177    2.409922   -3.501107
     13          1           0       -0.616977    3.490999   -2.952511
 ---------------------------------------------------------------------
                    Distance matrix (angstroms):
                    1          2          3          4          5
     1  C    0.000000
     2  C    1.367877   0.000000
     3  H    1.097272   2.136835   0.000000
     4  O    1.340372   2.432524   2.029916   0.000000
     5  C    2.430440   1.455734   2.633480   3.715748   0.000000
     6  H    1.934753   2.535649   2.874664   1.001363   3.970102
     7  O    3.585692   2.388825   3.869632   4.801826   1.236264
     8  H    2.161607   1.093854   3.124973   2.780081   2.202215
     9  H    2.594366   2.180360   2.305535   3.931359   1.120470
    10  N    3.538303   3.604859   4.576976   2.782552   5.025108
    11  H    4.202169   4.492678   5.156768   3.190516   5.938206
    12  H    3.949935   3.803797   5.006339   3.370010   5.140615
    13  H    3.951608   3.812044   5.006573   3.366042   5.150386
                    6          7          8          9         10
     6  H    0.000000
     7  O    4.893720   0.000000
     8  H    2.459827   2.690408   0.000000
     9  H    4.432509   2.042775   3.151266   0.000000
    10  N    1.783278   5.645441   2.955135   5.751624   0.000000
    11  H    2.284436   6.626253   3.939536   6.584382   1.021531
    12  H    2.413794   5.626174   3.022843   5.950236   1.021216
    13  H    2.410904   5.639181   3.035223   5.957393   1.021228
                   11         12         13
    11  H    0.000000
    12  H    1.632761   0.000000
    13  H    1.632730   1.630374   0.000000
 Stoichiometry    C3H7NO2
 Framework group  C1[X(C3H7NO2)]
 Deg. of freedom    33
 Full point group                 C1      NOp   1
 Largest Abelian subgroup         C1      NOp   1
 Largest concise Abelian subgroup C1      NOp   1
                         Standard orientation:                         
 ---------------------------------------------------------------------
 Center     Atomic      Atomic             Coordinates (Angstroms)
 Number     Number       Type             X           Y           Z
 ---------------------------------------------------------------------
      1          6           0       -0.067137    1.137450   -0.000026
      2          6           0        0.637782   -0.034803    0.000084
      3          1           0        0.468166    2.095289   -0.000106
      4          8           0       -1.398026    1.296610    0.000032
      5          6           0        2.092394    0.022344   -0.000044
      6          1           0       -1.858967    0.407644   -0.000422
      7          8           0        2.838850   -0.963127   -0.000005
      8          1           0        0.148911   -1.013333    0.000314
      9          1           0        2.525935    1.055540   -0.000209
     10          7           0       -2.804830   -1.104118   -0.000138
     11          1           0       -3.785836   -0.819435   -0.010452
     12          1           0       -2.677941   -1.713981   -0.809366
     13          1           0       -2.691290   -1.700703    0.820899
 ---------------------------------------------------------------------
 Rotational constants (GHZ):           5.7332120           1.3718481           1.1135050
 Standard basis: Aug-CC-pVDZ (5D, 7F)
 There are   213 symmetry adapted cartesian basis functions of A   symmetry.
 There are   201 symmetry adapted basis functions of A   symmetry.
   201 basis functions,   335 primitive gaussians,   213 cartesian basis functions
    24 alpha electrons       24 beta electrons
       nuclear repulsion energy       216.2256294236 Hartrees.
 NAtoms=   13 NActive=   13 NUniq=   13 SFac= 1.00D+00 NAtFMM=   60 NAOKFM=F Big=F
 Integral buffers will be    131072 words long.
 Raffenetti 1 integral format.
 Two-electron integral symmetry is turned on.
 One-electron integrals computed using PRISM.
 NBasis=   201 RedAO= T EigKep=  2.69D-05  NBF=   201
 NBsUse=   201 1.00D-06 EigRej= -1.00D+00 NBFU=   201
 Lowest energy guess from the checkpoint file:  "/scr/Gau-90113.chk"
 B after Tr=    -0.000000    0.000000    0.000000
         Rot=    0.999900   -0.000009   -0.000011    0.014127 Ang=  -1.62 deg.
 B after Tr=     0.000000    0.000000    0.000000
         Rot=    0.999923   -0.000000   -0.000001   -0.012425 Ang=  -1.42 deg.
 Requested convergence on RMS density matrix=1.00D-08 within 128 cycles.
 Requested convergence on MAX density matrix=1.00D-06.
 Requested convergence on             energy=1.00D-06.
 No special actions if energy rises.
 SCF Done:  E(RHF) =  -321.882868876     A.U. after   12 cycles
            NFock= 12  Conv=0.44D-08     -V/T= 2.0023
 ExpMin= 2.97D-02 ExpMax= 1.17D+04 ExpMxC= 4.01D+02 IAcc=3 IRadAn=         5 AccDes= 0.00D+00
 HarFok:  IExCor=  205 AccDes= 0.00D+00 IRadAn=         5 IDoV=-2 UseB2=F ITyADJ=14
 ICtDFT= 12500011 ScaDFX=  1.000000  1.000000  1.000000  1.000000
 Range of M.O.s used for correlation:     7   201
 NBasis=   201 NAE=    24 NBE=    24 NFC=     6 NFV=     0
 NROrb=    195 NOA=    18 NOB=    18 NVA=   177 NVB=   177

 **** Warning!!: The largest alpha MO coefficient is  0.47598107D+02

 Fully direct method using O(ONN) memory.
 JobTyp=1 Pass  1:  I=   7 to  24 NPSUse= 40 ParTrn=T ParDer=T DoDerP=T.
 Spin components of T(2) and E(2):
     alpha-alpha T2 =       0.4265408169D-01 E2=     -0.1297194775D+00
     alpha-beta  T2 =       0.2391748914D+00 E2=     -0.7479781741D+00
     beta-beta   T2 =       0.4265408169D-01 E2=     -0.1297194775D+00
 ANorm=    0.1150861875D+01
 E2 =    -0.1007417129D+01 EUMP2 =    -0.32289028600507D+03
          IDoAtm=1111111111111
          Differentiating once with respect to electric field.
                with respect to dipole field.
          Differentiating once with respect to nuclear coordinates.
 Keep R1 ints in memory in canonical form, NReq=215116179.
          There are     1 degrees of freedom in the 1st order CPHF.  IDoFFX=0 NUNeed=     1.
 LinEq1:  Iter=  0 NonCon=     1 RMS=4.70D-03 Max=1.21D-01 NDo=     1
 AX will form     1 AO Fock derivatives at one time.
 LinEq1:  Iter=  1 NonCon=     1 RMS=1.44D-03 Max=1.91D-02 NDo=     1
 LinEq1:  Iter=  2 NonCon=     1 RMS=5.22D-04 Max=7.58D-03 NDo=     1
 LinEq1:  Iter=  3 NonCon=     1 RMS=1.75D-04 Max=2.98D-03 NDo=     1
 LinEq1:  Iter=  4 NonCon=     1 RMS=6.02D-05 Max=1.06D-03 NDo=     1
 LinEq1:  Iter=  5 NonCon=     1 RMS=2.14D-05 Max=2.27D-04 NDo=     1
 LinEq1:  Iter=  6 NonCon=     1 RMS=8.36D-06 Max=2.37D-04 NDo=     1
 LinEq1:  Iter=  7 NonCon=     1 RMS=2.54D-06 Max=4.21D-05 NDo=     1
 LinEq1:  Iter=  8 NonCon=     1 RMS=1.08D-06 Max=3.33D-05 NDo=     1
 LinEq1:  Iter=  9 NonCon=     1 RMS=2.22D-07 Max=2.84D-06 NDo=     1
 LinEq1:  Iter= 10 NonCon=     1 RMS=6.34D-08 Max=9.32D-07 NDo=     1
 LinEq1:  Iter= 11 NonCon=     1 RMS=2.16D-08 Max=3.98D-07 NDo=     1
 LinEq1:  Iter= 12 NonCon=     1 RMS=5.20D-09 Max=1.14D-07 NDo=     1
 LinEq1:  Iter= 13 NonCon=     1 RMS=1.47D-09 Max=1.42D-08 NDo=     1
 LinEq1:  Iter= 14 NonCon=     1 RMS=5.14D-10 Max=5.04D-09 NDo=     1
 LinEq1:  Iter= 15 NonCon=     1 RMS=1.15D-10 Max=1.15D-09 NDo=     1
 LinEq1:  Iter= 16 NonCon=     0 RMS=2.09D-11 Max=1.62D-10 NDo=     1
 Linear equations converged to 1.000D-10 1.000D-09 after    16 iterations.
 End of Minotr F.D. properties file   721 does not exist.
 End of Minotr F.D. properties file   722 does not exist.
 End of Minotr F.D. properties file   788 does not exist.
 Calling FoFJK, ICntrl=  10002127 FMM=F ISym2X=0 I1Cent= 0 IOpClX= 0 NMat=1 NMatS=1 NMatT=0.
 ***** Axes restored to original set *****
 -------------------------------------------------------------------
 Center     Atomic                   Forces (Hartrees/Bohr)
 Number     Number              X              Y              Z
 -------------------------------------------------------------------
      1        6          -0.001607122   -0.001421688   -0.000449916
      2        6           0.002479282    0.002605934   -0.000105911
      3        1           0.000376913    0.000590502   -0.000402683
      4        8           0.001061444    0.001687315   -0.001235483
      5        6          -0.001762595   -0.002094393    0.000555804
      6        1          -0.001571148   -0.002002643    0.000803583
      7        8           0.000475049    0.000156417    0.000665326
      8        1           0.000083423   -0.000141877    0.000446031
      9        1          -0.000067847    0.000461694   -0.001057715
     10        7           0.000758520    0.000982733   -0.000340830
     11        1          -0.000367214   -0.000006068   -0.000727565
     12        1           0.000286356   -0.000629593    0.000823673
     13        1          -0.000145061   -0.000188333    0.001025686
 -------------------------------------------------------------------
 Cartesian Forces:  Max     0.002605934 RMS     0.001082230

 GradGradGradGradGradGradGradGradGradGradGradGradGradGradGradGradGradGrad
 Berny optimization.
 Using GEDIIS/GDIIS optimizer.
 FormGI is forming the generalized inverse of G from B-inverse, IUseBI=4.
 Internal  Forces:  Max     0.002557823 RMS     0.000842007
 Search for a local minimum.
 Step number   4 out of a maximum of   53
 All quantities printed in internal units (Hartrees-Bohrs-Radians)
 Mixed Optimization -- En-DIIS/RFO-DIIS
 Update second derivatives using D2CorX and points    1    3    2    4
 DE= -7.66D-04 DEPred=-4.65D-04 R= 1.65D+00
 TightC=F SS=  1.41D+00  RLast= 1.46D-01 DXNew= 4.2426D-01 4.3890D-01
 Trust test= 1.65D+00 RLast= 1.46D-01 DXMaxT set to 4.24D-01
 ITU=  1 -1  1  0
 Use linear search instead of GDIIS.
     Eigenvalues ---    0.00230   0.00230   0.01120   0.01120   0.02071
     Eigenvalues ---    0.02099   0.02609   0.02692   0.02954   0.06381
     Eigenvalues ---    0.08002   0.10065   0.11393   0.16000   0.16000
     Eigenvalues ---    0.16000   0.16030   0.16107   0.17590   0.21494
     Eigenvalues ---    0.22875   0.23458   0.33538   0.35589   0.35763
     Eigenvalues ---    0.36191   0.42982   0.43488   0.43561   0.46641
     Eigenvalues ---    0.50121   0.60947   0.93543
 RFO step:  Lambda=-1.10668112D-04 EMin= 2.29994540D-03
 Quartic linear search produced a step of -0.06211.
 Iteration  1 RMS(Cart)=  0.02377090 RMS(Int)=  0.00010461
 Iteration  2 RMS(Cart)=  0.00013262 RMS(Int)=  0.00001336
 Iteration  3 RMS(Cart)=  0.00000001 RMS(Int)=  0.00001336
 Variable       Old X    -DE/DX   Delta X   Delta X   Delta X     New X
                                 (Linear)    (Quad)   (Total)
    R1        2.58491  -0.00138  -0.00045  -0.00158  -0.00204   2.58287
    R2        2.07354  -0.00065  -0.00028  -0.00124  -0.00152   2.07202
    R3        2.53294  -0.00010   0.00181  -0.00353  -0.00173   2.53121
    R4        2.75094   0.00200   0.00140   0.00253   0.00393   2.75487
    R5        2.06708  -0.00046  -0.00014  -0.00101  -0.00115   2.06593
    R6        1.89230  -0.00227  -0.00030  -0.00371  -0.00401   1.88829
    R7        2.33620  -0.00081  -0.00023  -0.00045  -0.00068   2.33552
    R8        2.11738  -0.00116  -0.00048  -0.00236  -0.00284   2.11454
    R9        3.36991  -0.00055  -0.00261  -0.00241  -0.00502   3.36489
   R10        1.93041  -0.00038   0.00023  -0.00121  -0.00098   1.92943
   R11        1.92982  -0.00025   0.00020  -0.00091  -0.00070   1.92911
   R12        1.92984  -0.00026   0.00020  -0.00092  -0.00071   1.92913
    A1        2.09057   0.00120   0.00251   0.00117   0.00368   2.09425
    A2        2.23122  -0.00141  -0.00110  -0.00395  -0.00504   2.22618
    A3        1.96140   0.00021  -0.00141   0.00278   0.00136   1.96276
    A4        2.07293   0.00014   0.00131  -0.00198  -0.00067   2.07226
    A5        2.13686  -0.00019   0.00036  -0.00158  -0.00122   2.13564
    A6        2.07339   0.00005  -0.00167   0.00356   0.00190   2.07529
    A7        1.93012  -0.00256  -0.00117  -0.01231  -0.01348   1.91664
    A8        2.17979   0.00026  -0.00032   0.00141   0.00110   2.18089
    A9        2.00736  -0.00010   0.00026  -0.00077  -0.00051   2.00685
   A10        2.09603  -0.00016   0.00006  -0.00064  -0.00058   2.09545
   A11        1.84742   0.00136  -0.00097   0.01032   0.00938   1.85681
   A12        2.02666  -0.00118   0.00183  -0.01056  -0.00874   2.01792
   A13        2.02238  -0.00113   0.00179  -0.01021  -0.00843   2.01396
   A14        1.85225  -0.00004  -0.00117   0.00263   0.00149   1.85374
   A15        1.85218  -0.00004  -0.00117   0.00266   0.00152   1.85370
   A16        1.84876   0.00116  -0.00091   0.00719   0.00625   1.85501
   A17        3.22232   0.00008  -0.00655   0.00537  -0.00120   3.22113
   A18        3.14096   0.00001   0.00006   0.00418   0.00424   3.14520
[...]
 -0.00037269,-0.00027818,-0.00028063,0.00001831,0.00002301,-0.00001332,
 -1.10026327,0.74128256,-0.38036062,-0.01427452,0.01775502,-0.00523824,
 0.00066266,0.00041322,-0.00788010,1.11313386,0.00030315,0.00026151,0.0
 0008743,0.00002809,-0.00015900,-0.00011440,-0.00000789,-0.00004111,-0.
 00000264,-0.00024199,-0.00027199,0.00025418,0.00007187,0.00014050,0.00
 007060,-0.00015957,0.00051222,-0.00070382,-0.00006398,-0.00006004,-0.0
 0006609,0.00004578,0.00013679,-0.00000783,-0.00000821,-0.00000692,0.00
 000264,0.76155264,-0.11285699,0.19608550,-0.02841998,0.01780789,-0.006
 68708,0.02509522,-0.00056390,0.00534637,-0.75819513,0.09510104,-0.0000
 5425,-0.00003807,0.00003207,-0.00004817,0.00001338,-0.00007963,-0.0000
 2240,-0.00000113,0.00002028,0.00023809,0.00004815,-0.00012598,0.000021
 14,0.00000985,0.00000636,-0.00058233,-0.00001413,0.00020292,0.00000642
 ,-0.00000771,0.00001361,0.00002526,-0.00000809,0.00007527,-0.00000467,
 -0.00000594,0.00001304,-0.41635010,0.20960596,0.19286302,-0.00287347,0
 .00154807,0.01123486,0.02736793,-0.01688548,0.01472374,0.39227654,-0.1
 9426487,-0.21897957,-0.00055912,-0.00054571,-0.00062820,0.00012864,-0.
 00009172,0.00007664,0.00041390,0.00043602,-0.00021499,-0.00033707,0.00
 026839,0.00036460,-0.00005082,-0.00076101,-0.00022488,0.00009781,0.000
 26247,-0.00002174,-0.00023126,-0.00021357,0.00033037,-0.00006380,0.000
 06860,-0.00006938,0.00006743,-0.00001864,-0.00000114,-0.00001615,0.000
 06301,0.00008372,-0.00015316,-0.00002393,0.00001853,0.00007116,-0.0000
 4989,-0.00007205,-0.00000718,-0.00009921,0.00008094,-0.00000540,0.0000
 7908,-0.00005021,0.00002791,0.00002465,-0.00001680,0.00036571,0.000243
 06,0.00015840,-0.00010391,0.00005211,-0.00014079,0.00006302,0.00000633
 ,0.00001677,-0.00014998,0.00031061,0.00020496,0.00023602,-0.00009532,-
 0.00001387,-0.00020388,0.00000322,0.00001900,0.00005261,-0.00019648,-0
 .00018705,0.00006188,0.00012853,-0.00007074,0.00008505,0.00001713,0.00
 003369,-0.00000238,0.00004152,-0.00001349,0.00005472,0.00002609,0.0000
 4365,-0.00011871,-0.00011530,-0.00003007,-0.00000237,0.00028383,0.0001
 6463,-0.00000997,-0.00000068,0.00001022,0.00001841,0.00001688,-0.00001
 360,0.00038346,-0.00014056,-0.00011575,-0.00000871,0.00031583,0.000098
 11,0.00001423,0.00000247,-0.00001600,-0.00000135,0.00001845,0.00004774
 ,-0.00000761,-0.00012386,-0.00040123,-0.00008765,-0.00004343,-0.000051
 42,0.00004678,0.00016740,-0.00015364,0.00002164,0.00000480,0.00000547,
 0.00001942,0.00000411,-0.00000840,0.00000004,0.00001697,-0.00009532,0.
 00013102,0.00004421,0.00004910,-0.00013192,-0.00000633,0.00003897,-0.0
 0004792,0.00000144,-0.00001694,-0.00029702,-0.00031240,0.00002505,0.00
 002337,0.00000701,0.00000574,0.00044715,-0.00000654,0.00001322,0.00007
 556,0.00001505,-0.00015129,0.00000787,0.00000271,-0.00002303,-0.000036
 65,-0.00017937,-0.00011777,-0.00011520,0.00000194,0.00000907,0.0000084
 0,0.00062042,0.00035680,0.00012775,0.00016286,-0.00000526,0.00001600,-
 0.00000434,-0.00007852,-0.00001453,-0.00003835,-0.00000500,-0.00022919
 ,-0.00037285,0.00027486,0.00001467,0.00001915,0.00001545,-0.00010730,0
 .00034012,-0.00096669,0.00000209,0.00000806,0.00002921,0.00008520,-0.0
 0000341,-0.00004589,0.00000098,-0.00000438,-0.00001222,-0.00002127,-0.
 00000995,-0.00000642,-0.00019964,0.00005101,-0.00003993,-0.00000142,-0
 .00000007,-0.00001448,0.00011683,0.00004504,0.00002960,0.00000786,-0.0
 0000297,-0.00000158,0.00004633,-0.00000058,0.00000239,-0.00000580,-0.0
 0001169,-0.00002274,-0.00000124,-0.00000262,0.00023007,-0.00001220,-0.
 00000833,0.00000761,-0.00001170,-0.00001871,-0.00014959,0.00005485,0.0
 0000769,0.00005092,0.00008735,-0.00004716,-0.00000312,-0.00000693,0.00
 000037,-0.00000449,-0.00004150,-0.00003223,0.00000672,-0.00015344,0.00
 006758,0.00006933,-0.00000280,0.00000691,-0.00001353,0.00004412,-0.000
 04364,-0.00008765,0.00005955,0.00002711,-0.00004742,-0.00015266,0.0002
 3710,0.00011305,-0.00001797,0.00000743,-0.00001193,-0.00002823,-0.0000
 3642,0.00002888,-0.00003300,-0.00005332,-0.00006188,-0.00003479,-0.000
 04483,-0.00006589,-0.00001180,-0.00000254,0.00001978,0.00024691,0.0000
 4912,0.00015069,-0.00003132,0.00024792,-0.00016648,-0.00002383,-0.0000
 0213,-0.00001046,-0.00002983,-0.00005709,-0.00007945,0.00004302,-0.000
 09902,-0.00001533,-0.00009728,-0.00005815,0.00000925,-0.00006360,0.000
 01246,-0.00001794,0.00002239,-0.00022464,0.00017266,-0.00014236,-0.000
 09509,0.00001451,0.00014691,-0.00003261,-0.00013338,0.00002134,0.00000
 834,0.00001665,0.00003168,0.00005342,-0.00002781,0.00004716,0.00002695
 ,0.00010006,-0.00002555,-0.00002247,0.00002083,-0.00001129,-0.00001091
 ,-0.00001608,-0.00006071,0.00012872,0.00010006,-0.00000090,0.00000410,
 -0.00001409,0.00006293,0.00002248,0.00006623,0.00000003,0.00000089,-0.
 00001837,0.00000095,0.00000692,-0.00000161,-0.00008595,-0.00007780,0.0
 0004042,0.00000990,-0.00000532,0.00000563,0.00003237,0.00001578,0.0000
 1146,0.00001552,0.00000726,-0.00002267,-0.00002069,0.00000039,0.000019
 01,0.00000357,0.00000997,-0.00000854,0.00007101,-0.00000430,0.00000319
 ,-0.00001703,-0.00000447,-0.00001077,-0.00000376,-0.00003367,0.0001270
 6,-0.00012047,-0.00000183,0.00000824,0.00000804,0.00001149,-0.00005725
 ,0.00004190,-0.00000297,0.00002721,-0.00002678,0.00003203,-0.00008434,
 -0.00000040,0.00000619,-0.00000293,0.00000902,0.00000174,-0.00006849,0
 .00000206,0.00000078,0.00000137,0.00000379,0.00000353,0.00000636,0.000
 04930,-0.00005132,0.00015160,-0.00000278,0.00000438,0.00000101,0.00000
 479,-0.00001403,-0.00003875,0.00000024,0.00000551,0.00001103,-0.000076
 56,0.00003486,-0.00005349,0.00022478,0.00033209,0.00004420,-0.00010257
 ,-0.00048507,-0.00051711,-0.00001336,-0.00000206,0.00004629,0.00070490
 ,-0.00016837,-0.00077737,0.00017877,0.00033433,0.00023911,-0.00311516,
 0.00116189,-0.00028068,-0.00003245,-0.00009610,-0.00017187,0.00017167,
 0.00029655,0.00041736,-0.00004215,-0.00002512,0.00002367,1.35023616,0.
 00054184,0.00040546,0.00005465,-0.00066428,0.00003365,-0.00016924,-0.0
 0001542,-0.00005609,0.00001172,-0.00050142,0.00085477,-0.00025335,0.00
 042295,0.00014135,0.00005430,0.00067984,-0.00251471,-0.00172392,-0.000
 20916,-0.00001662,-0.00010595,0.00025249,-0.00018286,0.00022614,-0.000
 00212,-0.00004175,0.00002116,-1.61096249,0.62498263,-0.00038611,-0.000
 38856,-0.00013782,-0.00014675,0.00019379,-0.00007311,0.00007328,0.0000
 4102,0.00003682,-0.00010703,0.00042807,0.00018466,0.00004775,-0.000137
 41,0.00010414,0.00066767,-0.00078474,-0.00119213,0.00005771,0.00012865
 ,0.00001127,0.00049696,0.00031760,0.00006769,-0.00002164,-0.00002352,-
 0.00002366,0.19306441,1.05526228,1.05881873,0.00004185,0.00006009,0.00
 003000,-0.00003508,-0.00000100,-0.00001485,0.00001326,-0.00000719,-0.0
 0000507,-0.00019203,0.00006960,0.00004439,-0.00002647,-0.00004105,-0.0
 0000020,0.00027195,-0.00022086,-0.00012030,0.00000436,0.00002203,0.000
 00918,0.00008825,0.00006665,-0.00005329,0.00000746,0.00000960,-0.00001
 258,-0.00035056,0.02423434,-0.01236684,0.00153891,-0.00010309,-0.00011
 956,-0.00003414,0.00004379,0.00002359,-0.00000834,0.00000726,0.0000259
 2,0.00000768,0.00015918,0.00006901,-0.00036260,-0.00007036,-0.00006682
 ,0.00001742,-0.00021330,0.00011225,0.00040452,0.00004801,0.00001807,0.
 00001991,0.00009511,0.00016856,-0.00004594,-0.00000072,0.00001025,-0.0
 0001353,0.01538594,0.00240245,-0.01177366,0.00147815,-0.00097802,0.000
 36643,0.00031102,0.00009957,-0.00011328,-0.00010846,-0.00004352,-0.000
 03387,-0.00002289,-0.00000225,-0.00015398,-0.00056629,0.00053208,0.000
 06165,0.00008062,-0.00001910,-0.00010496,0.00043152,-0.00052658,-0.000
 04453,-0.00003439,-0.00004439,-0.00010049,-0.00009560,0.00003012,0.000
 00805,0.00000765,0.00000538,0.00527902,0.00634106,-0.02035817,0.005428
 64,0.00325815,0.00324400,-0.00029282,-0.00032536,-0.00002158,0.0001209
 0,0.00018090,0.00001664,0.00000365,0.00003245,0.00000209,0.00021224,0.
 00030297,-0.00019531,-0.00001736,-0.00011057,0.00001716,0.00024652,-0.
 00028149,0.00027792,0.00003125,0.00002630,0.00005414,0.00001413,0.0000
 3051,-0.00008769,-0.00000960,-0.00000948,0.00000692,0.38717304,0.38394
 905,0.50838194,-0.00071990,-0.01334010,-0.00793320,-0.38881952,-0.0001
 8757,-0.00016914,-0.00001552,0.00030699,-0.00002849,0.00025002,-0.0000
 2617,0.00002180,0.00001124,0.00027264,-0.00088302,0.00046729,-0.000206
 63,-0.00003396,-0.00009653,-0.00043372,0.00188199,0.00126604,0.0000558
 0,-0.00002286,0.00004318,-0.00027241,-0.00019233,-0.00019641,0.0000118
 1,0.00002324,-0.00000406,0.37932269,-0.51962991,-1.40521818,-0.0053643
 3,-0.00320864,-0.00598227,-0.36539906,0.52053524,-0.00011310,-0.000029
 01,-0.00000615,0.00029043,-0.00011742,0.00017337,-0.00001787,0.0000093
 5,-0.00002515,0.00021378,-0.00007446,-0.00036210,-0.00016375,0.0000149
 8,-0.00009191,-0.00041105,0.00053619,0.00160017,0.00004385,-0.00005563
 ,0.00002825,-0.00031532,-0.00008363,-0.00009468,0.00001297,0.00002698,
 0.00000580,0.51017915,-1.42727621,-1.36342507,0.00116867,0.00897014,0.
 01098667,-0.50303565,1.41138414,1.35212777,-0.00020367,-0.00023709,-0.
 00004215,0.00011537,0.00023075,0.00045379,0.00002081,-0.00002343,-0.00
 002618,-0.00057279,0.00010876,0.00069673,-0.00011054,-0.00018196,-0.00
 020062,0.00249834,-0.00106352,0.00039041,-0.00000651,0.00003438,0.0000
 9567,-0.00031756,-0.00026944,-0.00026087,0.00003013,0.00001835,-0.0000
 0748,-1.73503306,1.20227438,-0.68976136,-0.00064202,-0.00348988,-0.002
 65949,0.00205747,-0.00808005,-0.00785209,1.73216404,-0.00029511,-0.000
 23869,0.00000755,0.00017208,0.00005675,-0.00010415,0.00003286,0.000003
 07,0.00000291,0.00019875,0.00011917,0.00002020,-0.00007347,-0.00000434
 ,0.00009655,-0.00031887,0.00040838,0.00001401,0.00005884,0.00000085,0.
 00001906,0.00001791,0.00013651,-0.00001335,-0.00001532,-0.00001554,0.0
 0000476,1.21490572,-0.10637837,0.36195467,-0.02030604,0.00154295,-0.00
 362011,-0.00505612,0.00170609,0.00669458,-1.18932125,0.10266318,-0.000
 10054,-0.00013174,-0.00002647,0.00003019,0.00011528,0.00008833,-0.0000
 0015,0.00001241,-0.00002390,0.00017391,0.00044586,-0.00059953,-0.00003
 458,-0.00003410,-0.00002628,-0.00011515,-0.00045190,0.00087539,-0.0000
 0490,0.00000669,0.00004154,0.00000471,-0.00009217,-0.00008900,0.000010
 18,-0.00000245,0.00000477,-0.70754617,0.36755734,0.32598665,0.00589224
 ,-0.00043961,0.00609617,0.00251663,-0.00190892,-0.00091698,0.69917364,
 -0.36507669,-0.33141070,-0.00017903,-0.00036454,-0.00015526,-0.0000387
 3,-0.00011116,0.00004048,0.00022677,-0.00007458,-0.00019689,-0.0003117
 3,-0.00009031,0.00022118,0.00012209,-0.00005930,-0.00049100,-0.0001898
 4,0.00012350,-0.00001162,0.00023444,-0.00001757,-0.00002810,-0.0000300
 1,0.00000140,0.00002358,-0.00004423,0.00000406,0.00004255,0.00000756,0
 .00002291,0.00003212,-0.00002293,0.00002114,-0.00005551,0.00000426,-0.
 00002837,-0.00000592,0.00003445,-0.00002485,0.00006894,-0.00001144,-0.
 00003673,0.00001697,-0.00002856,-0.00000534,-0.00004292,0.00015605,0.0
 0025291,0.00012477,-0.00007425,-0.00002823,-0.00008987,0.00006087,0.00
 003358,0.00000842,0.00012206,0.00028040,0.00000390,0.00017769,-0.00006
 785,0.00004454,-0.00010497,0.00002653,0.00003037,0.00002645,-0.0004363
 1,0.00020376,0.00011250,0.00015521,-0.00021877,-0.00007781,-0.00010044
 ,0.00001689,-0.00000147,0.00002442,-0.00000315,-0.00010816,-0.00009609
 ,0.00053010,-0.00007924,0.00002020,0.00000927,0.00001475,0.00013226,0.
 00004847,0.00001448,-0.00002310,-0.00000586,0.00002473,0.00000796,0.00
 001918,0.00031123,-0.00004672,-0.00009631,-0.00008421,0.00015066,0.000
 19190,-0.00007802,-0.00001654,0.00000849,0.00002379,0.00002122,0.00003
 116,0.00002891,-0.00018647,-0.00045536,0.00003861,-0.00002901,0.000061
 60,-0.00004304,0.00009455,0.00002942,-0.00000388,0.00002024,-0.0000223
 3,0.00002908,0.00001748,-0.00001357,0.00001978,0.00000791,-0.00006036,
 -0.00012587,0.00012032,-0.00004295,-0.00007051,0.00011265,0.00020012,-
 0.00001527,-0.00001439,-0.00000384,-0.00037552,0.00042585,-0.00013780,
 0.00002059,-0.00004234,-0.00002744,0.00072207,0.00003920,-0.00007838,-
 0.00021728,0.00019542,-0.00013119,0.00007054,0.00000333,-0.00000039,0.
 00000347,0.00042583,-0.00012758,-0.00027998,-0.00006043,0.00000923,0.0
 0000246,-0.00125057,0.00009183,0.00009808,-0.00006649,0.00010997,0.000
 05318,-0.00007166,-0.00000866,-0.00003644,-0.00003497,-0.00001544,-0.0
 0013104,-0.00027768,-0.00042161,0.00000788,0.00004021,0.00002045,0.000
 17518,0.00095026,0.00030365,0.00001897,0.00001014,0.00003065,0.0000093
 6,-0.00007735,-0.00009886,0.00000426,0.00000093,-0.00000613,-0.0000081
 4,0.00000935,-0.00002354,-0.00021224,0.00007838,0.00000579,0.00000748,
 0.00002830,-0.00000295,0.00016635,0.00006001,0.00004919,0.00002665,-0.
 00007918,-0.00003934,0.00001557,0.00000243,0.00000068,-0.00000603,-0.0
 0001141,-0.00001520,-0.00001045,0.00000525,0.00016397,-0.00000580,0.00
 002101,0.00001164,-0.00000904,-0.00000360,-0.00010534,0.00003000,-0.00
 000158,0.00003251,0.00003327,-0.00007434,-0.00003474,0.00000374,0.0000
 0475,0.00000296,-0.00002084,-0.00000249,-0.00000807,-0.00006878,0.0001
 1204,0.00009062,0.00000748,0.00000820,-0.00002017,0.00004302,-0.000019
 14,-0.00010569,-0.00011142,0.00006750,0.00004292,0.00018665,-0.0000006
 1,-0.00021079,0.00000172,-0.00000192,0.00001231,0.00004675,0.00002929,
 0.00002078,-0.00001022,0.00002962,0.00000340,0.00006935,-0.00013647,-0
 .00001493,-0.00000525,0.00000344,0.00000131,-0.00011872,0.00000294,-0.
 00013652,-0.00006039,-0.00007050,0.00026632,-0.00008367,0.00001349,0.0
 0000141,0.00001229,0.00003738,0.00004807,0.00001052,0.00006604,0.00000
 940,0.00001040,-0.00009979,0.00005921,0.00008894,-0.00000143,-0.000005
 42,-0.00001080,0.00000493,-0.00021295,0.00011795,0.00005112,0.00000113
 ,-0.00001645,0.00007078,0.00006042,-0.00000446,-0.00000112,-0.00000072
 ,-0.00003127,-0.00003556,0.00003443,-0.00005077,-0.00003277,-0.0000703
 5,-0.00007579,0.00002543,-0.00000817,0.00000964,-0.00000374,0.00002196
 ,0.00009486,0.00004323,-0.00008318,0.00000068,0.00000167,-0.00000210,0
 .00001455,0.00000283,0.00000348,-0.00000682,-0.00000023,0.00000444,0.0
 0000236,0.00000334,0.00000083,-0.00007293,-0.00002962,0.00004225,-0.00
 000800,0.00000154,-0.00000263,0.00003254,0.00001392,-0.00000821,0.0000
 0155,-0.00001127,0.00001587,0.00002166,-0.00000177,0.00000715,0.000017
 12,-0.00003274,-0.00000517,-0.00002190,0.00001018,-0.00000688,-0.00000
 094,-0.00000105,-0.00000580,0.00000106,0.00002742,0.00010112,-0.000030
 64,-0.00000030,0.00000017,-0.00001323,-0.00000948,-0.00004195,0.000004
 43,-0.00000242,-0.00000718,0.00001278,0.00000011,-0.00005693,0.0000100
 0,0.00001909,-0.00001016,-0.00000235,-0.00003660,-0.00000443,-0.000006
 22,-0.00001469,-0.00000047,-0.00000614,-0.00000448,0.00000500,0.000027
 41,0.00000974,-0.00005692,-0.00000053,-0.00000675,0.00000696,0.0000160
 7,-0.00001767,0.00001293,0.00000040,0.00000567,-0.00000336,-0.00004368
 ,0.00003678,0.00005577,-0.00074220,-0.00075249,-0.00035558,0.00006202,
 0.00021060,-0.00006677,0.00007225,0.00007495,0.00001697,0.00141256,0.0
 0038035,0.00074891,-0.00005725,-0.00010237,0.00007910,-0.00346632,-0.0
 0093233,0.00103508,0.00006104,0.00005526,0.00002180,0.00001952,0.00012
 141,0.00016410,-0.00001168,-0.00001721,0.00001307,1.77160620,-0.000436
 18,-0.00029380,0.00002138,0.00013951,0.00006778,-0.00006062,0.00002330
 ,0.00001313,0.00000081,0.00025201,0.00065954,0.00056728,0.00001458,0.0
 0000189,0.00003123,-0.00002243,-0.00300596,-0.00022070,-0.00001196,-0.
 00001378,-0.00000509,0.00010416,-0.00009264,0.00004542,-0.00000322,-0.
 00001211,0.00001485,1.58216792,1.69847514,-0.00097406,-0.00061448,-0.0
 0060337,0.00005718,0.00007592,-0.00014269,0.00012057,0.00010935,0.0000
 2477,0.00099304,0.00082915,0.00105106,-0.00013992,-0.00020058,0.000109
 52,-0.00076510,-0.00204468,-0.00057664,0.00015083,0.00013299,0.0000467
 8,0.00021257,0.00008912,0.00007959,-0.00001675,-0.00001495,-0.00000316
 ,-0.01431904,0.35314477,-0.42560710,0.00071956,0.00060697,0.00030269,0
 .00006344,-0.00024185,-0.00007859,-0.00006780,-0.00004262,-0.00001691,
 -0.00072102,-0.00056438,-0.00062415,-0.00002947,0.00007768,-0.00006738
 ,0.00169382,0.00178170,-0.00042900,0.00001955,-0.00002871,-0.00003070,
 -0.00003124,0.00010967,-0.00013003,0.00001585,0.00003680,-0.00001800,-
 1.35511166,-2.12399789,-0.02130706,1.34594798,0.00068804,0.00059705,0.
 00017375,-0.00031250,0.00000053,0.00003176,-0.00003859,-0.00005071,-0.
 00001311,-0.00071201,-0.00062988,0.00006063,0.00003466,0.00001553,-0.0
 0010290,0.00118851,0.00182777,-0.00085938,-0.00003479,0.00003502,-0.00
 001617,0.00007045,0.00006214,-0.00012636,0.00002969,0.00002923,-0.0000
 1956,-2.13104606,-1.44465549,-0.02993641,2.10424403,1.43289924,0.00013
 169,0.00000117,0.00024631,0.00006816,0.00017872,0.00012242,-0.00002395
 ,-0.00002126,-0.00002579,-0.00031159,0.00037928,-0.00125887,0.00001351
 ,-0.00001765,-0.00000698,0.00072018,0.00031320,0.00101756,-0.00001653,
 -0.00000296,0.00003404,-0.00005900,-0.00005327,-0.00008817,-0.00000363
 ,-0.00000530,-0.00000864,-0.00739184,-0.01566670,0.74207959,0.01387629
 ,0.02538144,-0.73500258,0.00006025,0.00003589,0.00002831,-0.00013572,0
 .00003068,-0.00000267,0.00002634,-0.00002359,0.00000181,-0.00028588,0.
 00014701,0.00000148,0.00012013,0.00008708,0.00002303,0.00066056,-0.000
 17636,-0.00073457,-0.00007197,-0.00003256,-0.00003996,0.00011141,-0.00
 007162,0.00004497,-0.00000406,-0.00002284,0.00001904,0.08875422,0.1535
 2431,0.20449839,0.00511292,0.00683478,-0.00210228,-0.09502911,-0.00004
 748,-0.00007379,-0.00000597,0.00013733,0.00000470,0.00018657,-0.000006
 55,0.00000034,-0.00000251,-0.00005499,-0.00021547,-0.00009128,-0.00009
 916,-0.00004187,-0.00006684,0.00001754,0.00068316,0.00052002,0.0000348
 3,-0.00001245,0.00003060,-0.00016458,-0.00006121,-0.00014114,0.0000070
 4,0.00001412,-0.00000800,0.15043698,-0.16595684,-0.42606787,0.01265159
 ,0.00597028,-0.00895710,-0.16852555,0.15834893,0.00032139,0.00025601,0
 .00015058,-0.00001536,-0.00009402,0.00005236,-0.00004095,-0.00004361,-
 0.00001016,-0.00031516,-0.00047827,0.00018952,0.00001968,0.00006791,-0
 .00007136,0.00014394,0.00053894,-0.00007682,-0.00004230,-0.00004317,-0
 .00001937,-0.00006822,-0.00008350,-0.00004250,0.00000770,0.00001819,-0
 .00000271,0.20909167,-0.44992140,-0.42359092,0.00717699,0.00225324,-0.
 00598442,-0.21224079,0.44457757,0.42297149,0.00008524,0.00007434,0.000
 07401,0.00005907,0.00000482,0.00020824,-0.00002338,-0.00001932,-0.0000
 0567,-0.00036057,-0.00024153,0.00006925,-0.00004447,-0.00002057,-0.000
 09918,0.00088763,0.00008086,-0.00001787,-0.00002195,-0.00000587,0.0000
 2786,-0.00016008,-0.00010125,-0.00013860,0.00001431,0.00001329,-0.0000
 0905,-0.50259871,0.38824589,-0.16851064,0.00238806,0.01905379,-0.00490
 101,0.00068094,0.00561302,-0.00403860,0.49909392,-0.00010683,-0.000076
 82,-0.00003676,0.00005280,-0.00007445,-0.00006561,0.00000531,0.0000328
 4,0.00002271,0.00022109,-0.00002740,-0.00026978,0.00006089,0.00006088,
 0.00005108,-0.00045606,0.00066049,-0.00004628,-0.00002332,-0.00002701,
 -0.00003041,-0.00000337,0.00006939,0.00009194,-0.00001580,-0.00001577,
 0.00002163,0.39940299,-0.08518685,0.10449765,0.00536700,0.00389928,-0.
 00152955,0.00819277,0.00134010,0.00295210,-0.41269747,0.07934531,0.000
 30803,0.00024157,0.00013239,-0.00008294,-0.00011080,-0.00006816,-0.000
 04453,-0.00001909,0.00000731,-0.00014125,-0.00043049,0.00009702,0.0001
 0014,0.00012270,-0.00000976,-0.00019345,0.00063620,-0.00033109,-0.0000
 6571,-0.00005721,-0.00005378,-0.00003561,0.00003145,0.00009891,0.00000
 243,-0.00000340,0.00000918,-0.18903747,0.11204878,0.10713256,0.0013458
 6,0.00317307,-0.00112447,0.01050322,-0.00997405,0.00643430,0.17734127,
 -0.10565872,-0.11232440\\@
 The archive entry for this job was punched.


 SCIENCE AND PEACE WILL TRIUMPH OVER IGNORANCE AND WAR

                          -- PASTEUR
 Job cpu time:       9 days  4 hours 23 minutes 40.6 seconds.
 Elapsed time:       0 days  5 hours 33 minutes  9.0 seconds.
 File lengths (MBytes):  RWF=   7420 Int=      0 D2E=      0 Chk=     49 Scr=      1
 Normal termination of Gaussian 16 at Sun Mar 23 01:01:31 2025.
