 Entering Gaussian System, Link 0=g16
 Input=enoloneco_h2o_mp2_avdz_opt_anharm.gjf
 Output=enoloneco_h2o_mp2_avdz_opt_anharm.log
 Initial command:
 /sw/contrib/chem-src/g16/c01/g16/l1.exe "/scr/Gau-80905.inp" -scrdir="/scr/"
 Entering Link 1 = /sw/contrib/chem-src/g16/c01/g16/l1.exe PID=     80908.
  
 Copyright (c) 1988-2019, Gaussian, Inc.  All Rights Reserved.
  
 This is part of the Gaussian(R) 16 program.  It is based on
 the Gaussian(R) 09 system (copyright 2009, Gaussian, Inc.),
 the Gaussian(R) 03 system (copyright 2003, Gaussian, Inc.),
 the Gaussian(R) 98 system (copyright 1998, Gaussian, Inc.),
 the Gaussian(R) 94 system (copyright 1995, Gaussian, Inc.),
 the Gaussian 92(TM) system (copyright 1992, Gaussian, Inc.),
 the Gaussian 90(TM) system (copyright 1990, Gaussian, Inc.),
 the Gaussian 88(TM) system (copyright 1988, Gaussian, Inc.),
 the Gaussian 86(TM) system (copyright 1986, Carnegie Mellon
 University), and the Gaussian 82(TM) system (copyright 1983,
 Carnegie Mellon University). Gaussian is a federally registered
 trademark of Gaussian, Inc.
  
 This software contains proprietary and confidential information,
 including trade secrets, belonging to Gaussian, Inc.
  
 This software is provided under written license and may be
 used, copied, transmitted, or stored only in accord with that
 written license.
  
 The following legend is applicable only to US Government
 contracts under FAR:
  
                    RESTRICTED RIGHTS LEGEND
  
 Use, reproduction and disclosure by the US Government is
 subject to restrictions as set forth in subparagraphs (a)
 and (c) of the Commercial Computer Software - Restricted
 Rights clause in FAR 52.227-19.
  
 Gaussian, Inc.
 340 Quinnipiac St., Bldg. 40, Wallingford CT 06492
  
  
 ---------------------------------------------------------------
 Warning -- This program may not be used in any manner that
 competes with the business of Gaussian, Inc. or will provide
 assistance to any competitor of Gaussian, Inc.  The licensee
 of this program is prohibited from giving any competitor of
 Gaussian, Inc. access to this program.  By using this program,
 the user acknowledges that Gaussian, Inc. is engaged in the
 business of creating and licensing software in the field of
 computational chemistry and represents and warrants to the
 licensee that it is not a competitor of Gaussian, Inc. and that
 it will not use this program in any manner prohibited above.
 ---------------------------------------------------------------
  

 Cite this work as:
 Gaussian 16, Revision C.01,
 M. J. Frisch, G. W. Trucks, H. B. Schlegel, G. E. Scuseria, 
 M. A. Robb, J. R. Cheeseman, G. Scalmani, V. Barone, 
 G. A. Petersson, H. Nakatsuji, X. Li, M. Caricato, A. V. Marenich, 
 J. Bloino, B. G. Janesko, R. Gomperts, B. Mennucci, H. P. Hratchian, 
 J. V. Ortiz, A. F. Izmaylov, J. L. Sonnenberg, D. Williams-Young, 
 F. Ding, F. Lipparini, F. Egidi, J. Goings, B. Peng, A. Petrone, 
 T. Henderson, D. Ranasinghe, V. G. Zakrzewski, J. Gao, N. Rega, 
 G. Zheng, W. Liang, M. Hada, M. Ehara, K. Toyota, R. Fukuda, 
 J. Hasegawa, M. Ishida, T. Nakajima, Y. Honda, O. Kitao, H. Nakai, 
 T. Vreven, K. Throssell, J. A. Montgomery, Jr., J. E. Peralta, 
 F. Ogliaro, M. J. Bearpark, J. J. Heyd, E. N. Brothers, K. N. Kudin, 
 V. N. Staroverov, T. A. Keith, R. Kobayashi, J. Normand, 
 K. Raghavachari, A. P. Rendell, J. C. Burant, S. S. Iyengar, 
 J. Tomasi, M. Cossi, J. M. Millam, M. Klene, C. Adamo, R. Cammi, 
 J. W. Ochterski, R. L. Martin, K. Morokuma, O. Farkas, 
 J. B. Foresman, and D. J. Fox, Gaussian, Inc., Wallingford CT, 2019.
 
 ******************************************
 Gaussian 16:  EM64L-G16RevC.01  3-Jul-2019
                22-Mar-2025 
 ******************************************
 %nprocshared=40
 Will use up to   40 processors via shared memory.
 %mem=50gb
 ----------------------------------------------
 # MP2/aug-cc-pVDZ opt freq=(vibrot,anharmonic)
 ----------------------------------------------
 1/18=20,19=15,38=1,80=1/1,3;
 2/9=110,12=2,17=6,18=5,40=1/2;
 3/5=16,7=10,11=9,25=1,30=1,71=1/1,2,3;
 4//1;
 5/5=2,38=5/2;
 8/6=4,10=1/1;
 9/15=2,16=-3/6;
 10/5=1/2;
 6/7=2,8=2,9=2,10=2/1;
 7/12=2/1,2,3,16;
 1/18=20,19=15,80=1/3(2);
 2/9=110/2;
 99//99;
 2/9=110/2;
 3/5=16,7=10,11=9,25=1,30=1,71=1/1,2,3;
 4/5=5,16=3,69=1/1;
 5/5=2,38=5/2;
 8/6=4,10=1/1;
 9/15=2,16=-3/6;
 10/5=1/2;
 7/12=2/1,2,3,16;
 1/18=20,19=15,80=1/3(-8);
 2/9=110/2;
 6/7=2,8=2,9=2,10=2/1;
 99/9=10/99;
 ----
 blah
 ----
 Symbolic Z-matrix:
 Charge =  0 Multiplicity = 1
 C                    -0.23715   1.05545   0.17884 
 C                    -0.9546    0.55897  -0.83253 
 H                     0.07375   0.45387   1.02468 
 O                     0.19648   2.34524   0.27042 
 C                    -1.41355   1.32292  -2.0188 
 H                     0.66441   2.46411   1.1312 
 O                    -1.34628   2.53478  -2.16289 
 H                    -1.23856  -0.48672  -0.82843 
 H                    -1.85638   0.68784  -2.80444 
 O                     1.46094   2.81948   2.57372 
 H                     2.4145    2.97648   2.69187 
 H                     1.06736   3.38265   3.26388 
 
 Add virtual bond connecting atoms O10        and H6         Dist= 3.19D+00.

 GradGradGradGradGradGradGradGradGradGradGradGradGradGradGradGradGradGrad
 Berny optimization.
 Initialization pass.
                           ----------------------------
                           !    Initial Parameters    !
                           ! (Angstroms and Degrees)  !
 --------------------------                            --------------------------
 ! Name  Definition              Value          Derivative Info.                !
 --------------------------------------------------------------------------------
 ! R1    R(1,2)                  1.3357         estimate D2E/DX2                !
 ! R2    R(1,3)                  1.0835         estimate D2E/DX2                !
 ! R3    R(1,4)                  1.3638         estimate D2E/DX2                !
 ! R4    R(2,5)                  1.4837         estimate D2E/DX2                !
 ! R5    R(2,8)                  1.0836         estimate D2E/DX2                !
 ! R6    R(4,6)                  0.9869         estimate D2E/DX2                !
 ! R7    R(5,7)                  1.2223         estimate D2E/DX2                !
 ! R8    R(5,9)                  1.103          estimate D2E/DX2                !
 ! R9    R(6,10)                 1.6857         estimate D2E/DX2                !
 ! R10   R(10,11)                0.9736         estimate D2E/DX2                !
 ! R11   R(10,12)                0.9739         estimate D2E/DX2                !
 ! A1    A(2,1,3)              122.6053         estimate D2E/DX2                !
 ! A2    A(2,1,4)              124.97           estimate D2E/DX2                !
 ! A3    A(3,1,4)              112.422          estimate D2E/DX2                !
 ! A4    A(1,2,5)              125.4611         estimate D2E/DX2                !
 ! A5    A(1,2,8)              119.7751         estimate D2E/DX2                !
 ! A6    A(5,2,8)              114.7617         estimate D2E/DX2                !
 ! A7    A(1,4,6)              108.8577         estimate D2E/DX2                !
 ! A8    A(2,5,7)              125.9963         estimate D2E/DX2                !
 ! A9    A(2,5,9)              113.4037         estimate D2E/DX2                !
 ! A10   A(7,5,9)              120.5965         estimate D2E/DX2                !
 ! A11   A(6,10,11)            126.9157         estimate D2E/DX2                !
 ! A12   A(6,10,12)            122.5061         estimate D2E/DX2                !
 ! A13   A(11,10,12)           102.5084         estimate D2E/DX2                !
 ! A14   L(4,6,10,3,-1)        185.1916         estimate D2E/DX2                !
 ! A15   L(4,6,10,3,-2)        180.9348         estimate D2E/DX2                !
 ! D1    D(3,1,2,5)            179.9897         estimate D2E/DX2                !
 ! D2    D(3,1,2,8)             -0.5678         estimate D2E/DX2                !
 ! D3    D(4,1,2,5)             -0.6451         estimate D2E/DX2                !
 ! D4    D(4,1,2,8)            178.7975         estimate D2E/DX2                !
 ! D5    D(2,1,4,6)            177.2693         estimate D2E/DX2                !
 ! D6    D(3,1,4,6)             -3.3091         estimate D2E/DX2                !
 ! D7    D(1,2,5,7)             -9.5736         estimate D2E/DX2                !
 ! D8    D(1,2,5,9)            171.1146         estimate D2E/DX2                !
 ! D9    D(8,2,5,7)            170.9592         estimate D2E/DX2                !
 ! D10   D(8,2,5,9)             -8.3526         estimate D2E/DX2                !
 ! D11   D(1,4,10,11)          109.4335         estimate D2E/DX2                !
 ! D12   D(1,4,10,12)         -109.9298         estimate D2E/DX2                !
 ! D13   D(6,10,11,12)         148.7758         estimate D2E/DX2                !
 --------------------------------------------------------------------------------
 Trust Radius=3.00D-01 FncErr=1.00D-07 GrdErr=1.00D-07 EigMax=2.50D+02 EigMin=1.00D-04
 Number of steps in this run=     49 maximum allowed number of steps=    100.
 GradGradGradGradGradGradGradGradGradGradGradGradGradGradGradGradGradGrad

                          Input orientation:                          
 ---------------------------------------------------------------------
 Center     Atomic      Atomic             Coordinates (Angstroms)
 Number     Number       Type             X           Y           Z
 ---------------------------------------------------------------------
      1          6           0       -0.237146    1.055447    0.178839
      2          6           0       -0.954596    0.558974   -0.832532
      3          1           0        0.073751    0.453871    1.024685
      4          8           0        0.196476    2.345242    0.270419
      5          6           0       -1.413551    1.322915   -2.018797
      6          1           0        0.664409    2.464109    1.131201
      7          8           0       -1.346280    2.534776   -2.162892
      8          1           0       -1.238558   -0.486718   -0.828428
      9          1           0       -1.856380    0.687844   -2.804442
     10          8           0        1.460942    2.819479    2.573724
     11          1           0        2.414497    2.976476    2.691873
     12          1           0        1.067355    3.382650    3.263882
 ---------------------------------------------------------------------
                    Distance matrix (angstroms):
                    1          2          3          4          5
     1  C    0.000000
     2  C    1.335699   0.000000
     3  H    1.083515   2.125511   0.000000
     4  O    1.363813   2.394206   2.039918   0.000000
     5  C    2.507005   1.483735   3.497154   2.979572   0.000000
     6  H    1.924609   3.179145   2.097923   0.986932   3.942426
     7  O    2.983672   2.413932   4.062917   2.887390   1.222250
     8  H    2.096590   1.083570   2.457822   3.359582   2.173102
     9  H    3.414238   2.172153   4.294457   4.051661   1.103019
    10  O    3.425023   4.748399   3.149591   2.670016   5.620824
    11  H    4.127577   5.442107   3.823891   3.343877   6.291154
    12  H    4.078613   5.370478   3.818246   3.285645   6.189030
                    6          7          8          9         10
     6  H    0.000000
     7  O    3.859910   0.000000
     8  H    4.021046   3.304819   0.000000
     9  H    4.999878   2.020630   2.380321   0.000000
    10  O    1.685712   5.513355   5.458286   6.668820   0.000000
    11  H    2.400214   6.156889   6.142560   7.327189   0.973588
    12  H    2.356780   5.999533   6.085741   7.254981   0.973853
                   11         12
    11  H    0.000000
    12  H    1.518869   0.000000
 Stoichiometry    C3H6O3
 Framework group  C1[X(C3H6O3)]
 Deg. of freedom    30
 Full point group                 C1      NOp   1
 Largest Abelian subgroup         C1      NOp   1
 Largest concise Abelian subgroup C1      NOp   1
                         Standard orientation:                         
 ---------------------------------------------------------------------
 Center     Atomic      Atomic             Coordinates (Angstroms)
 Number     Number       Type             X           Y           Z
 ---------------------------------------------------------------------
      1          6           0       -0.067156    0.846921    0.002558
      2          6           0        1.254228    1.039458    0.033671
      3          1           0       -0.777450    1.663848    0.048571
      4          8           0       -0.677808   -0.368138   -0.100986
      5          6           0        2.281487   -0.029544   -0.024991
      6          1           0       -1.655254   -0.238629   -0.057832
      7          8           0        2.073132   -1.231222    0.055332
      8          1           0        1.649954    2.046108    0.098330
      9          1           0        3.308477    0.355635   -0.141527
     10          8           0       -3.337278   -0.171061    0.030802
     11          1           0       -3.967282   -0.308129   -0.698705
     12          1           0       -3.834169   -0.496473    0.802551
 ---------------------------------------------------------------------
 Rotational constants (GHZ):           8.8354946           1.3136869           1.1510668
 Standard basis: Aug-CC-pVDZ (5D, 7F)
 There are   204 symmetry adapted cartesian basis functions of A   symmetry.
 There are   192 symmetry adapted basis functions of A   symmetry.
   192 basis functions,   324 primitive gaussians,   204 cartesian basis functions
    24 alpha electrons       24 beta electrons
       nuclear repulsion energy       218.3521056265 Hartrees.
 NAtoms=   12 NActive=   12 NUniq=   12 SFac= 1.00D+00 NAtFMM=   60 NAOKFM=F Big=F
 Integral buffers will be    131072 words long.
 Raffenetti 1 integral format.
 Two-electron integral symmetry is turned on.
 One-electron integrals computed using PRISM.
 NBasis=   192 RedAO= T EigKep=  2.98D-05  NBF=   192
 NBsUse=   192 1.00D-06 EigRej= -1.00D+00 NBFU=   192
 ExpMin= 2.97D-02 ExpMax= 1.17D+04 ExpMxC= 4.01D+02 IAcc=3 IRadAn=         5 AccDes= 0.00D+00
 Harris functional with IExCor=  205 and IRadAn=       5 diagonalized for initial guess.
 HarFok:  IExCor=  205 AccDes= 0.00D+00 IRadAn=         5 IDoV= 1 UseB2=F ITyADJ=14
 ICtDFT=  3500011 ScaDFX=  1.000000  1.000000  1.000000  1.000000
 FoFCou: FMM=F IPFlag=           0 FMFlag=      100000 FMFlg1=           0
         NFxFlg=           0 DoJE=T BraDBF=F KetDBF=T FulRan=T
         wScrn=  0.000000 ICntrl=       500 IOpCl=  0 I1Cent=   200000004 NGrid=           0
         NMat0=    1 NMatS0=      1 NMatT0=    0 NMatD0=    1 NMtDS0=    0 NMtDT0=    0
 Petite list used in FoFCou.
 Keep R1 ints in memory in canonical form, NReq=180605534.
 Requested convergence on RMS density matrix=1.00D-08 within 128 cycles.
 Requested convergence on MAX density matrix=1.00D-06.
 Requested convergence on             energy=1.00D-06.
 No special actions if energy rises.
 SCF Done:  E(RHF) =  -341.702946850     A.U. after   15 cycles
            NFock= 15  Conv=0.63D-08     -V/T= 2.0018
 ExpMin= 2.97D-02 ExpMax= 1.17D+04 ExpMxC= 4.01D+02 IAcc=3 IRadAn=         5 AccDes= 0.00D+00
 HarFok:  IExCor=  205 AccDes= 0.00D+00 IRadAn=         5 IDoV=-2 UseB2=F ITyADJ=14
 ICtDFT= 12500011 ScaDFX=  1.000000  1.000000  1.000000  1.000000
 Range of M.O.s used for correlation:     7   192
 NBasis=   192 NAE=    24 NBE=    24 NFC=     6 NFV=     0
 NROrb=    186 NOA=    18 NOB=    18 NVA=   168 NVB=   168

 **** Warning!!: The largest alpha MO coefficient is  0.52348276D+02

 Fully direct method using O(ONN) memory.
 JobTyp=1 Pass  1:  I=   7 to  24 NPSUse= 40 ParTrn=T ParDer=T DoDerP=T.
 Spin components of T(2) and E(2):
     alpha-alpha T2 =       0.4240066802D-01 E2=     -0.1337835307D+00
     alpha-beta  T2 =       0.2343775898D+00 E2=     -0.7569205009D+00
     beta-beta   T2 =       0.4240066802D-01 E2=     -0.1337835307D+00
 ANorm=    0.1148555147D+01
 E2 =    -0.1024487562D+01 EUMP2 =    -0.34272743441276D+03
          IDoAtm=111111111111
          Differentiating once with respect to electric field.
                with respect to dipole field.
          Differentiating once with respect to nuclear coordinates.
 Keep R1 ints in memory in canonical form, NReq=180622109.
          There are     1 degrees of freedom in the 1st order CPHF.  IDoFFX=0 NUNeed=     1.
 LinEq1:  Iter=  0 NonCon=     1 RMS=4.76D-03 Max=1.21D-01 NDo=     1
 AX will form     1 AO Fock derivatives at one time.
 LinEq1:  Iter=  1 NonCon=     1 RMS=1.47D-03 Max=2.00D-02 NDo=     1
 LinEq1:  Iter=  2 NonCon=     1 RMS=5.44D-04 Max=1.09D-02 NDo=     1
 LinEq1:  Iter=  3 NonCon=     1 RMS=1.87D-04 Max=3.41D-03 NDo=     1
 LinEq1:  Iter=  4 NonCon=     1 RMS=6.45D-05 Max=1.07D-03 NDo=     1
 LinEq1:  Iter=  5 NonCon=     1 RMS=2.19D-05 Max=2.54D-04 NDo=     1
 LinEq1:  Iter=  6 NonCon=     1 RMS=7.49D-06 Max=1.65D-04 NDo=     1
 LinEq1:  Iter=  7 NonCon=     1 RMS=2.44D-06 Max=2.74D-05 NDo=     1
 LinEq1:  Iter=  8 NonCon=     1 RMS=9.40D-07 Max=2.89D-05 NDo=     1
 LinEq1:  Iter=  9 NonCon=     1 RMS=3.08D-07 Max=2.89D-06 NDo=     1
 LinEq1:  Iter= 10 NonCon=     1 RMS=7.64D-08 Max=7.58D-07 NDo=     1
 LinEq1:  Iter= 11 NonCon=     1 RMS=3.15D-08 Max=5.93D-07 NDo=     1
 LinEq1:  Iter= 12 NonCon=     1 RMS=1.00D-08 Max=1.97D-07 NDo=     1
 LinEq1:  Iter= 13 NonCon=     1 RMS=3.18D-09 Max=8.17D-08 NDo=     1
 LinEq1:  Iter= 14 NonCon=     1 RMS=7.46D-10 Max=1.80D-08 NDo=     1
 LinEq1:  Iter= 15 NonCon=     1 RMS=1.51D-10 Max=1.98D-09 NDo=     1
 LinEq1:  Iter= 16 NonCon=     0 RMS=4.79D-11 Max=7.08D-10 NDo=     1
 Linear equations converged to 1.000D-10 1.000D-09 after    16 iterations.
 End of Minotr F.D. properties file   721 does not exist.
 End of Minotr F.D. properties file   722 does not exist.
 End of Minotr F.D. properties file   788 does not exist.

 **********************************************************************

            Population analysis using the SCF Density.

 **********************************************************************

 Orbital symmetries:
       Occupied  (A) (A) (A) (A) (A) (A) (A) (A) (A) (A) (A) (A)
                 (A) (A) (A) (A) (A) (A) (A) (A) (A) (A) (A) (A)
       Virtual   (A) (A) (A) (A) (A) (A) (A) (A) (A) (A) (A) (A)
                 (A) (A) (A) (A) (A) (A) (A) (A) (A) (A) (A) (A)
                 (A) (A) (A) (A) (A) (A) (A) (A) (A) (A) (A) (A)
                 (A) (A) (A) (A) (A) (A) (A) (A) (A) (A) (A) (A)
                 (A) (A) (A) (A) (A) (A) (A) (A) (A) (A) (A) (A)
                 (A) (A) (A) (A) (A) (A) (A) (A) (A) (A) (A) (A)
                 (A) (A) (A) (A) (A) (A) (A) (A) (A) (A) (A) (A)
                 (A) (A) (A) (A) (A) (A) (A) (A) (A) (A) (A) (A)
                 (A) (A) (A) (A) (A) (A) (A) (A) (A) (A) (A) (A)
                 (A) (A) (A) (A) (A) (A) (A) (A) (A) (A) (A) (A)
                 (A) (A) (A) (A) (A) (A) (A) (A) (A) (A) (A) (A)
                 (A) (A) (A) (A) (A) (A) (A) (A) (A) (A) (A) (A)
                 (A) (A) (A) (A) (A) (A) (A) (A) (A) (A) (A) (A)
                 (A) (A) (A) (A) (A) (A) (A) (A) (A) (A) (A) (A)
 The electronic state is 1-A.
 Alpha  occ. eigenvalues --  -20.63039 -20.58443 -20.53658 -11.32291 -11.32077
 Alpha  occ. eigenvalues --  -11.22165  -1.40818  -1.38745  -1.35838  -1.04800
 Alpha  occ. eigenvalues --   -0.87537  -0.75848  -0.75486  -0.74360  -0.65809
 Alpha  occ. eigenvalues --   -0.62926  -0.62536  -0.56854  -0.56517  -0.55661
 Alpha  occ. eigenvalues --   -0.52775  -0.50181  -0.39814  -0.34525
 Alpha virt. eigenvalues --    0.01618   0.04037   0.04643   0.05215   0.07057
 Alpha virt. eigenvalues --    0.07495   0.09000   0.11704   0.12524   0.13933
 Alpha virt. eigenvalues --    0.15081   0.15134   0.15701   0.16014   0.16810
 Alpha virt. eigenvalues --    0.17641   0.18067   0.19178   0.20979   0.21950
 Alpha virt. eigenvalues --    0.23771   0.24306   0.25409   0.27165   0.27469
 Alpha virt. eigenvalues --    0.29220   0.30107   0.31228   0.32072   0.33530
 Alpha virt. eigenvalues --    0.34336   0.35435   0.36470   0.36720   0.37693
 Alpha virt. eigenvalues --    0.38985   0.39669   0.40848   0.42068   0.43475
 Alpha virt. eigenvalues --    0.44980   0.45568   0.48673   0.50384   0.51052
 Alpha virt. eigenvalues --    0.52396   0.53703   0.53941   0.54297   0.55244
 Alpha virt. eigenvalues --    0.55981   0.58386   0.60545   0.61347   0.62768
 Alpha virt. eigenvalues --    0.63869   0.65200   0.65990   0.66910   0.68055
 Alpha virt. eigenvalues --    0.69332   0.70695   0.72444   0.73376   0.76112
 Alpha virt. eigenvalues --    0.77999   0.80850   0.82365   0.84361   0.84395
 Alpha virt. eigenvalues --    0.86091   0.86788   0.88467   0.92269   0.93236
 Alpha virt. eigenvalues --    0.95358   0.98747   0.99454   1.00796   1.01094
 Alpha virt. eigenvalues --    1.04956   1.10650   1.10811   1.12902   1.18238
 Alpha virt. eigenvalues --    1.19151   1.22664   1.24119   1.25103   1.27677
 Alpha virt. eigenvalues --    1.28850   1.31551   1.32313   1.33958   1.35424
 Alpha virt. eigenvalues --    1.45036   1.46453   1.47897   1.51633   1.52997
 Alpha virt. eigenvalues --    1.56090   1.56712   1.59008   1.60950   1.64786
 Alpha virt. eigenvalues --    1.68315   1.71018   1.72812   1.75312   1.77009
 Alpha virt. eigenvalues --    1.78968   1.80685   1.81995   1.86676   1.88166
 Alpha virt. eigenvalues --    1.95155   1.96139   1.96428   1.99932   2.00709
 Alpha virt. eigenvalues --    2.03839   2.06687   2.09992   2.12225   2.12415
 Alpha virt. eigenvalues --    2.14161   2.21102   2.21736   2.23962   2.28057
 Alpha virt. eigenvalues --    2.31112   2.37602   2.39303   2.41813   2.42790
 Alpha virt. eigenvalues --    2.47709   2.48445   2.51941   2.57565   2.65839
 Alpha virt. eigenvalues --    2.67601   2.78720   2.81150   2.84953   2.97108
 Alpha virt. eigenvalues --    2.99846   3.04596   3.09501   3.13706   3.19290
 Alpha virt. eigenvalues --    3.29027   3.36735   3.66067   3.67134   3.71766
 Alpha virt. eigenvalues --    3.72815   3.76680   3.77501   3.78703   3.80301
 Alpha virt. eigenvalues --    3.82905   3.89671   4.00157   4.03611   4.05698
 Alpha virt. eigenvalues --    4.15694   4.27481   4.52743
          Condensed to atoms (all electrons):
               1          2          3          4          5          6
     1  C    5.371157  -0.132703  -0.226004   0.030022  -0.278012   0.068422
     2  C   -0.132703   5.506719   0.113391  -0.032145   0.286921  -0.095347
     3  H   -0.226004   0.113391   1.681963  -0.016651   0.028343  -0.100951
     4  O    0.030022  -0.032145  -0.016651   8.535756  -0.002244   0.329421
     5  C   -0.278012   0.286921   0.028343  -0.002244   4.856219  -0.011644
     6  H    0.068422  -0.095347  -0.100951   0.329421  -0.011644   0.533279
     7  O    0.018179  -0.061117  -0.002768  -0.028548   0.321942   0.006675
     8  H    0.081560  -0.033497  -0.084725   0.024341  -0.109464   0.003296
     9  H    0.034668   0.038300   0.002459  -0.001095   0.174412   0.000185
    10  O    0.022049  -0.032116   0.009933  -0.077843  -0.001584  -0.089670
    11  H    0.002766   0.000369  -0.000221  -0.001078   0.000138  -0.001263
    12  H    0.002874   0.000709  -0.000421  -0.002177   0.000243  -0.001830
               7          8          9         10         11         12
     1  C    0.018179   0.081560   0.034668   0.022049   0.002766   0.002874
     2  C   -0.061117  -0.033497   0.038300  -0.032116   0.000369   0.000709
     3  H   -0.002768  -0.084725   0.002459   0.009933  -0.000221  -0.000421
     4  O   -0.028548   0.024341  -0.001095  -0.077843  -0.001078  -0.002177
     5  C    0.321942  -0.109464   0.174412  -0.001584   0.000138   0.000243
     6  H    0.006675   0.003296   0.000185  -0.089670  -0.001263  -0.001830
     7  O    8.524740  -0.001274  -0.057852   0.000196  -0.000042  -0.000071
     8  H   -0.001274   1.625232  -0.051261  -0.000725  -0.000028  -0.000005
     9  H   -0.057852  -0.051261   0.981457  -0.000072   0.000011   0.000013
    10  O    0.000196  -0.000725  -0.000072   7.944489   0.353912   0.356141
    11  H   -0.000042  -0.000028   0.000011   0.353912   0.484881  -0.040830
    12  H   -0.000071  -0.000005   0.000013   0.356141  -0.040830   0.484879
 Mulliken charges:
               1
     1  C    1.005023
     2  C    0.440517
     3  H   -0.404348
     4  O   -0.757759
     5  C    0.734730
     6  H    0.359425
     7  O   -0.720059
     8  H   -0.453450
     9  H   -0.121226
    10  O   -0.484711
    11  H    0.201382
    12  H    0.200475
 Sum of Mulliken charges =  -0.00000
 Mulliken charges with hydrogens summed into heavy atoms:
               1
     1  C    0.600675
     2  C   -0.012933
     4  O   -0.398333
     5  C    0.613504
     7  O   -0.720059
    10  O   -0.082854
 Electronic spatial extent (au):  <R**2>=            952.4270
 Charge=             -0.0000 electrons
 Dipole moment (field-independent basis, Debye):
    X=             -5.8250    Y=              3.2062    Z=              0.0454  Tot=              6.6493
 Quadrupole moment (field-independent basis, Debye-Ang):
   XX=            -13.7167   YY=            -39.3306   ZZ=            -35.2855
   XY=              9.3882   XZ=             -0.5597   YZ=             -0.2058
 Traceless Quadrupole moment (field-independent basis, Debye-Ang):
   XX=             15.7275   YY=             -9.8863   ZZ=             -5.8412
   XY=              9.3882   XZ=             -0.5597   YZ=             -0.2058
 Octapole moment (field-independent basis, Debye-Ang**2):
  XXX=           -109.0036  YYY=              1.6194  ZZZ=              0.2602  XYY=            -14.3531
  XXY=             -5.3479  XXZ=             -1.4910  XZZ=            -16.2550  YZZ=             -5.3705
  YYZ=              0.5973  XYZ=              2.2583
 Hexadecapole moment (field-independent basis, Debye-Ang**3):
 XXXX=           -482.8371 YYYY=           -180.8533 ZZZZ=            -39.3086 XXXY=            106.7057
 XXXZ=              1.9121 YYYX=             10.9372 YYYZ=              0.8715 ZZZX=             -1.6809
 ZZZY=             -0.9793 XXYY=           -200.5010 XXZZ=           -126.0949 YYZZ=            -40.1234
 XXYZ=             -5.3472 YYXZ=             -0.9536 ZZXY=              1.4121
 N-N= 2.183521056265D+02 E-N=-1.242559251102D+03  KE= 3.411031520664D+02
 Calling FoFJK, ICntrl=  10002127 FMM=F ISym2X=0 I1Cent= 0 IOpClX= 0 NMat=1 NMatS=1 NMatT=0.
 ***** Axes restored to original set *****
 -------------------------------------------------------------------
 Center     Atomic                   Forces (Hartrees/Bohr)
 Number     Number              X              Y              Z
 -------------------------------------------------------------------
      1        6           0.021100240    0.028244664    0.024381993
      2        6          -0.017473600   -0.000482856   -0.031073282
      3        1          -0.000195036   -0.011103737    0.005370411
      4        8          -0.004916540   -0.007892885   -0.001953014
      5        6           0.004345063   -0.011272508    0.014330915
      6        1          -0.003156342   -0.000818298   -0.008654594
      7        8           0.001245168    0.014916891   -0.003659292
      8        1           0.001395242   -0.007048212    0.004075893
      9        1          -0.004228223   -0.004416335   -0.007264488
     10        8           0.008296326    0.007154572    0.014771892
     11        1          -0.005332719   -0.002984176   -0.004361872
     12        1          -0.001079579   -0.004297119   -0.005964562
 -------------------------------------------------------------------
 Cartesian Forces:  Max     0.031073282 RMS     0.011345011

 GradGradGradGradGradGradGradGradGradGradGradGradGradGradGradGradGradGrad
 Berny optimization.
 FormGI is forming the generalized inverse of G from B-inverse, IUseBI=4.
 Internal  Forces:  Max     0.028853039 RMS     0.006781391
 Search for a local minimum.
 Step number   1 out of a maximum of   49
 All quantities printed in internal units (Hartrees-Bohrs-Radians)
 Mixed Optimization -- RFO/linear search
 Second derivative matrix not updated -- first step.
 ITU=  0
     Eigenvalues ---    0.00230   0.00230   0.00230   0.00981   0.00982
     Eigenvalues ---    0.01802   0.02005   0.02170   0.02714   0.02939
     Eigenvalues ---    0.07622   0.15089   0.16000   0.16000   0.16000
     Eigenvalues ---    0.16000   0.16000   0.22000   0.22000   0.22000
     Eigenvalues ---    0.33350   0.34145   0.35566   0.35573   0.50059
     Eigenvalues ---    0.52184   0.52597   0.52650   0.58180   0.94393
 RFO step:  Lambda=-5.25908477D-03 EMin= 2.30000000D-03
 Linear search not attempted -- first point.
 Maximum step size (   0.300) exceeded in Quadratic search.
    -- Step size scaled by   0.993
 Iteration  1 RMS(Cart)=  0.12349239 RMS(Int)=  0.01399031
 Iteration  2 RMS(Cart)=  0.05084276 RMS(Int)=  0.00091320
 Iteration  3 RMS(Cart)=  0.00154471 RMS(Int)=  0.00014638
 Iteration  4 RMS(Cart)=  0.00000037 RMS(Int)=  0.00014638
 Variable       Old X    -DE/DX   Delta X   Delta X   Delta X     New X
                                 (Linear)    (Quad)   (Total)
    R1        2.52411   0.02885   0.00000   0.04882   0.04882   2.57293
    R2        2.04755   0.01030   0.00000   0.02835   0.02835   2.07590
    R3        2.57723  -0.01074   0.00000  -0.02024  -0.02024   2.55699
    R4        2.80385  -0.00354   0.00000  -0.01015  -0.01015   2.79370
    R5        2.04765   0.00645   0.00000   0.01776   0.01776   2.06541
    R6        1.86503  -0.00438   0.00000  -0.00860  -0.00860   1.85643
    R7        2.30972   0.01529   0.00000   0.01600   0.01600   2.32572
    R8        2.08440   0.00941   0.00000   0.02760   0.02760   2.11201
    R9        3.18553   0.00466   0.00000   0.05686   0.05685   3.24239
   R10        1.83981  -0.00623   0.00000  -0.01164  -0.01164   1.82817
   R11        1.84031  -0.00628   0.00000  -0.01173  -0.01173   1.82858
    A1        2.13987  -0.00477   0.00000  -0.03219  -0.03220   2.10767
    A2        2.18114  -0.00436   0.00000  -0.01924  -0.01925   2.16189
    A3        1.96213   0.00913   0.00000   0.05136   0.05136   2.01349
    A4        2.18971   0.00177   0.00000   0.00777   0.00776   2.19747
    A5        2.09047  -0.00609   0.00000  -0.03522  -0.03523   2.05524
    A6        2.00297   0.00432   0.00000   0.02736   0.02735   2.03032
    A7        1.89993  -0.00260   0.00000  -0.01560  -0.01560   1.88432
    A8        2.19905   0.00152   0.00000   0.00682   0.00639   2.20544
    A9        1.97927   0.00050   0.00000   0.00440   0.00397   1.98324
   A10        2.10481  -0.00201   0.00000  -0.01065  -0.01108   2.09372
   A11        2.21510  -0.00300   0.00000  -0.01941  -0.01934   2.19576
   A12        2.13813  -0.00220   0.00000  -0.01618  -0.01621   2.12193
   A13        1.78911   0.00475   0.00000   0.02763   0.02773   1.81684
   A14        3.23220  -0.00184   0.00000  -0.26947  -0.26958   2.96263
   A15        3.15791   0.00019   0.00000   0.02546   0.02546   3.18337
    D1        3.14141   0.00040   0.00000   0.01368   0.01355  -3.12823
    D2       -0.00991   0.00014   0.00000   0.00279   0.00283  -0.00708
    D3       -0.01126   0.00018   0.00000   0.00637   0.00634  -0.00492
    D4        3.12060  -0.00008   0.00000  -0.00452  -0.00438   3.11622
    D5        3.09393   0.00092   0.00000   0.03227   0.03238   3.12631
    D6       -0.05775   0.00064   0.00000   0.02519   0.02508  -0.03267
    D7       -0.16709   0.00095   0.00000   0.06658   0.06648  -0.10061
    D8        2.98651   0.00011   0.00000   0.01169   0.01161   2.99813
    D9        2.98380   0.00124   0.00000   0.07729   0.07737   3.06118
   D10       -0.14578   0.00040   0.00000   0.02241   0.02250  -0.12328
   D11        1.90997  -0.00092   0.00000  -0.06102  -0.06080   1.84918
   D12       -1.91864   0.00092   0.00000   0.06099   0.06077  -1.85787
   D13        2.59663  -0.00098   0.00000  -0.01592  -0.01567   2.58095
         Item               Value     Threshold  Converged?
 Maximum Force            0.028853     0.000450     NO 
 RMS     Force            0.006781     0.000300     NO 
 Maximum Displacement     0.410865     0.001800     NO 
 RMS     Displacement     0.169584     0.001200     NO 
 Predicted change in Energy=-2.919816D-03
 GradGradGradGradGradGradGradGradGradGradGradGradGradGradGradGradGradGrad

                          Input orientation:                          
 ---------------------------------------------------------------------
 Center     Atomic      Atomic             Coordinates (Angstroms)
 Number     Number       Type             X           Y           Z
 ---------------------------------------------------------------------
      1          6           0       -0.205398    1.197378    0.195277
      2          6           0       -0.931397    0.608918   -0.794882
      3          1           0        0.137662    0.615936    1.061864
      4          8           0        0.162296    2.499547    0.188650
      5          6           0       -1.435318    1.276117   -2.014090
      6          1           0        0.662188    2.677434    1.015415
      7          8           0       -1.362396    2.477373   -2.271635
      8          1           0       -1.152482   -0.457162   -0.699116
      9          1           0       -1.881311    0.571752   -2.758436
     10          8           0        1.427075    2.707333    2.550998
     11          1           0        2.379293    2.775209    2.707802
     12          1           0        1.030708    3.165229    3.305688
 ---------------------------------------------------------------------
                    Distance matrix (angstroms):
                    1          2          3          4          5
     1  C    0.000000
     2  C    1.361534   0.000000
     3  H    1.098516   2.142531   0.000000
     4  O    1.353102   2.395408   2.076319   0.000000
     5  C    2.529863   1.478364   3.517328   2.983490   0.000000
     6  H    1.901551   3.177333   2.127689   0.982383   3.942223
     7  O    3.010430   2.420266   4.102114   2.894509   1.230717
     8  H    2.105804   1.092966   2.432501   3.355428   2.193948
     9  H    3.453189   2.181574   4.321215   4.071614   1.117627
    10  O    3.239498   4.600070   2.872985   2.687662   5.575096
    11  H    3.934839   5.284153   3.520863   3.367075   6.252583
    12  H    3.882661   5.215291   3.511577   3.303513   6.160363
                    6          7          8          9         10
     6  H    0.000000
     7  O    3.865703   0.000000
     8  H    4.007285   3.335922   0.000000
     9  H    5.014502   2.034119   2.414674   0.000000
    10  O    1.715798   5.576004   5.218370   6.610311   0.000000
    11  H    2.412920   6.235682   5.876117   7.272395   0.967426
    12  H    2.370465   6.107915   5.824646   7.209687   0.967643
                   11         12
    11  H    0.000000
    12  H    1.525865   0.000000
 Stoichiometry    C3H6O3
 Framework group  C1[X(C3H6O3)]
 Deg. of freedom    30
 Full point group                 C1      NOp   1
 Largest Abelian subgroup         C1      NOp   1
 Largest concise Abelian subgroup C1      NOp   1
                         Standard orientation:                         
 ---------------------------------------------------------------------
 Center     Atomic      Atomic             Coordinates (Angstroms)
 Number     Number       Type             X           Y           Z
 ---------------------------------------------------------------------
      1          6           0       -0.169604    0.731371   -0.006339
      2          6           0        1.154122    1.048569    0.023789
      3          1           0       -0.936271    1.518015    0.005975
      4          8           0       -0.640083   -0.535551   -0.073008
      5          6           0        2.276878    0.087224   -0.004411
      6          1           0       -1.621611   -0.494929   -0.067676
      7          8           0        2.188441   -1.139488    0.040551
      8          1           0        1.423252    2.107464    0.053563
      9          1           0        3.278061    0.570887   -0.117518
     10          8           0       -3.294167   -0.123338    0.024175
     11          1           0       -3.930386   -0.194208   -0.701164
     12          1           0       -3.814955   -0.323200    0.814851
 ---------------------------------------------------------------------
 Rotational constants (GHZ):           9.3736724           1.3195725           1.1637323
 Standard basis: Aug-CC-pVDZ (5D, 7F)
 There are   204 symmetry adapted cartesian basis functions of A   symmetry.
 There are   192 symmetry adapted basis functions of A   symmetry.
   192 basis functions,   324 primitive gaussians,   204 cartesian basis functions
    24 alpha electrons       24 beta electrons
       nuclear repulsion energy       218.4897393465 Hartrees.
 NAtoms=   12 NActive=   12 NUniq=   12 SFac= 1.00D+00 NAtFMM=   60 NAOKFM=F Big=F
 Integral buffers will be    131072 words long.
 Raffenetti 1 integral format.
 Two-electron integral symmetry is turned on.
 One-electron integrals computed using PRISM.
 NBasis=   192 RedAO= T EigKep=  3.08D-05  NBF=   192
 NBsUse=   192 1.00D-06 EigRej= -1.00D+00 NBFU=   192
 Initial guess from the checkpoint file:  "/scr/Gau-80908.chk"
 B after Tr=     0.000000    0.000000   -0.000000
         Rot=    0.999896    0.006402    0.000082   -0.012894 Ang=   1.65 deg.
 ExpMin= 2.97D-02 ExpMax= 1.17D+04 ExpMxC= 4.01D+02 IAcc=3 IRadAn=         5 AccDes= 0.00D+00
 Harris functional with IExCor=  205 and IRadAn=       5 diagonalized for initial guess.
 HarFok:  IExCor=  205 AccDes= 0.00D+00 IRadAn=         5 IDoV= 1 UseB2=F ITyADJ=14
 ICtDFT=  3500011 ScaDFX=  1.000000  1.000000  1.000000  1.000000
 FoFCou: FMM=F IPFlag=           0 FMFlag=      100000 FMFlg1=           0
         NFxFlg=           0 DoJE=T BraDBF=F KetDBF=T FulRan=T
         wScrn=  0.000000 ICntrl=       500 IOpCl=  0 I1Cent=   200000004 NGrid=           0
         NMat0=    1 NMatS0=      1 NMatT0=    0 NMatD0=    1 NMtDS0=    0 NMtDT0=    0
 Petite list used in FoFCou.
 Keep R1 ints in memory in canonical form, NReq=180606307.
 Requested convergence on RMS density matrix=1.00D-08 within 128 cycles.
 Requested convergence on MAX density matrix=1.00D-06.
 Requested convergence on             energy=1.00D-06.
 No special actions if energy rises.
 SCF Done:  E(RHF) =  -341.703728617     A.U. after   14 cycles
            NFock= 14  Conv=0.49D-08     -V/T= 2.0021
 ExpMin= 2.97D-02 ExpMax= 1.17D+04 ExpMxC= 4.01D+02 IAcc=3 IRadAn=         5 AccDes= 0.00D+00
 HarFok:  IExCor=  205 AccDes= 0.00D+00 IRadAn=         5 IDoV=-2 UseB2=F ITyADJ=14
 ICtDFT= 12500011 ScaDFX=  1.000000  1.000000  1.000000  1.000000
 Range of M.O.s used for correlation:     7   192
 NBasis=   192 NAE=    24 NBE=    24 NFC=     6 NFV=     0
 NROrb=    186 NOA=    18 NOB=    18 NVA=   168 NVB=   168

 **** Warning!!: The largest alpha MO coefficient is  0.46309047D+02

 Fully direct method using O(ONN) memory.
 JobTyp=1 Pass  1:  I=   7 to  24 NPSUse= 40 ParTrn=T ParDer=T DoDerP=T.
 Spin components of T(2) and E(2):
     alpha-alpha T2 =       0.4270558475D-01 E2=     -0.1340783270D+00
     alpha-beta  T2 =       0.2360903068D+00 E2=     -0.7582986215D+00
     beta-beta   T2 =       0.4270558475D-01 E2=     -0.1340783270D+00
 ANorm=    0.1149565777D+01
 E2 =    -0.1026455276D+01 EUMP2 =    -0.34273018389205D+03
          IDoAtm=111111111111
          Differentiating once with respect to electric field.
                with respect to dipole field.
          Differentiating once with respect to nuclear coordinates.
 Keep R1 ints in memory in canonical form, NReq=180623649.
          There are     1 degrees of freedom in the 1st order CPHF.  IDoFFX=0 NUNeed=     1.
 LinEq1:  Iter=  0 NonCon=     1 RMS=4.82D-03 Max=1.22D-01 NDo=     1
 AX will form     1 AO Fock derivatives at one time.
 LinEq1:  Iter=  1 NonCon=     1 RMS=1.49D-03 Max=1.87D-02 NDo=     1
 LinEq1:  Iter=  2 NonCon=     1 RMS=5.62D-04 Max=1.17D-02 NDo=     1
 LinEq1:  Iter=  3 NonCon=     1 RMS=2.01D-04 Max=3.37D-03 NDo=     1
 LinEq1:  Iter=  4 NonCon=     1 RMS=6.85D-05 Max=1.17D-03 NDo=     1
 LinEq1:  Iter=  5 NonCon=     1 RMS=2.43D-05 Max=3.99D-04 NDo=     1
 LinEq1:  Iter=  6 NonCon=     1 RMS=8.83D-06 Max=2.39D-04 NDo=     1
 LinEq1:  Iter=  7 NonCon=     1 RMS=2.80D-06 Max=2.86D-05 NDo=     1
 LinEq1:  Iter=  8 NonCon=     1 RMS=1.09D-06 Max=3.15D-05 NDo=     1
 LinEq1:  Iter=  9 NonCon=     1 RMS=3.45D-07 Max=3.67D-06 NDo=     1
 LinEq1:  Iter= 10 NonCon=     1 RMS=7.70D-08 Max=7.26D-07 NDo=     1
 LinEq1:  Iter= 11 NonCon=     1 RMS=2.71D-08 Max=4.59D-07 NDo=     1
 LinEq1:  Iter= 12 NonCon=     1 RMS=9.01D-09 Max=8.55D-08 NDo=     1
 LinEq1:  Iter= 13 NonCon=     1 RMS=2.73D-09 Max=4.60D-08 NDo=     1
 LinEq1:  Iter= 14 NonCon=     1 RMS=5.63D-10 Max=1.57D-08 NDo=     1
 LinEq1:  Iter= 15 NonCon=     1 RMS=1.39D-10 Max=3.52D-09 NDo=     1
 LinEq1:  Iter= 16 NonCon=     0 RMS=5.14D-11 Max=8.16D-10 NDo=     1
 Linear equations converged to 1.000D-10 1.000D-09 after    16 iterations.
 End of Minotr F.D. properties file   721 does not exist.
 End of Minotr F.D. properties file   722 does not exist.
 End of Minotr F.D. properties file   788 does not exist.
 Calling FoFJK, ICntrl=  10002127 FMM=F ISym2X=0 I1Cent= 0 IOpClX= 0 NMat=1 NMatS=1 NMatT=0.
 ***** Axes restored to original set *****
 -------------------------------------------------------------------
 Center     Atomic                   Forces (Hartrees/Bohr)
 Number     Number              X              Y              Z
 -------------------------------------------------------------------
      1        6           0.004424237    0.007649969    0.003156574
      2        6          -0.005150235    0.000528816   -0.006888711
      3        1          -0.000986365   -0.000745364   -0.000996330
      4        8          -0.002094460   -0.004086576    0.000154730
      5        6           0.005628867   -0.005914572    0.002681735
      6        1          -0.001997395   -0.001856598   -0.003598942
      7        8          -0.000780365    0.003603027   -0.000217892
      8        1           0.001172495    0.000034753    0.001689503
      9        1          -0.001990574    0.000470330    0.000626439
     10        8           0.003340128    0.000962193    0.006773907
     11        1          -0.000519710   -0.000348256   -0.001875416
     12        1          -0.001046623   -0.000297724   -0.001505597
 -------------------------------------------------------------------
 Cartesian Forces:  Max     0.007649969 RMS     0.003197090

 GradGradGradGradGradGradGradGradGradGradGradGradGradGradGradGradGradGrad
 Berny optimization.
 Using GEDIIS/GDIIS optimizer.
 FormGI is forming the generalized inverse of G from B-inverse, IUseBI=4.
 Internal  Forces:  Max     0.006044739 RMS     0.001823434
 Search for a local minimum.
 Step number   2 out of a maximum of   49
 All quantities printed in internal units (Hartrees-Bohrs-Radians)
 Mixed Optimization -- RFO/linear search
 Update second derivatives using D2CorX and points    1    2
 DE= -2.75D-03 DEPred=-2.92D-03 R= 9.42D-01
 TightC=F SS=  1.41D+00  RLast= 3.32D-01 DXNew= 5.0454D-01 9.9709D-01
 Trust test= 9.42D-01 RLast= 3.32D-01 DXMaxT set to 5.05D-01
 ITU=  1  0
 Use linear search instead of GDIIS.
     Eigenvalues ---    0.00230   0.00230   0.00343   0.00926   0.01140
     Eigenvalues ---    0.01806   0.01977   0.02157   0.02707   0.02931
     Eigenvalues ---    0.06684   0.13458   0.15373   0.15999   0.16000
     Eigenvalues ---    0.16000   0.16072   0.21985   0.22002   0.22221
     Eigenvalues ---    0.32299   0.33982   0.35564   0.36403   0.47807
     Eigenvalues ---    0.50217   0.52619   0.52760   0.57293   0.92715
 RFO step:  Lambda=-2.83823346D-03 EMin= 2.29914947D-03
 Quartic linear search produced a step of  0.06068.
 Iteration  1 RMS(Cart)=  0.14409986 RMS(Int)=  0.02596752
 Iteration  2 RMS(Cart)=  0.09154322 RMS(Int)=  0.00452695
 Iteration  3 RMS(Cart)=  0.00655469 RMS(Int)=  0.00285250
 Iteration  4 RMS(Cart)=  0.00000575 RMS(Int)=  0.00285250
 Iteration  5 RMS(Cart)=  0.00000002 RMS(Int)=  0.00285250
 Variable       Old X    -DE/DX   Delta X   Delta X   Delta X     New X
                                 (Linear)    (Quad)   (Total)
    R1        2.57293   0.00268   0.00296   0.03736   0.04032   2.61325
    R2        2.07590  -0.00070   0.00172   0.01647   0.01819   2.09409
    R3        2.55699  -0.00604  -0.00123  -0.02619  -0.02742   2.52957
    R4        2.79370  -0.00435  -0.00062  -0.02076  -0.02138   2.77233
    R5        2.06541  -0.00012   0.00108   0.01130   0.01238   2.07778
    R6        1.85643  -0.00056  -0.00052  -0.00690  -0.00729   1.84915
    R7        2.32572   0.00352   0.00097   0.01473   0.01570   2.34142
    R8        2.11201   0.00008   0.00168   0.01842   0.02009   2.13210
    R9        3.24239   0.00383   0.00345   0.08993   0.09331   3.33570
   R10        1.82817  -0.00084  -0.00071  -0.00945  -0.01016   1.81801
   R11        1.82858  -0.00089  -0.00071  -0.00961  -0.01032   1.81826
    A1        2.10767  -0.00180  -0.00195  -0.03253  -0.03449   2.07318
    A2        2.16189   0.00066  -0.00117  -0.00926  -0.01043   2.15146
    A3        2.01349   0.00115   0.00312   0.04191   0.04501   2.05850
    A4        2.19747   0.00017   0.00047   0.00591   0.00638   2.20384
    A5        2.05524  -0.00219  -0.00214  -0.03771  -0.03986   2.01538
    A6        2.03032   0.00202   0.00166   0.03173   0.03338   2.06369
    A7        1.88432  -0.00055  -0.00095  -0.01389  -0.01484   1.86948
    A8        2.20544  -0.00025   0.00039   0.00503  -0.00278   2.20266
    A9        1.98324   0.00058   0.00024   0.00956   0.00156   1.98480
   A10        2.09372  -0.00021  -0.00067  -0.00561  -0.01466   2.07907
   A11        2.19576  -0.00131  -0.00117  -0.02083  -0.02322   2.17253
   A12        2.12193  -0.00092  -0.00098  -0.01652  -0.01662   2.10530
   A13        1.81684   0.00219   0.00168   0.03388   0.03259   1.84943
   A14        2.96263   0.00197  -0.01636   0.35936   0.34529   3.30792
   A15        3.18337  -0.00037   0.00155  -0.07546  -0.07385   3.10953
    D1       -3.12823   0.00009   0.00082   0.01069   0.01151  -3.11671
    D2       -0.00708   0.00014   0.00017   0.00624   0.00652  -0.00056
    D3       -0.00492   0.00045   0.00038   0.01970   0.01997   0.01505
    D4        3.11622   0.00050  -0.00027   0.01525   0.01498   3.13120
    D5        3.12631   0.00026   0.00196   0.03115   0.03300  -3.12388
    D6       -0.03267   0.00057   0.00152   0.03904   0.04064   0.00797
    D7       -0.10061  -0.00106   0.00403  -0.06147  -0.05679  -0.15740
    D8        2.99813   0.00204   0.00070   0.18445   0.18441  -3.10065
    D9        3.06118  -0.00106   0.00469  -0.05636  -0.05091   3.01027
   D10       -0.12328   0.00204   0.00137   0.18957   0.19029   0.06701
   D11        1.84918   0.00032  -0.00369   0.09399   0.08464   1.93382
   D12       -1.85787  -0.00026   0.00369  -0.08161  -0.07234  -1.93021
   D13        2.58095  -0.00015  -0.00095  -0.00791  -0.01436   2.56659
         Item               Value     Threshold  Converged?
 Maximum Force            0.006045     0.000450     NO 
 RMS     Force            0.001823     0.000300     NO 
 Maximum Displacement     0.537072     0.001800     NO 
 RMS     Displacement     0.220943     0.001200     NO 
 Predicted change in Energy=-1.777947D-03
 GradGradGradGradGradGradGradGradGradGradGradGradGradGradGradGradGradGrad

                          Input orientation:                          
 ---------------------------------------------------------------------
 Center     Atomic      Atomic             Coordinates (Angstroms)
 Number     Number       Type             X           Y           Z
 ---------------------------------------------------------------------
      1          6           0       -0.270275    1.058611    0.218628
      2          6           0       -0.954521    0.562206   -0.875776
      3          1           0       -0.016570    0.368161    1.047421
      4          8           0        0.114517    2.336163    0.326447
      5          6           0       -1.345838    1.318095   -2.070659
      6          1           0        0.588690    2.423184    1.177977
      7          8           0       -1.264389    2.545460   -2.219417
      8          1           0       -1.198566   -0.509101   -0.834790
      9          1           0       -1.935018    0.712285   -2.818208
     10          8           0        1.521136    2.850255    2.614639
     11          1           0        2.460171    3.059416    2.612115
     12          1           0        1.131583    3.390330    3.309158
 ---------------------------------------------------------------------
                    Distance matrix (angstroms):
                    1          2          3          4          5
     1  C    0.000000
     2  C    1.382871   0.000000
     3  H    1.108144   2.148509   0.000000
     4  O    1.338592   2.394809   2.100004   0.000000
     5  C    2.542637   1.467052   3.520192   2.985836   0.000000
     6  H    1.876228   3.172168   2.146277   0.978527   3.939195
     7  O    3.023747   2.415510   4.119455   2.902863   1.239027
     8  H    2.104551   1.099515   2.389440   3.341884   2.210815
     9  H    3.480472   2.181040   4.329197   4.089796   1.128259
    10  O    3.487121   4.852530   3.313835   2.734719   5.702550
    11  H    4.145761   5.482843   3.978111   3.354022   6.280627
    12  H    4.117462   5.464778   3.945531   3.322989   6.274887
                    6          7          8          9         10
     6  H    0.000000
     7  O    3.871840   0.000000
     8  H    3.980429   3.354380   0.000000
     9  H    5.026507   2.041770   2.442967   0.000000
    10  O    1.765175   5.587500   5.529974   6.784669   0.000000
    11  H    2.442127   6.122108   6.164562   7.369879   0.962050
    12  H    2.402506   6.084376   6.148777   7.356669   0.962179
                   11         12
    11  H    0.000000
    12  H    1.536398   0.000000
 Stoichiometry    C3H6O3
 Framework group  C1[X(C3H6O3)]
 Deg. of freedom    30
 Full point group                 C1      NOp   1
 Largest Abelian subgroup         C1      NOp   1
 Largest concise Abelian subgroup C1      NOp   1
                         Standard orientation:                         
 ---------------------------------------------------------------------
 Center     Atomic      Atomic             Coordinates (Angstroms)
 Number     Number       Type             X           Y           Z
 ---------------------------------------------------------------------
      1          6           0       -0.075916    0.862830    0.031627
      2          6           0        1.296700    1.028625    0.003851
      3          1           0       -0.721504    1.762833    0.066172
      4          8           0       -0.671430   -0.335766    0.007924
      5          6           0        2.298674   -0.040271   -0.072001
      6          1           0       -1.637054   -0.177812    0.019596
      7          8           0        2.081736   -1.255562    0.033792
      8          1           0        1.647550    2.070562    0.018151
      9          1           0        3.363146    0.332328   -0.039808
     10          8           0       -3.401810   -0.184042   -0.018314
     11          1           0       -3.929210   -0.431039   -0.784070
     12          1           0       -3.907645   -0.461019    0.751884
 ---------------------------------------------------------------------
 Rotational constants (GHZ):           8.6744717           1.2803333           1.1220783
 Standard basis: Aug-CC-pVDZ (5D, 7F)
 There are   204 symmetry adapted cartesian basis functions of A   symmetry.
 There are   192 symmetry adapted basis functions of A   symmetry.
   192 basis functions,   324 primitive gaussians,   204 cartesian basis functions
    24 alpha electrons       24 beta electrons
       nuclear repulsion energy       216.6105718324 Hartrees.
 NAtoms=   12 NActive=   12 NUniq=   12 SFac= 1.00D+00 NAtFMM=   60 NAOKFM=F Big=F
 Integral buffers will be    131072 words long.
 Raffenetti 1 integral format.
 Two-electron integral symmetry is turned on.
 One-electron integrals computed using PRISM.
 NBasis=   192 RedAO= T EigKep=  3.51D-05  NBF=   192
 NBsUse=   192 1.00D-06 EigRej= -1.00D+00 NBFU=   192
 Initial guess from the checkpoint file:  "/scr/Gau-80908.chk"
 B after Tr=     0.000000    0.000000    0.000000
         Rot=    0.999899    0.001119    0.000339    0.014130 Ang=   1.62 deg.
 ExpMin= 2.97D-02 ExpMax= 1.17D+04 ExpMxC= 4.01D+02 IAcc=3 IRadAn=         5 AccDes= 0.00D+00
 Harris functional with IExCor=  205 and IRadAn=       5 diagonalized for initial guess.
 HarFok:  IExCor=  205 AccDes= 0.00D+00 IRadAn=         5 IDoV= 1 UseB2=F ITyADJ=14
 ICtDFT=  3500011 ScaDFX=  1.000000  1.000000  1.000000  1.000000
 FoFCou: FMM=F IPFlag=           0 FMFlag=      100000 FMFlg1=           0
         NFxFlg=           0 DoJE=T BraDBF=F KetDBF=T FulRan=T
         wScrn=  0.000000 ICntrl=       500 IOpCl=  0 I1Cent=   200000004 NGrid=           0
         NMat0=    1 NMatS0=      1 NMatT0=    0 NMatD0=    1 NMtDS0=    0 NMtDT0=    0
 Petite list used in FoFCou.
 Keep R1 ints in memory in canonical form, NReq=180602899.
 Requested convergence on RMS density matrix=1.00D-08 within 128 cycles.
 Requested convergence on MAX density matrix=1.00D-06.
 Requested convergence on             energy=1.00D-06.
 No special actions if energy rises.
 SCF Done:  E(RHF) =  -341.700597576     A.U. after   15 cycles
            NFock= 15  Conv=0.46D-08     -V/T= 2.0023
 ExpMin= 2.97D-02 ExpMax= 1.17D+04 ExpMxC= 4.01D+02 IAcc=3 IRadAn=         5 AccDes= 0.00D+00
 HarFok:  IExCor=  205 AccDes= 0.00D+00 IRadAn=         5 IDoV=-2 UseB2=F ITyADJ=14
 ICtDFT= 12500011 ScaDFX=  1.000000  1.000000  1.000000  1.000000
 Range of M.O.s used for correlation:     7   192
 NBasis=   192 NAE=    24 NBE=    24 NFC=     6 NFV=     0
 NROrb=    186 NOA=    18 NOB=    18 NVA=   168 NVB=   168

 **** Warning!!: The largest alpha MO coefficient is  0.49081367D+02

 Fully direct method using O(ONN) memory.
 JobTyp=1 Pass  1:  I=   7 to  24 NPSUse= 40 ParTrn=T ParDer=T DoDerP=T.
 Spin components of T(2) and E(2):
     alpha-alpha T2 =       0.4291963516D-01 E2=     -0.1342392592D+00
     alpha-beta  T2 =       0.2374578523D+00 E2=     -0.7592292053D+00
     beta-beta   T2 =       0.4291963516D-01 E2=     -0.1342392592D+00
 ANorm=    0.1150346523D+01
 E2 =    -0.1027707724D+01 EUMP2 =    -0.34272830529936D+03
          IDoAtm=111111111111
          Differentiating once with respect to electric field.
                with respect to dipole field.
          Differentiating once with respect to nuclear coordinates.
 Keep R1 ints in memory in canonical form, NReq=180620398.
          There are     1 degrees of freedom in the 1st order CPHF.  IDoFFX=0 NUNeed=     1.
 LinEq1:  Iter=  0 NonCon=     1 RMS=4.87D-03 Max=1.23D-01 NDo=     1
 AX will form     1 AO Fock derivatives at one time.
 LinEq1:  Iter=  1 NonCon=     1 RMS=1.52D-03 Max=2.49D-02 NDo=     1
 LinEq1:  Iter=  2 NonCon=     1 RMS=5.81D-04 Max=1.23D-02 NDo=     1
 LinEq1:  Iter=  3 NonCon=     1 RMS=2.15D-04 Max=3.81D-03 NDo=     1
 LinEq1:  Iter=  4 NonCon=     1 RMS=7.42D-05 Max=1.24D-03 NDo=     1
 LinEq1:  Iter=  5 NonCon=     1 RMS=2.79D-05 Max=6.71D-04 NDo=     1
 LinEq1:  Iter=  6 NonCon=     1 RMS=1.01D-05 Max=2.64D-04 NDo=     1
 LinEq1:  Iter=  7 NonCon=     1 RMS=3.09D-06 Max=3.38D-05 NDo=     1
 LinEq1:  Iter=  8 NonCon=     1 RMS=1.16D-06 Max=2.98D-05 NDo=     1
 LinEq1:  Iter=  9 NonCon=     1 RMS=3.75D-07 Max=3.53D-06 NDo=     1
 LinEq1:  Iter= 10 NonCon=     1 RMS=8.21D-08 Max=9.45D-07 NDo=     1
 LinEq1:  Iter= 11 NonCon=     1 RMS=2.45D-08 Max=4.13D-07 NDo=     1
 LinEq1:  Iter= 12 NonCon=     1 RMS=9.83D-09 Max=2.49D-07 NDo=     1
 LinEq1:  Iter= 13 NonCon=     1 RMS=4.02D-09 Max=9.58D-08 NDo=     1
 LinEq1:  Iter= 14 NonCon=     1 RMS=9.51D-10 Max=1.80D-08 NDo=     1
 LinEq1:  Iter= 15 NonCon=     1 RMS=1.88D-10 Max=1.88D-09 NDo=     1
 LinEq1:  Iter= 16 NonCon=     0 RMS=6.20D-11 Max=7.56D-10 NDo=     1
 Linear equations converged to 1.000D-10 1.000D-09 after    16 iterations.
 End of Minotr F.D. properties file   721 does not exist.
 End of Minotr F.D. properties file   722 does not exist.
 End of Minotr F.D. properties file   788 does not exist.
 Calling FoFJK, ICntrl=  10002127 FMM=F ISym2X=0 I1Cent= 0 IOpClX= 0 NMat=1 NMatS=1 NMatT=0.
 ***** Axes restored to original set *****
 -------------------------------------------------------------------
 Center     Atomic                   Forces (Hartrees/Bohr)
 Number     Number              X              Y              Z
 -------------------------------------------------------------------
      1        6          -0.010661245   -0.013276345   -0.015465400
      2        6           0.013275931   -0.002130954    0.011865069
      3        1          -0.001409771    0.006241238   -0.003597785
      4        8           0.002200875   -0.001279300    0.005105318
      5        6          -0.022948827    0.005067318    0.004698695
      6        1           0.002112868    0.006400409   -0.000865123
      7        8           0.007191866   -0.006190834   -0.002079708
      8        1           0.000797392    0.004337682   -0.001806026
      9        1           0.009414569    0.001734058    0.000555603
     10        8          -0.002586974   -0.005270428   -0.000855972
     11        1           0.003055559    0.001682110    0.000027741
     12        1          -0.000442243    0.002685045    0.002417588
 -------------------------------------------------------------------
 Cartesian Forces:  Max     0.022948827 RMS     0.007124568

 GradGradGradGradGradGradGradGradGradGradGradGradGradGradGradGradGradGrad
 Berny optimization.
 Using GEDIIS/GDIIS optimizer.
 FormGI is forming the generalized inverse of G from B-inverse, IUseBI=4.
 Internal  Forces:  Max     0.015309682 RMS     0.004414859
 Search for a local minimum.
 Step number   3 out of a maximum of   49
 All quantities printed in internal units (Hartrees-Bohrs-Radians)
 Mixed Optimization -- RFO/linear search
 Update second derivatives using D2CorX and points    1    3    2
 DE=  1.88D-03 DEPred=-1.78D-03 R=-1.06D+00
 Trust test=-1.06D+00 RLast= 4.88D-01 DXMaxT set to 2.52D-01
 ITU= -1  1  0
 Use linear search instead of GDIIS.
     Eigenvalues ---    0.00230   0.00230   0.00373   0.00929   0.01922
     Eigenvalues ---    0.01940   0.02141   0.02677   0.02900   0.04680
     Eigenvalues ---    0.06128   0.13638   0.15135   0.15999   0.16000
     Eigenvalues ---    0.16044   0.16700   0.21993   0.22044   0.22360
     Eigenvalues ---    0.32707   0.33783   0.35568   0.36655   0.49473
     Eigenvalues ---    0.50241   0.52618   0.52736   0.58832   0.92842
 RFO step:  Lambda=-8.00866404D-04 EMin= 2.29995454D-03
 Quartic linear search produced a step of -0.70739.
 Iteration  1 RMS(Cart)=  0.04441170 RMS(Int)=  0.00355250
 Iteration  2 RMS(Cart)=  0.00359331 RMS(Int)=  0.00196587
 Iteration  3 RMS(Cart)=  0.00000743 RMS(Int)=  0.00196586
 Iteration  4 RMS(Cart)=  0.00000000 RMS(Int)=  0.00196586
 Variable       Old X    -DE/DX   Delta X   Delta X   Delta X     New X
                                 (Linear)    (Quad)   (Total)
    R1        2.61325  -0.01531  -0.02852   0.00806  -0.02046   2.59278
    R2        2.09409  -0.00690  -0.01287  -0.00148  -0.01435   2.07974
    R3        2.52957   0.00574   0.01940  -0.01356   0.00584   2.53541
    R4        2.77233  -0.00058   0.01512  -0.01619  -0.00106   2.77126
    R5        2.07778  -0.00447  -0.00876  -0.00011  -0.00886   2.06892
    R6        1.84915   0.00215   0.00515  -0.00178   0.00331   1.85246
    R7        2.34142  -0.00541  -0.01111   0.00584  -0.00526   2.33616
    R8        2.13210  -0.00622  -0.01421   0.00091  -0.01330   2.11880
    R9        3.33570   0.00109  -0.06601   0.06744   0.00146   3.33716
   R10        1.81801   0.00335   0.00719  -0.00242   0.00477   1.82278
   R11        1.81826   0.00343   0.00730  -0.00249   0.00482   1.82307
    A1        2.07318   0.00036   0.02440  -0.01637   0.00801   2.08120
    A2        2.15146   0.00411   0.00738   0.00440   0.01177   2.16323
    A3        2.05850  -0.00446  -0.03184   0.01211  -0.01974   2.03876
    A4        2.20384  -0.00143  -0.00451   0.00063  -0.00389   2.19995
    A5        2.01538   0.00233   0.02819  -0.01784   0.01035   2.02573
    A6        2.06369  -0.00089  -0.02361   0.01730  -0.00632   2.05737
    A7        1.86948   0.00694   0.01050   0.00553   0.01602   1.88551
    A8        2.20266   0.00006   0.00197   0.00305  -0.00060   2.20206
    A9        1.98480   0.00170  -0.00111   0.01311   0.00639   1.99120
   A10        2.07907   0.00071   0.01037   0.00304   0.00777   2.08684
   A11        2.17253  -0.00049   0.01643  -0.01641   0.00092   2.17346
   A12        2.10530   0.00088   0.01176  -0.01057   0.00059   2.10590
   A13        1.84943  -0.00114  -0.02305   0.01450  -0.00647   1.84296
   A14        3.30792  -0.00338  -0.24426   0.19088  -0.05504   3.25288
   A15        3.10953   0.00084   0.05224  -0.01076   0.04142   3.15095
    D1       -3.11671  -0.00099  -0.00814  -0.00542  -0.01361  -3.13032
    D2       -0.00056  -0.00070  -0.00461  -0.00115  -0.00584  -0.00640
    D3        0.01505  -0.00046  -0.01413   0.01161  -0.00244   0.01261
    D4        3.13120  -0.00017  -0.01060   0.01588   0.00533   3.13653
    D5       -3.12388  -0.00045  -0.02334   0.01233  -0.01088  -3.13476
    D6        0.00797   0.00010  -0.02875   0.02907   0.00018   0.00815
    D7       -0.15740   0.00773   0.04017   0.11306   0.15305  -0.00435
    D8       -3.10065  -0.00688  -0.13045  -0.00046  -0.13068   3.05185
    D9        3.01027   0.00739   0.03601   0.10915   0.14494  -3.12798
   D10        0.06701  -0.00722  -0.13461  -0.00437  -0.13879  -0.07178
   D11        1.93382   0.00020  -0.05987   0.04994  -0.00595   1.92786
   D12       -1.93021  -0.00026   0.05117  -0.04257   0.00462  -1.92559
   D13        2.56659  -0.00097   0.01016  -0.02242  -0.00830   2.55829
         Item               Value     Threshold  Converged?
 Maximum Force            0.015310     0.000450     NO 
 RMS     Force            0.004415     0.000300     NO 
 Maximum Displacement     0.144886     0.001800     NO 
 RMS     Displacement     0.044780     0.001200     NO 
 Predicted change in Energy=-8.032234D-04
 GradGradGradGradGradGradGradGradGradGradGradGradGradGradGradGradGradGrad

                          Input orientation:                          
 ---------------------------------------------------------------------
 Center     Atomic      Atomic             Coordinates (Angstroms)
 Number     Number       Type             X           Y           Z
 ---------------------------------------------------------------------
      1          6           0       -0.261009    1.071167    0.201109
      2          6           0       -0.972122    0.566629   -0.858258
      3          1           0        0.029430    0.398916    1.022655
      4          8           0        0.112345    2.355317    0.309185
      5          6           0       -1.422508    1.320579   -2.032694
      6          1           0        0.609989    2.457101    1.147597
      7          8           0       -1.233628    2.523961   -2.243613
      8          1           0       -1.204004   -0.502543   -0.816455
      9          1           0       -1.910223    0.690502   -2.821539
     10          8           0        1.513593    2.833170    2.617513
     11          1           0        2.455419    3.039902    2.642520
     12          1           0        1.113638    3.360364    3.319512
 ---------------------------------------------------------------------
                    Distance matrix (angstroms):
                    1          2          3          4          5
     1  C    0.000000
     2  C    1.372042   0.000000
     3  H    1.100552   2.137538   0.000000
     4  O    1.341683   2.395495   2.084087   0.000000
     5  C    2.530052   1.466489   3.506101   2.985106   0.000000
     6  H    1.890844   3.178115   2.142145   0.980278   3.941698
     7  O    3.005539   2.412208   4.096296   2.890824   1.236241
     8  H    2.097913   1.094827   2.390881   3.341737   2.202443
     9  H    3.464277   2.179416   4.315682   4.082135   1.121222
    10  O    3.477481   4.837041   3.266788   2.742301   5.703775
    11  H    4.149143   5.488221   3.934996   3.376848   6.312846
    12  H    4.105425   5.441426   3.901440   3.327879   6.264094
                    6          7          8          9         10
     6  H    0.000000
     7  O    3.860531   0.000000
     8  H    3.988429   3.346250   0.000000
     9  H    5.022587   2.037977   2.437718   0.000000
    10  O    1.765950   5.592260   5.504948   6.774719   0.000000
    11  H    2.445417   6.144067   6.156688   7.377971   0.964573
    12  H    2.405569   6.095702   6.115533   7.347409   0.964728
                   11         12
    11  H    0.000000
    12  H    1.536682   0.000000
 Stoichiometry    C3H6O3
 Framework group  C1[X(C3H6O3)]
 Deg. of freedom    30
 Full point group                 C1      NOp   1
 Largest Abelian subgroup         C1      NOp   1
 Largest concise Abelian subgroup C1      NOp   1
                         Standard orientation:                         
 ---------------------------------------------------------------------
 Center     Atomic      Atomic             Coordinates (Angstroms)
 Number     Number       Type             X           Y           Z
 ---------------------------------------------------------------------
      1          6           0       -0.074700    0.844485    0.002776
      2          6           0        1.284472    1.031901    0.007608
      3          1           0       -0.738459    1.722316   -0.004339
      4          8           0       -0.664834   -0.360435    0.007681
      5          6           0        2.301337   -0.024773    0.003729
      6          1           0       -1.635365   -0.223023   -0.003834
      7          8           0        2.088126   -1.242483   -0.000132
      8          1           0        1.626740    2.071805   -0.002342
      9          1           0        3.353461    0.352961   -0.082814
     10          8           0       -3.400546   -0.171140   -0.008504
     11          1           0       -3.952811   -0.418117   -0.759774
     12          1           0       -3.902183   -0.423156    0.776065
 ---------------------------------------------------------------------
 Rotational constants (GHZ):           8.8058407           1.2808657           1.1241762
 Standard basis: Aug-CC-pVDZ (5D, 7F)
 There are   204 symmetry adapted cartesian basis functions of A   symmetry.
 There are   192 symmetry adapted basis functions of A   symmetry.
   192 basis functions,   324 primitive gaussians,   204 cartesian basis functions
    24 alpha electrons       24 beta electrons
       nuclear repulsion energy       216.9505191408 Hartrees.
 NAtoms=   12 NActive=   12 NUniq=   12 SFac= 1.00D+00 NAtFMM=   60 NAOKFM=F Big=F
 Integral buffers will be    131072 words long.
 Raffenetti 1 integral format.
 Two-electron integral symmetry is turned on.
 One-electron integrals computed using PRISM.
 NBasis=   192 RedAO= T EigKep=  3.34D-05  NBF=   192
 NBsUse=   192 1.00D-06 EigRej= -1.00D+00 NBFU=   192
 Lowest energy guess from the checkpoint file:  "/scr/Gau-80908.chk"
 B after Tr=     0.000000   -0.000000    0.000000
         Rot=    0.999913    0.000852    0.000268    0.013158 Ang=   1.51 deg.
 B after Tr=     0.000000   -0.000000    0.000000
         Rot=    1.000000    0.000298   -0.000102   -0.000880 Ang=   0.11 deg.
 Keep R1 ints in memory in canonical form, NReq=180603207.
 Requested convergence on RMS density matrix=1.00D-08 within 128 cycles.
 Requested convergence on MAX density matrix=1.00D-06.
 Requested convergence on             energy=1.00D-06.
 No special actions if energy rises.
 SCF Done:  E(RHF) =  -341.703957086     A.U. after   14 cycles
            NFock= 14  Conv=0.57D-08     -V/T= 2.0021
 ExpMin= 2.97D-02 ExpMax= 1.17D+04 ExpMxC= 4.01D+02 IAcc=3 IRadAn=         5 AccDes= 0.00D+00
 HarFok:  IExCor=  205 AccDes= 0.00D+00 IRadAn=         5 IDoV=-2 UseB2=F ITyADJ=14
 ICtDFT= 12500011 ScaDFX=  1.000000  1.000000  1.000000  1.000000
 Range of M.O.s used for correlation:     7   192
 NBasis=   192 NAE=    24 NBE=    24 NFC=     6 NFV=     0
 NROrb=    186 NOA=    18 NOB=    18 NVA=   168 NVB=   168

 **** Warning!!: The largest alpha MO coefficient is  0.51244331D+02

 Fully direct method using O(ONN) memory.
 JobTyp=1 Pass  1:  I=   7 to  24 NPSUse= 40 ParTrn=T ParDer=T DoDerP=T.
 Spin components of T(2) and E(2):
     alpha-alpha T2 =       0.4275520553D-01 E2=     -0.1340696906D+00
     alpha-beta  T2 =       0.2363972801D+00 E2=     -0.7582652553D+00
     beta-beta   T2 =       0.4275520553D-01 E2=     -0.1340696906D+00
 ANorm=    0.1149742446D+01
 E2 =    -0.1026404637D+01 EUMP2 =    -0.34273036172225D+03
          IDoAtm=111111111111
          Differentiating once with respect to electric field.
                with respect to dipole field.
          Differentiating once with respect to nuclear coordinates.
 Keep R1 ints in memory in canonical form, NReq=180620431.
          There are     1 degrees of freedom in the 1st order CPHF.  IDoFFX=0 NUNeed=     1.
 LinEq1:  Iter=  0 NonCon=     1 RMS=4.84D-03 Max=1.23D-01 NDo=     1
 AX will form     1 AO Fock derivatives at one time.
 LinEq1:  Iter=  1 NonCon=     1 RMS=1.50D-03 Max=2.47D-02 NDo=     1
 LinEq1:  Iter=  2 NonCon=     1 RMS=5.72D-04 Max=1.22D-02 NDo=     1
 LinEq1:  Iter=  3 NonCon=     1 RMS=2.08D-04 Max=3.74D-03 NDo=     1
 LinEq1:  Iter=  4 NonCon=     1 RMS=7.15D-05 Max=1.22D-03 NDo=     1
 LinEq1:  Iter=  5 NonCon=     1 RMS=2.63D-05 Max=5.68D-04 NDo=     1
 LinEq1:  Iter=  6 NonCon=     1 RMS=9.60D-06 Max=2.60D-04 NDo=     1
 LinEq1:  Iter=  7 NonCon=     1 RMS=2.95D-06 Max=3.22D-05 NDo=     1
 LinEq1:  Iter=  8 NonCon=     1 RMS=1.13D-06 Max=3.07D-05 NDo=     1
 LinEq1:  Iter=  9 NonCon=     1 RMS=3.60D-07 Max=3.53D-06 NDo=     1
 LinEq1:  Iter= 10 NonCon=     1 RMS=7.97D-08 Max=8.82D-07 NDo=     1
 LinEq1:  Iter= 11 NonCon=     1 RMS=2.60D-08 Max=3.57D-07 NDo=     1
 LinEq1:  Iter= 12 NonCon=     1 RMS=1.01D-08 Max=2.35D-07 NDo=     1
 LinEq1:  Iter= 13 NonCon=     1 RMS=3.78D-09 Max=9.85D-08 NDo=     1
 LinEq1:  Iter= 14 NonCon=     1 RMS=8.79D-10 Max=1.95D-08 NDo=     1
 LinEq1:  Iter= 15 NonCon=     1 RMS=1.72D-10 Max=1.96D-09 NDo=     1
 LinEq1:  Iter= 16 NonCon=     0 RMS=5.40D-11 Max=6.65D-10 NDo=     1
 Linear equations converged to 1.000D-10 1.000D-09 after    16 iterations.
 End of Minotr F.D. properties file   721 does not exist.
 End of Minotr F.D. properties file   722 does not exist.
 End of Minotr F.D. properties file   788 does not exist.
 Calling FoFJK, ICntrl=  10002127 FMM=F ISym2X=0 I1Cent= 0 IOpClX= 0 NMat=1 NMatS=1 NMatT=0.
 ***** Axes restored to original set *****
 -------------------------------------------------------------------
 Center     Atomic                   Forces (Hartrees/Bohr)
 Number     Number              X              Y              Z
 -------------------------------------------------------------------
      1        6          -0.005181935   -0.004981859   -0.005722594
      2        6           0.001383377   -0.000036233    0.006981381
      3        1           0.000190378    0.001628894   -0.001149733
      4        8           0.001366166   -0.000449081    0.002909193
      5        6           0.006859694   -0.000764816   -0.006910403
      6        1           0.000222743    0.003520169   -0.001856677
      7        8          -0.002897219   -0.001342844    0.002026963
      8        1          -0.000134044    0.001428362   -0.000490601
      9        1          -0.001961833    0.001823267    0.003062161
     10        8          -0.000765043   -0.002951817    0.000698449
     11        1           0.000840238    0.000937829   -0.000133285
     12        1           0.000077479    0.001188129    0.000585147
 -------------------------------------------------------------------
 Cartesian Forces:  Max     0.006981381 RMS     0.002921205

 GradGradGradGradGradGradGradGradGradGradGradGradGradGradGradGradGradGrad
 Berny optimization.
 Using GEDIIS/GDIIS optimizer.
 FormGI is forming the generalized inverse of G from B-inverse, IUseBI=4.
 Internal  Forces:  Max     0.005697135 RMS     0.001743158
 Search for a local minimum.
 Step number   4 out of a maximum of   49
 All quantities printed in internal units (Hartrees-Bohrs-Radians)
 Mixed Optimization -- RFO/linear search
 Update second derivatives using D2CorX and points    1    3    2    4
 DE= -1.78D-04 DEPred=-8.03D-04 R= 2.21D-01
 Trust test= 2.21D-01 RLast= 3.72D-01 DXMaxT set to 2.52D-01
 ITU=  0 -1  1  0
 Use linear search instead of GDIIS.
     Eigenvalues ---    0.00230   0.00230   0.00563   0.00988   0.01842
     Eigenvalues ---    0.01947   0.02177   0.02695   0.02919   0.04952
     Eigenvalues ---    0.07470   0.13166   0.15156   0.16000   0.16005
     Eigenvalues ---    0.16038   0.16840   0.21974   0.22005   0.22333
     Eigenvalues ---    0.32904   0.33742   0.35572   0.36508   0.49793
     Eigenvalues ---    0.50982   0.52617   0.52712   0.60018   0.92769
 RFO step:  Lambda=-8.05100578D-04 EMin= 2.30012136D-03
 Quartic linear search produced a step of -0.45170.
 Iteration  1 RMS(Cart)=  0.11795105 RMS(Int)=  0.01566004
 Iteration  2 RMS(Cart)=  0.05858222 RMS(Int)=  0.00135307
 Iteration  3 RMS(Cart)=  0.00218629 RMS(Int)=  0.00051444
 Iteration  4 RMS(Cart)=  0.00000080 RMS(Int)=  0.00051444
 Variable       Old X    -DE/DX   Delta X   Delta X   Delta X     New X
                                 (Linear)    (Quad)   (Total)
    R1        2.59278  -0.00570  -0.00897   0.00716  -0.00181   2.59098
    R2        2.07974  -0.00180  -0.00174  -0.00290  -0.00463   2.07511
    R3        2.53541   0.00281   0.00975  -0.01446  -0.00471   2.53070
    R4        2.77126   0.00070   0.01014  -0.01861  -0.00847   2.76279
    R5        2.06892  -0.00139  -0.00159  -0.00113  -0.00271   2.06621
    R6        1.85246  -0.00014   0.00180  -0.00246  -0.00062   1.85184
    R7        2.33616  -0.00210  -0.00472   0.00652   0.00180   2.33796
    R8        2.11880  -0.00233  -0.00307  -0.00080  -0.00387   2.11493
    R9        3.33716   0.00086  -0.04281   0.08468   0.04185   3.37901
   R10        1.82278   0.00102   0.00244  -0.00244  -0.00000   1.82278
   R11        1.82307   0.00104   0.00249  -0.00250  -0.00001   1.82306
    A1        2.08120   0.00013   0.01196  -0.01956  -0.00758   2.07361
    A2        2.16323   0.00139  -0.00060   0.00703   0.00645   2.16967
    A3        2.03876  -0.00152  -0.01141   0.01250   0.00111   2.03986
    A4        2.19995  -0.00050  -0.00112   0.00008  -0.00105   2.19890
    A5        2.02573   0.00086   0.01333  -0.02008  -0.00676   2.01897
    A6        2.05737  -0.00036  -0.01222   0.02010   0.00787   2.06525
    A7        1.88551   0.00277  -0.00053   0.01295   0.01242   1.89792
    A8        2.20206  -0.00024   0.00153  -0.00217  -0.00140   2.20066
    A9        1.99120   0.00039  -0.00359   0.00958   0.00523   1.99643
   A10        2.08684   0.00030   0.00311  -0.00312  -0.00076   2.08608
   A11        2.17346  -0.00052   0.01007  -0.02354  -0.01314   2.16032
   A12        2.10590   0.00048   0.00724  -0.01527  -0.00838   2.09752
   A13        1.84296  -0.00063  -0.01180   0.01405   0.00284   1.84580
   A14        3.25288  -0.00250  -0.13111  -0.15254  -0.28432   2.96856
   A15        3.15095   0.00020   0.01464   0.02061   0.03523   3.18618
    D1       -3.13032   0.00022   0.00095  -0.00371  -0.00280  -3.13312
    D2       -0.00640   0.00034  -0.00031   0.00298   0.00265  -0.00376
    D3        0.01261   0.00001  -0.00792   0.01282   0.00493   0.01754
    D4        3.13653   0.00013  -0.00917   0.01952   0.01037  -3.13628
    D5       -3.13476   0.00007  -0.00999   0.01578   0.00585  -3.12890
    D6        0.00815  -0.00013  -0.01844   0.03197   0.01345   0.02160
    D7       -0.00435  -0.00288  -0.04348   0.03857  -0.00491  -0.00926
    D8        3.05185   0.00328  -0.02427   0.09777   0.07351   3.12535
    D9       -3.12798  -0.00302  -0.04247   0.03213  -0.01035  -3.13833
   D10       -0.07178   0.00315  -0.02326   0.09133   0.06807  -0.00371
   D11        1.92786   0.00015  -0.03554  -0.01424  -0.04827   1.87960
   D12       -1.92559  -0.00023   0.03059   0.01115   0.04019  -1.88540
   D13        2.55829  -0.00091   0.01024  -0.04303  -0.03110   2.52719
         Item               Value     Threshold  Converged?
 Maximum Force            0.005697     0.000450     NO 
 RMS     Force            0.001743     0.000300     NO 
 Maximum Displacement     0.408236     0.001800     NO 
 RMS     Displacement     0.172006     0.001200     NO 
 Predicted change in Energy=-6.484066D-04
 GradGradGradGradGradGradGradGradGradGradGradGradGradGradGradGradGradGrad

                          Input orientation:                          
 ---------------------------------------------------------------------
 Center     Atomic      Atomic             Coordinates (Angstroms)
 Number     Number       Type             X           Y           Z
 ---------------------------------------------------------------------
      1          6           0       -0.217317    1.199044    0.182088
      2          6           0       -0.930981    0.603362   -0.825743
      3          1           0        0.102535    0.588062    1.036616
      4          8           0        0.116019    2.495854    0.206584
      5          6           0       -1.424204    1.261730   -2.034353
      6          1           0        0.631549    2.673130    1.020896
      7          8           0       -1.279767    2.455736   -2.324424
      8          1           0       -1.128951   -0.464459   -0.698980
      9          1           0       -1.971911    0.585550   -2.738161
     10          8           0        1.461888    2.713974    2.603982
     11          1           0        2.413615    2.831893    2.707464
     12          1           0        1.058445    3.171188    3.351564
 ---------------------------------------------------------------------
                    Distance matrix (angstroms):
                    1          2          3          4          5
     1  C    0.000000
     2  C    1.371085   0.000000
     3  H    1.098099   2.129969   0.000000
     4  O    1.339190   2.396546   2.080578   0.000000
     5  C    2.524503   1.462005   3.495084   2.986159   0.000000
     6  H    1.896603   3.183632   2.151188   0.979950   3.943694
     7  O    2.998446   2.408109   4.086019   2.890645   1.237196
     8  H    2.091554   1.093391   2.374164   3.336683   2.202300
     9  H    3.461622   2.177429   4.307235   4.084144   1.119172
    10  O    3.313656   4.684390   2.970518   2.757980   5.652671
    11  H    3.995689   5.351282   3.628719   3.412663   6.299135
    12  H    3.944934   5.291639   3.597956   3.351887   6.230384
                    6          7          8          9         10
     6  H    0.000000
     7  O    3.858958   0.000000
     8  H    3.987706   3.345498   0.000000
     9  H    5.026579   2.036624   2.443637   0.000000
    10  O    1.788097   5.645577   5.265400   6.697734   0.000000
    11  H    2.458755   6.253196   5.917734   7.343958   0.964572
    12  H    2.421222   6.180287   5.865965   7.276904   0.964722
                   11         12
    11  H    0.000000
    12  H    1.538334   0.000000
[...]
 .00060103,0.00006300,-0.00031026,0.00018033,0.00000196,0.00000962,-0.0
 0000263,-0.00015622,-0.00055603,-0.00007715,0.00002847,0.00007589,0.00
 005385,-0.00021953,-0.00016342,-0.00003542,0.00003331,-0.00010427,-0.0
 0020040,-0.00006357,0.00008875,0.00032697,0.00082132,0.00087295,0.0004
 8765,0.00012726,0.00037419,-0.00011218,-0.00068297,-0.00005383,0.00002
 253,0.00007799,-0.00000498,-0.00023814,-0.00010744,-0.00072001,0.00141
 334,0.00841135,-0.00218802,-0.00164719,-0.00202152,-0.00163055,0.00029
 703,-0.00149288,0.00102617,-0.00199522,-0.00671861,-0.00573706,0.00086
 977,-0.00075123,0.00181294,-0.01290682,0.01149831,0.02512540,-0.000434
 83,0.00085169,-0.00109385,-0.00041273,-0.00031804,-0.00035210,-0.00013
 731,-0.00027419,-0.00021975,0.03457460,0.00103048,0.00480336,-0.000078
 02,-0.00064646,-0.00094780,-0.00088126,0.00014140,-0.00065523,0.000617
 60,-0.00409972,-0.00218739,-0.00529461,0.00033204,-0.00020083,0.000745
 98,0.01004562,-0.01077836,0.01001883,-0.00015988,0.00025982,-0.0004437
 9,-0.00007928,-0.00016303,-0.00013910,-0.00007669,-0.00012777,-0.00005
 988,-0.01387738,0.00395535,0.00121605,0.01358529,-0.00351428,-0.002263
 26,-0.00342670,-0.00287637,0.00027031,-0.00240751,0.00172986,-0.006948
 48,-0.01014569,-0.00539479,0.00130867,-0.00126152,0.00309225,0.0258015
 2,0.01271057,0.01254214,-0.00062372,0.00143051,-0.00187787,-0.00045972
 ,-0.00058008,-0.00073199,-0.00031105,-0.00042580,-0.00032931,-0.019105
 11,-0.00518816,0.01538959,-0.00024935,-0.00055973,-0.00025923,0.000197
 00,0.00001332,0.00035492,0.00001903,-0.00001035,0.00007192,0.00085837,
 0.00072444,0.00141072,-0.00006415,0.00016864,-0.00023488,-0.00455035,-
 0.00206069,-0.00459189,-0.00000473,-0.00013512,0.00009416,-0.00000193,
 0.00004469,0.00001707,0.00002813,0.00002593,0.00002978,-0.00820634,-0.
 00336216,0.00247780,0.01114732,-0.00009538,0.00015843,-0.00017816,0.00
 004842,-0.00016201,0.00012274,-0.00001237,-0.00012606,0.00005306,0.000
 52329,0.00019135,0.00082045,-0.00001111,0.00011003,-0.00007845,0.00074
 880,-0.00239186,-0.00021292,0.00000217,-0.00006594,0.00003201,0.000000
 51,0.00000451,-0.00001006,0.00000704,0.00000770,0.00001470,-0.00513013
 ,0.00654492,0.00119521,0.00413922,-0.00509038,0.00054548,0.00231899,-0
 .00037911,-0.00041824,-0.00052776,-0.00048076,0.00000776,-0.00031827,0
 .00028442,-0.00102956,-0.00196395,-0.00199055,0.00021257,-0.00020032,0
 .00045959,-0.00242033,-0.00054111,0.01229522,-0.00009871,0.00022418,-0
 .00024206,-0.00010540,-0.00007321,-0.00007958,-0.00002555,-0.00005969,
 -0.00004220,0.00788401,0.00227611,-0.01414242,-0.00245561,-0.00201316,
 0.00319846,0.00035818,0.00221613,-0.00015755,-0.00038842,-0.00049249,-
 0.00051938,0.00006354,-0.00031335,0.00017378,-0.00174646,-0.00166585,-
 0.00157631,0.00019121,-0.00019855,0.00045262,0.00914658,-0.00248310,0.
 00726141,-0.00006350,0.00021609,-0.00023283,-0.00004899,-0.00008653,-0
 .00009374,-0.00004004,-0.00005503,-0.00003773,-0.01141431,0.01075203,-
 0.00136301,0.00082703,-0.00022045,-0.00209641,0.00311517,-0.00020077,-
 0.00054614,-0.00022862,0.00016051,-0.00002719,0.00035947,-0.00000337,-
 0.00005559,0.00001652,0.00115671,0.00079193,0.00157504,-0.00008786,0.0
 0020499,-0.00024295,-0.00425289,-0.00189186,-0.00231419,0.00002275,-0.
 00015502,0.00011045,0.00001320,0.00003704,0.00001699,0.00002622,0.0000
 2733,0.00003035,0.00982262,-0.00050302,-0.00548612,0.00101180,0.000819
 31,0.00087818,-0.00766890,0.00129822,-0.00006107,0.00088913,-0.0002836
 7,-0.00006368,-0.00026399,-0.00002918,0.00009539,-0.00018262,0.0001690
 7,-0.00034563,-0.00049230,0.00001440,0.00003704,0.00000722,0.00010862,
 0.00460776,-0.00391121,-0.00190082,-0.00001424,0.00002148,-0.00009380,
 0.00000318,-0.00002302,-0.00006463,-0.00001106,-0.00001044,0.00000625,
 -0.00552208,-0.00157370,-0.00388680,0.00308524,0.00025458,0.00111898,-
 0.00181085,0.00528487,0.00484157,-0.00031476,0.00032676,0.00028250,0.0
 0029754,0.00009661,-0.00011021,-0.00006597,-0.00004517,-0.00000176,0.0
 0016995,0.00003532,0.00007214,0.00006591,-0.00015314,-0.00016018,-0.00
 006664,-0.00006076,-0.00006224,0.00000530,-0.00016911,0.00021794,0.000
 12646,-0.00005965,-0.00008986,-0.00003531,0.00004023,0.00000131,-0.000
 08851,-0.00006113,0.00013353,-0.00006261,0.00001301,-0.00002364,0.0000
 0337,0.00003624,-0.00008628,-0.00006489,-0.00004773,0.00006340,-0.0000
 0572,0.00005143,-0.00009171,-0.00001811,0.00004518,-0.00012251,0.00032
 530,-0.00051848,-0.00005017,0.00004614,0.00006569,0.00004495,-0.000065
 04,0.00006543,-0.00002257,0.00154249,-0.00021008,-0.00073385,0.0002450
 8,0.00014299,0.00021180,0.00015047,-0.00004125,0.00005550,-0.00013706,
 0.00182778,-0.00309616,-0.00020462,-0.00036874,0.00028046,0.00001757,0
 .00004312,0.00003116,0.00003301,0.00006313,-0.00004520,0.01087700,0.00
 255181,0.01414740,0.00001177,0.00000925,0.00000452,-0.00006014,0.00006
 081,-0.00012216,-0.00000123,0.00000001,-0.00000474,-0.00003333,-0.0000
 4710,-0.00003544,0.00012295,-0.00009552,-0.00014131,-0.00009524,0.0002
 0065,0.00010882,0.00012850,-0.00002558,-0.00002392,-0.00003731,0.00002
 078,0.00017771,-0.00005739,-0.00025644,-0.00008810,0.00003131,-0.00000
 186,0.00006069,-0.00000881,0.00005922,-0.00015649,-0.00001083,0.000013
 47,0.00001546,-0.00003729,-0.00011348,-0.00003824,0.00025372,0.0002059
 7,0.00008765,-0.00001421,0.00062327,-0.00011481,-0.00009422,-0.0001266
 4,-0.00002420,0.00004908,-0.00007977,0.00009327,-0.00177256,-0.0019360
 7,-0.01172557,0.00005297,0.00000206,0.00006782,0.00124294,-0.00009219,
 0.00003274,-0.00024202,-0.00001779,-0.00006911,-0.00001651,-0.00003771
 ,-0.00006104,-0.00002881,-0.00152591,0.00401671,-0.00234769,0.00001193
 ,-0.00000842,0.00002816,0.00179997,-0.00491553,0.00022334,0.00109818,-
 0.00019987,-0.00008132,-0.00022652,-0.00009586,0.00007389,-0.00010948,
 0.00020609,-0.01191550,-0.00311286,-0.01557196,0.00007278,0.00001075,0
 .00012856,0.01361285,0.00256759,0.01745189,0.00002988,0.00000059,-0.00
 000685,-0.00001706,0.00004007,0.00005710,0.00000649,0.00000273,0.00000
 767,-0.00001994,-0.00000462,0.00005631,-0.00001989,0.00012916,-0.00012
 431,-0.00005249,-0.00000127,-0.00002580,0.00001830,0.00007647,0.000124
 48,0.00008529,-0.00015251,-0.00003596,-0.00007988,0.00001804,0.0000085
 3,0.00002044,-0.00002661,-0.00016545,0.00001629,0.00022378,0.00005017,
 -0.00023891,0.00002388,-0.00000192,0.00002579,-0.00015137,-0.00004674,
 -0.00002368,0.00001372,-0.00001304,-0.00002448,-0.00000862,0.00003516,
 0.00001139,0.00000290,0.00000491,0.00004853,0.00001189,0.00004747,-0.0
 0007871,-0.00007322,-0.00000244,-0.00003074,-0.00001927,-0.00009220,0.
 00002770,0.00013163,-0.00003175,-0.00000870,0.00002332,0.00001341,-0.0
 0002652,-0.00000410,0.00002688,-0.00001043,-0.00000208,-0.00000281,0.0
 0000960,0.00002572,0.00001261,0.00006194,-0.00001733,-0.00001694,0.000
 00110,-0.00000894,-0.00004073,-0.00002994,0.00000231,0.00001187,-0.000
 00247,-0.00000042,0.00001313,-0.00004038,0.00000232,-0.00004318,0.0000
 2456,0.00000141,0.00000502,-0.00000388,0.00001779,0.00000866,0.0000308
 7,0.00000094,-0.00000783,0.00004623,-0.00002420,-0.00000644,-0.0000274
 1,0.00000807,0.00002324,-0.00001850,-0.00001267,0.00001013,0.00002618,
 0.00004104,0.00001011,0.00003528,-0.00002345,-0.00000844,-0.00000186,-
 0.00001172,-0.00000634,0.00000822,0.00001647,0.00000333,-0.00002542,-0
 .00001382,0.00003590,-0.00003139,-0.00000003,-0.00003259,0.00000264,0.
 00001007,-0.00000585,-0.00001924,-0.00001013,-0.00002096,-0.00002254,0
 .00000241,0.00001016,0.00002040,-0.00001742,0.00000828,0.00000729,0.00
 000083,-0.00000529,0.00001023,-0.00000517,0.00000205,-0.00010932,0.000
 00528,-0.00008842,-0.00000633,-0.00000149,-0.00000997,0.00004416,0.000
 01896,0.00003935,-0.00000442,0.00000047,-0.00000438,0.00005783,0.00000
 899,-0.00001012,0.00000567,0.00002397,0.00001170,0.00000585,-0.0000028
 1,-0.00000023,0.00000602,0.00000340,0.00000309,0.00000742,-0.00001234,
 -0.00007993,-0.00001074,-0.00001108,-0.00000356,-0.00001865,-0.0000095
 4,0.00003424,-0.00002810,0.00000135,-0.00000262,0.00000453,-0.00000765
 ,0.00004890,0.00001569,-0.00002080,0.00000305,-0.00003808,0.00005998,-
 0.00000307,-0.00000047,0.00000998,0.00000101,-0.00000152,-0.00000247,0
 .00001082,-0.00000999,-0.00013161,-0.00000410,-0.00000568,-0.00000235,
 -0.00001089,-0.00000529,0.00007713,-0.00002087,-0.00000190,-0.00001438
 ,-0.00000217,0.00003750,0.00001867,0.00001477,-0.00030937,0.00014644,-
 0.00005361,0.00015822,-0.00013797,-0.00003463,-0.00015113,-0.00005304,
 0.00003121,0.00003931,-0.00005230,0.00076149,0.00001248,0.00002445,-0.
 00001540,-0.00046670,0.00059509,-0.00003349,0.00007732,-0.00003278,-0.
 00002861,-0.00000331,-0.00000178,-0.00002261,-0.00000056,0.00000788,0.
 00000757,2.97011853,0.00018807,0.00033916,0.00004464,-0.00001332,-0.00
 000969,0.00007931,-0.00005614,-0.00022573,-0.00007176,-0.00012059,-0.0
 0013245,-0.00032787,-0.00000240,-0.00003382,0.00001878,0.00013501,-0.0
 0038902,0.00015358,-0.00003380,0.00005588,-0.00004263,-0.00002605,-0.0
 0000900,-0.00004056,-0.00000079,-0.00001466,0.00000244,0.09349744,0.64
 458712,-0.00007289,-0.00003192,-0.00043705,-0.00009312,-0.00015325,0.0
 0011127,0.00003263,-0.00006575,-0.00006385,0.00079218,-0.00020137,0.00
 120185,-0.00000457,0.00006822,-0.00002194,0.00018018,0.00100536,-0.000
 73050,-0.00002701,-0.00004022,0.00006686,-0.00001062,0.00000506,-0.000
 01431,0.00001153,0.00001821,0.00000647,-1.38480778,1.58106091,0.401609
 78,0.00059921,0.00014675,0.00038302,-0.00025234,0.00019324,-0.00031770
 ,0.00022329,0.00027172,0.00017719,-0.00028397,-0.00032228,-0.00022828,
 0.00006099,-0.00015534,0.00023428,0.00095454,-0.00013640,0.00023762,-0
 .00002601,0.00009759,-0.00004743,-0.00000950,-0.00000024,0.00000847,-0
 .00001777,-0.00001865,-0.00003273,-2.93788399,-1.08567485,0.34461086,2
 .97657101,-0.00003986,-0.00019771,-0.00023841,0.00002577,-0.00004879,0
 .00007259,0.00001178,0.00005519,0.00006552,0.00019344,-0.00006445,0.00
 025669,-0.00004282,0.00007064,-0.00005275,-0.00032711,0.00065144,-0.00
 046376,0.00001086,-0.00004734,0.00003334,0.00000748,0.00000690,0.00001
 886,0.00001007,0.00001025,0.00000855,-1.15331166,0.30339709,0.08931916
 ,1.10156544,-0.33174809,-0.00010232,-0.00063456,-0.00013469,0.00016586
 ,0.00010992,0.00023348,-0.00011081,-0.00006533,-0.00006855,0.00034078,
 0.00053051,0.00010119,-0.00009193,0.00009077,-0.00018003,-0.00172552,-
 0.00047215,-0.00089934,0.00003564,-0.00005973,0.00003746,0.00000527,0.
 00001055,0.00003414,0.00001465,0.00000393,0.00001830,0.29279241,0.0662
 3915,0.62672073,-0.35832804,-0.06722485,-0.63876643,-0.00035707,-0.000
 65546,-0.00039162,0.00015682,0.00000388,0.00042151,-0.00006094,-0.0001
 9394,-0.00018520,0.00020178,0.00062237,0.00043387,-0.00009916,0.000167
 83,-0.00028512,0.00010588,-0.00058528,-0.00211366,-0.00001081,-0.00009
 775,0.00009481,0.00002267,0.00000829,0.00002410,0.00002103,0.00001648,
 0.00003490,-0.03159082,0.99210743,1.03938860,-0.03993546,0.05189662,0.
 06700399,0.07154609,-0.00013641,0.00008531,0.00013546,-0.00002674,-0.0
 0001383,-0.00013835,0.00011542,0.00016308,0.00013796,-0.00000270,-0.00
 028111,0.00013237,0.00005435,-0.00002407,0.00004589,-0.00007933,0.0007
 5415,0.00010280,0.00000913,0.00000085,-0.00000314,0.00001098,0.0000019
 6,0.00000871,-0.00000549,0.00000293,-0.00000515,1.05931824,-0.94756487
 ,-1.67098440,-0.01596698,0.02791487,0.00147180,-1.04329049,0.91896074,
 -0.00005903,-0.00008315,0.00053934,0.00002924,0.00019125,-0.00021121,0
 .00007971,0.00017690,0.00010730,-0.00008462,0.00006100,-0.00016828,0.0
 0004198,-0.00009558,0.00007501,-0.00029621,-0.00047228,-0.00015333,0.0
 0000219,0.00005213,-0.00002570,0.00002220,-0.00000259,0.00000718,-0.00
 001549,-0.00001279,-0.00001332,1.09140345,-1.64711599,-1.02844932,0.01
 330274,-0.02179494,0.01290374,-1.10442617,1.66909604,1.01538858,0.0003
 6319,-0.00021053,-0.00018235,-0.00029895,-0.00016059,0.00003735,0.0000
 5246,0.00002068,0.00000984,-0.00010210,-0.00010849,-0.00001071,-0.0001
 1855,0.00016391,-0.00002159,0.00004207,0.00014334,0.00014015,-0.000016
 60,0.00019834,-0.00033143,-0.00009594,-0.00001677,0.00003262,-0.000033
 43,0.00001772,0.00006407,0.00003900,0.00001168,-0.00012509,0.00005343,
 0.00000324,0.00002766,-0.00005062,-0.00005901,-0.00000857,0.00004389,0
 .00001300,-0.00006229,0.00005115,-0.00002618,0.00002316,-0.00008286,-0
 .00008091,0.00000186,-0.00023447,0.00021414,0.00007540,-0.00006869,0.0
 0000552,-0.00005086,0.00005104,-0.00001198,0.00000284,0.00041006,0.000
 18917,0.00042593,0.00007569,-0.00009076,0.00001176,-0.00021262,0.00002
 739,0.00002631,0.00005968,-0.00017670,-0.00056168,0.00007462,0.0000786
 6,-0.00021880,0.00000200,0.00000177,-0.00002692,-0.00000902,-0.0000106
 4,0.00003270,0.00015245,0.00005371,0.00061385,-0.00007097,0.00006123,0
 .00003349,-0.00000533,-0.00006657,-0.00001806,0.00001635,-0.00001062,-
 0.00000616,0.00001070,-0.00002042,-0.00000435,0.00012512,0.00009869,0.
 00014072,0.00008306,-0.00001981,-0.00010727,-0.00016617,0.00001216,0.0
 0000746,0.00002775,-0.00001781,-0.00012017,0.00001818,-0.00028792,0.00
 028017,-0.00000533,-0.00008697,-0.00007925,0.00013812,-0.00006325,0.00
 020280,-0.00003460,-0.00001102,0.00000373,0.00002404,0.00008313,0.0000
 0517,-0.00002289,0.00005073,-0.00019367,-0.00006878,-0.00016532,0.0000
 9943,0.00009118,0.00000187,0.00000218,0.00001387,0.00000810,-0.0000459
 1,-0.00007789,0.00012668,0.00001794,-0.00001052,0.00001416,-0.00003913
 ,0.00007256,0.00004093,0.00013557,-0.00003111,-0.00001640,-0.00005879,
 0.00004573,-0.00007070,-0.00008578,-0.00007019,-0.00005396,-0.00008117
 ,-0.00011560,0.00000786,0.00000798,0.00000889,0.00023054,0.00050277,0.
 00001225,-0.00039703,0.00012558,0.00000365,0.00007086,0.00006343,-0.00
 000938,0.00007291,-0.00001441,0.00010060,0.00021287,-0.00003204,-0.000
 02652,0.00002153,-0.00006928,-0.00055383,0.00033505,-0.00086350,0.0000
 0354,-0.00004286,-0.00001534,0.00000718,0.00004934,0.00005636,-0.00000
 264,0.00000103,-0.00000355,-0.00000553,0.00005087,-0.00002438,0.000005
 55,0.00009631,-0.00003011,-0.00003722,-0.00000250,0.00004546,-0.000034
 76,-0.00007468,-0.00012697,-0.00008380,-0.00004164,0.00001749,0.000111
 17,-0.00000356,-0.00000674,-0.00001370,0.00001270,0.00010822,-0.000016
 87,0.00028833,-0.00015137,-0.00003372,-0.00000615,-0.00002446,-0.00002
 995,-0.00013831,0.00015667,0.00001756,0.00004420,0.00003842,-0.0000720
 1,-0.00000564,-0.00003207,0.00000934,0.00000560,-0.00000276,-0.0000247
 6,0.00000878,-0.00004271,-0.00002953,-0.00004889,0.00006009,0.00005389
 ,-0.00002171,0.00004274,0.00002060,0.00003749,-0.00005385,-0.00005772,
 0.00001162,0.00002380,0.00009488,-0.00002138,-0.00003323,0.00002663,-0
 .00000595,-0.00001893,0.00000424,0.00000716,-0.00000314,-0.00005666,0.
 00002683,-0.00000393,0.00000447,-0.00000367,0.00000693,0.00001290,-0.0
 0001805,-0.00000054,-0.00001385,0.00002982,-0.00003489,0.00001403,-0.0
 0002631,0.00005880,-0.00000266,-0.00000446,0.00000757,0.00000564,-0.00
 001119,-0.00000532,-0.00001276,-0.00000586,-0.00002401,-0.00002207,0.0
 0000414,-0.00000001,0.00001113,0.00000356,-0.00000069,0.00000944,0.000
 00269,0.00000118,0.00001719,0.00001778,-0.00004745,-0.00001965,-0.0000
 2966,0.00005084,-0.00001701,0.00000156,0.00000615,-0.00000281,-0.00000
 806,0.00000198,0.00001118,0.00001246,-0.00004504,0.00000577,-0.0000041
 4,0.00001441,-0.00001710,0.00000853,0.00001285,0.00001801,0.00000628,0
 .00000517,0.00002064,0.00000819,-0.00001984,-0.00000696,-0.00004593,0.
 00004200,-0.00000324,0.00000044,0.00000132,-0.00000457,-0.00000369,-0.
 00000119,-0.00003470,0.00011299,-0.00007034,0.00000487,0.00000223,0.00
 000383,0.00001609,-0.00004350,0.00005589,-0.00000386,0.00001111,0.0000
 0265,0.00001909,0.00000135,0.00001301,0.00000762,0.00001929,0.00000851
 ,-0.00001914,-0.00000284,0.00000215,-0.00000160,-0.00000391,-0.0000049
 5,-0.00000857,0.00003663,-0.00000085,0.00006107,0.00000404,-0.00000044
 ,0.00000918,-0.00000818,-0.00000531,-0.00001727,-0.00000215,-0.0000038
 8,-0.00000410,-0.00004028,-0.00000801,-0.00000816,0.00000595,0.0000044
 1,-0.00001528,-0.00000915,0.00003268,0.00000595,0.00000167,0.00000276,
 -0.00000071,-0.00000215,-0.00000123,0.00003513,0.00004916,0.00003399,0
 .00000289,0.00000441,0.00000464,-0.00001817,-0.00003036,-0.00001652,0.
 00001167,0.00000319,0.00000895,-0.00000880,-0.00001810,-0.00005961,-0.
 00028872,0.00038478,0.00020015,0.00017546,-0.00015223,-0.00016041,-0.0
 0009285,-0.00001993,0.00002477,0.00056960,-0.00018441,-0.00001727,0.00
 002949,-0.00001944,0.00001313,-0.00185633,0.00016024,0.00064779,0.0000
 5554,0.00000869,-0.00006270,-0.00002831,-0.00000053,-0.00000902,-0.000
 00501,-0.00000105,0.00000819,2.95118060,0.00002669,-0.00116108,0.00035
 697,0.00007895,0.00023995,0.00017554,0.00004541,0.00011713,-0.00001730
 ,0.00007003,0.00140701,-0.00023040,-0.00010674,-0.00001885,-0.00017581
 ,-0.00081798,-0.00227637,-0.00150058,-0.00001745,0.00002749,-0.0000056
 8,0.00001764,0.00002910,0.00000793,0.00002581,0.00002577,0.00003193,0.
 20753553,0.71550520,0.00036556,0.00102057,-0.00028723,-0.00026801,-0.0
 0025372,-0.00007727,-0.00000553,-0.00013800,-0.00004750,-0.00013547,-0
 .00070222,0.00069903,0.00005180,-0.00001413,0.00013321,0.00110052,0.00
 031024,-0.00035476,-0.00004949,0.00004326,-0.00002697,-0.00001663,-0.0
 0002534,-0.00004416,-0.00000425,-0.00001817,-0.00000856,-1.33734102,1.
 72630943,0.34988987,0.00042764,-0.00008271,0.00006679,-0.00017042,0.00
 016956,-0.00004711,0.00008277,0.00008354,0.00002133,-0.00031842,-0.000
 02077,0.00006003,0.00001626,-0.00005396,0.00009075,0.00088678,-0.00028
 251,-0.00017692,-0.00000417,0.00002122,0.00000986,0.00000625,0.0000057
 2,0.00000904,-0.00000654,-0.00000416,-0.00002082,-3.03673361,-1.253181
 97,0.26537205,3.02948876,0.00009892,0.00041071,-0.00021934,-0.00006831
 ,-0.00009578,-0.00006926,0.00008435,-0.00000838,0.00001440,-0.00032337
 ,-0.00051185,0.00024900,0.00003789,0.00000666,0.00008058,0.00082962,0.
 00084490,0.00033248,-0.00000762,0.00000208,0.00000388,-0.00000814,-0.0
 0001542,-0.00000444,-0.00000971,-0.00001299,-0.00001609,-1.25459047,0.
 31406846,0.06942687,1.25313396,-0.31627078,-0.00005048,-0.00041850,-0.
 00001246,0.00006314,0.00008481,0.00005843,0.00002307,0.00004969,0.0000
 1356,-0.00004416,0.00023916,-0.00061534,-0.00003487,0.00001082,-0.0000
 6026,-0.00049629,-0.00010785,0.00068213,0.00003109,-0.00000726,0.00000
 484,-0.00000127,0.00000528,0.00002186,0.00000678,0.00000489,0.00000464
 ,0.26589634,0.06960783,0.71599549,-0.26243754,-0.07345887,-0.71665961,
 -0.00005088,-0.00018241,-0.00020739,-0.00003421,-0.00001331,0.00011960
 ,-0.00000156,-0.00000053,0.00001210,-0.00033608,0.00009548,-0.00024770
 ,-0.00002531,0.00003776,-0.00005973,0.00097701,-0.00001205,-0.00005387
 ,-0.00001649,-0.00000504,0.00002241,0.00001101,-0.00000869,0.00000175,
 0.00000419,0.00000124,0.00000811,0.08699414,1.04632409,1.07093046,0.00
 632469,0.00082289,-0.00295580,-0.09384650,-0.00010351,0.00051521,0.000
 02261,-0.00002280,-0.00006995,-0.00015362,-0.00002969,0.00004626,0.000
 08941,0.00029652,-0.00069411,-0.00000649,0.00006616,-0.00002057,0.0001
 0844,-0.00022970,0.00103579,0.00086156,0.00001583,0.00000357,-0.000010
 20,-0.00000659,-0.00001244,-0.00000414,-0.00001767,-0.00001305,-0.0000
 2047,1.04687883,-1.02796379,-1.79595879,0.00021207,0.00158240,0.003989
 99,-1.04705943,1.02559068,-0.00021021,-0.00026035,0.00036154,0.0001236
 4,0.00015032,-0.00010378,0.00002335,0.00010635,0.00004304,-0.00009657,
 0.00019202,-0.00041570,0.00001077,-0.00004450,0.00000850,-0.00014747,-
 0.00035372,0.00040107,0.00000464,0.00001521,0.00001595,0.00001725,0.00
 000784,0.00001444,-0.00000806,0.00000418,-0.00000615,1.07080005,-1.794
 55985,-1.06587116,-0.00294746,0.00366080,0.00056672,-1.06756993,1.7910
 8171,1.06498553\\@
 The archive entry for this job was punched.


 OLD AGE AND TREACHERY WILL ALWAYS PREVAIL OVER YOUTH AND SKILL.
 Job cpu time:       6 days 16 hours 20 minutes 17.0 seconds.
 Elapsed time:       0 days  4 hours  4 minutes 24.0 seconds.
 File lengths (MBytes):  RWF=   6518 Int=      0 D2E=      0 Chk=     47 Scr=      1
 Normal termination of Gaussian 16 at Sat Mar 22 13:21:01 2025.
