 Entering Gaussian System, Link 0=g16
 Input=enoloneco2_nh3_mp2_avdz_opt_anharm.gjf
 Output=enoloneco2_nh3_mp2_avdz_opt_anharm.log
 Initial command:
 /sw/contrib/chem-src/g16/c01/g16/l1.exe "/scr/Gau-54133.inp" -scrdir="/scr/"
 Entering Link 1 = /sw/contrib/chem-src/g16/c01/g16/l1.exe PID=     54136.
  
 Copyright (c) 1988-2019, Gaussian, Inc.  All Rights Reserved.
  
 This is part of the Gaussian(R) 16 program.  It is based on
 the Gaussian(R) 09 system (copyright 2009, Gaussian, Inc.),
 the Gaussian(R) 03 system (copyright 2003, Gaussian, Inc.),
 the Gaussian(R) 98 system (copyright 1998, Gaussian, Inc.),
 the Gaussian(R) 94 system (copyright 1995, Gaussian, Inc.),
 the Gaussian 92(TM) system (copyright 1992, Gaussian, Inc.),
 the Gaussian 90(TM) system (copyright 1990, Gaussian, Inc.),
 the Gaussian 88(TM) system (copyright 1988, Gaussian, Inc.),
 the Gaussian 86(TM) system (copyright 1986, Carnegie Mellon
 University), and the Gaussian 82(TM) system (copyright 1983,
 Carnegie Mellon University). Gaussian is a federally registered
 trademark of Gaussian, Inc.
  
 This software contains proprietary and confidential information,
 including trade secrets, belonging to Gaussian, Inc.
  
 This software is provided under written license and may be
 used, copied, transmitted, or stored only in accord with that
 written license.
  
 The following legend is applicable only to US Government
 contracts under FAR:
  
                    RESTRICTED RIGHTS LEGEND
  
 Use, reproduction and disclosure by the US Government is
 subject to restrictions as set forth in subparagraphs (a)
 and (c) of the Commercial Computer Software - Restricted
 Rights clause in FAR 52.227-19.
  
 Gaussian, Inc.
 340 Quinnipiac St., Bldg. 40, Wallingford CT 06492
  
  
 ---------------------------------------------------------------
 Warning -- This program may not be used in any manner that
 competes with the business of Gaussian, Inc. or will provide
 assistance to any competitor of Gaussian, Inc.  The licensee
 of this program is prohibited from giving any competitor of
 Gaussian, Inc. access to this program.  By using this program,
 the user acknowledges that Gaussian, Inc. is engaged in the
 business of creating and licensing software in the field of
 computational chemistry and represents and warrants to the
 licensee that it is not a competitor of Gaussian, Inc. and that
 it will not use this program in any manner prohibited above.
 ---------------------------------------------------------------
  

 Cite this work as:
 Gaussian 16, Revision C.01,
 M. J. Frisch, G. W. Trucks, H. B. Schlegel, G. E. Scuseria, 
 M. A. Robb, J. R. Cheeseman, G. Scalmani, V. Barone, 
 G. A. Petersson, H. Nakatsuji, X. Li, M. Caricato, A. V. Marenich, 
 J. Bloino, B. G. Janesko, R. Gomperts, B. Mennucci, H. P. Hratchian, 
 J. V. Ortiz, A. F. Izmaylov, J. L. Sonnenberg, D. Williams-Young, 
 F. Ding, F. Lipparini, F. Egidi, J. Goings, B. Peng, A. Petrone, 
 T. Henderson, D. Ranasinghe, V. G. Zakrzewski, J. Gao, N. Rega, 
 G. Zheng, W. Liang, M. Hada, M. Ehara, K. Toyota, R. Fukuda, 
 J. Hasegawa, M. Ishida, T. Nakajima, Y. Honda, O. Kitao, H. Nakai, 
 T. Vreven, K. Throssell, J. A. Montgomery, Jr., J. E. Peralta, 
 F. Ogliaro, M. J. Bearpark, J. J. Heyd, E. N. Brothers, K. N. Kudin, 
 V. N. Staroverov, T. A. Keith, R. Kobayashi, J. Normand, 
 K. Raghavachari, A. P. Rendell, J. C. Burant, S. S. Iyengar, 
 J. Tomasi, M. Cossi, J. M. Millam, M. Klene, C. Adamo, R. Cammi, 
 J. W. Ochterski, R. L. Martin, K. Morokuma, O. Farkas, 
 J. B. Foresman, and D. J. Fox, Gaussian, Inc., Wallingford CT, 2019.
 
 ******************************************
 Gaussian 16:  EM64L-G16RevC.01  3-Jul-2019
                22-Mar-2025 
 ******************************************
 %nprocshared=40
 Will use up to   40 processors via shared memory.
 %mem=50gb
 ----------------------------------------------
 # MP2/aug-cc-pVDZ opt freq=(vibrot,anharmonic)
 ----------------------------------------------
 1/18=20,19=15,38=1,80=1/1,3;
 2/9=110,12=2,17=6,18=5,40=1/2;
 3/5=16,7=10,11=9,25=1,30=1,71=1/1,2,3;
 4//1;
 5/5=2,38=5/2;
 8/6=4,10=1/1;
 9/15=2,16=-3/6;
 10/5=1/2;
 6/7=2,8=2,9=2,10=2/1;
 7/12=2/1,2,3,16;
 1/18=20,19=15,80=1/3(2);
 2/9=110/2;
 99//99;
 2/9=110/2;
 3/5=16,7=10,11=9,25=1,30=1,71=1/1,2,3;
 4/5=5,16=3,69=1/1;
 5/5=2,38=5/2;
 8/6=4,10=1/1;
 9/15=2,16=-3/6;
 10/5=1/2;
 7/12=2/1,2,3,16;
 1/18=20,19=15,80=1/3(-8);
 2/9=110/2;
 6/7=2,8=2,9=2,10=2/1;
 99/9=10/99;
 ----
 blah
 ----
 Symbolic Z-matrix:
 Charge =  0 Multiplicity = 1
 C                    -0.51983   0.85524  -0.02981 
 C                    -1.25678   0.46275  -1.0705 
 H                    -0.3807    0.24666   0.85533 
 O                     0.13352   2.05433   0.03424 
 C                    -1.42582   1.31577  -2.26045 
 H                     0.60729   2.10728   0.90468 
 O                    -2.10559   0.94476  -3.21125 
 H                    -1.76184  -0.49441  -1.08954 
 H                    -0.91452   2.29218  -2.24868 
 N                     1.47282   2.34037   2.35941 
 H                     1.93907   3.2513    2.28169 
 H                     0.93717   2.41109   3.23072 
 H                     2.23437   1.69203   2.58456 
 
 Add virtual bond connecting atoms N10        and H6         Dist= 3.23D+00.

 GradGradGradGradGradGradGradGradGradGradGradGradGradGradGradGradGradGrad
 Berny optimization.
 Initialization pass.
                           ----------------------------
                           !    Initial Parameters    !
                           ! (Angstroms and Degrees)  !
 --------------------------                            --------------------------
 ! Name  Definition              Value          Derivative Info.                !
 --------------------------------------------------------------------------------
 ! R1    R(1,2)                  1.3342         estimate D2E/DX2                !
 ! R2    R(1,3)                  1.0831         estimate D2E/DX2                !
 ! R3    R(1,4)                  1.367          estimate D2E/DX2                !
 ! R4    R(2,5)                  1.4738         estimate D2E/DX2                !
 ! R5    R(2,8)                  1.0824         estimate D2E/DX2                !
 ! R6    R(4,6)                  0.9924         estimate D2E/DX2                !
 ! R7    R(5,7)                  1.2263         estimate D2E/DX2                !
 ! R8    R(5,9)                  1.1022         estimate D2E/DX2                !
 ! R9    R(6,10)                 1.7087         estimate D2E/DX2                !
 ! R10   R(10,11)                1.0263         estimate D2E/DX2                !
 ! R11   R(10,12)                1.0252         estimate D2E/DX2                !
 ! R12   R(10,13)                1.0252         estimate D2E/DX2                !
 ! A1    A(2,1,3)              122.8927         estimate D2E/DX2                !
 ! A2    A(2,1,4)              123.9557         estimate D2E/DX2                !
 ! A3    A(3,1,4)              113.1516         estimate D2E/DX2                !
 ! A4    A(1,2,5)              121.5232         estimate D2E/DX2                !
 ! A5    A(1,2,8)              122.1117         estimate D2E/DX2                !
 ! A6    A(5,2,8)              116.3652         estimate D2E/DX2                !
 ! A7    A(1,4,6)              108.4236         estimate D2E/DX2                !
 ! A8    A(2,5,7)              120.963          estimate D2E/DX2                !
 ! A9    A(2,5,9)              116.7998         estimate D2E/DX2                !
 ! A10   A(7,5,9)              122.2372         estimate D2E/DX2                !
 ! A11   A(6,10,11)            106.6631         estimate D2E/DX2                !
 ! A12   A(6,10,12)            117.924          estimate D2E/DX2                !
 ! A13   A(6,10,13)            118.4886         estimate D2E/DX2                !
 ! A14   A(11,10,12)           103.9164         estimate D2E/DX2                !
 ! A15   A(11,10,13)           103.9148         estimate D2E/DX2                !
 ! A16   A(12,10,13)           104.1868         estimate D2E/DX2                !
 ! A17   L(4,6,10,3,-1)        185.2568         estimate D2E/DX2                !
 ! A18   L(4,6,10,3,-2)        180.0314         estimate D2E/DX2                !
 ! D1    D(3,1,2,5)            179.9986         estimate D2E/DX2                !
 ! D2    D(3,1,2,8)             -0.0006         estimate D2E/DX2                !
 ! D3    D(4,1,2,5)             -0.0012         estimate D2E/DX2                !
 ! D4    D(4,1,2,8)            179.9996         estimate D2E/DX2                !
 ! D5    D(2,1,4,6)            179.9927         estimate D2E/DX2                !
 ! D6    D(3,1,4,6)             -0.0072         estimate D2E/DX2                !
 ! D7    D(1,2,5,7)           -179.9981         estimate D2E/DX2                !
 ! D8    D(1,2,5,9)              0.0011         estimate D2E/DX2                !
 ! D9    D(8,2,5,7)              0.0012         estimate D2E/DX2                !
 ! D10   D(8,2,5,9)           -179.9996         estimate D2E/DX2                !
 ! D11   D(1,4,10,11)          178.3819         estimate D2E/DX2                !
 ! D12   D(1,4,10,12)          -66.3076         estimate D2E/DX2                !
 ! D13   D(1,4,10,13)           62.6875         estimate D2E/DX2                !
 --------------------------------------------------------------------------------
 Trust Radius=3.00D-01 FncErr=1.00D-07 GrdErr=1.00D-07 EigMax=2.50D+02 EigMin=1.00D-04
 Number of steps in this run=     53 maximum allowed number of steps=    100.
 GradGradGradGradGradGradGradGradGradGradGradGradGradGradGradGradGradGrad

                          Input orientation:                          
 ---------------------------------------------------------------------
 Center     Atomic      Atomic             Coordinates (Angstroms)
 Number     Number       Type             X           Y           Z
 ---------------------------------------------------------------------
      1          6           0       -0.519827    0.855242   -0.029807
      2          6           0       -1.256784    0.462750   -1.070505
      3          1           0       -0.380696    0.246656    0.855333
      4          8           0        0.133520    2.054335    0.034241
      5          6           0       -1.425824    1.315768   -2.260452
      6          1           0        0.607286    2.107279    0.904683
      7          8           0       -2.105590    0.944765   -3.211255
      8          1           0       -1.761840   -0.494411   -1.089539
      9          1           0       -0.914523    2.292182   -2.248680
     10          7           0        1.472815    2.340374    2.359411
     11          1           0        1.939071    3.251298    2.281693
     12          1           0        0.937165    2.411088    3.230720
     13          1           0        2.234374    1.692028    2.584564
 ---------------------------------------------------------------------
                    Distance matrix (angstroms):
                    1          2          3          4          5
     1  C    0.000000
     2  C    1.334245   0.000000
     3  H    1.083147   2.126753   0.000000
     4  O    1.367036   2.384649   2.050930   0.000000
     5  C    2.451263   1.473834   3.455924   2.871002   0.000000
     6  H    1.926461   3.174997   2.107241   0.992435   3.844230
     7  O    3.555878   2.352790   4.472108   4.096095   1.226275
     8  H    2.118299   1.082405   2.497852   3.369180   2.181900
     9  H    2.672822   2.202740   3.755536   2.523230   1.102249
    10  N    3.447405   4.768701   3.175124   2.698508   5.549330
    11  H    4.138876   5.406175   4.055083   3.121503   5.974938
    12  H    3.895449   5.206724   3.473326   3.315207   6.077534
    13  H    3.888543   5.201811   3.452235   3.324004   6.083814
                    6          7          8          9         10
     6  H    0.000000
     7  O    5.064788   0.000000
     8  H    4.044561   2.586710   0.000000
     9  H    3.506250   2.039785   3.134750   0.000000
    10  N    1.708715   6.766463   5.513099   5.190010   0.000000
    11  H    2.231275   7.200823   6.252382   5.439410   1.026263
    12  H    2.368875   7.273754   5.864401   5.785042   1.025233
    13  H    2.375257   7.279093   5.852288   5.799653   1.025192
                   11         12         13
    11  H    0.000000
    12  H    1.615679   0.000000
    13  H    1.615629   1.617812   0.000000
 Stoichiometry    C3H7NO2
 Framework group  C1[X(C3H7NO2)]
 Deg. of freedom    33
 Full point group                 C1      NOp   1
 Largest Abelian subgroup         C1      NOp   1
 Largest concise Abelian subgroup C1      NOp   1
                         Standard orientation:                         
 ---------------------------------------------------------------------
 Center     Atomic      Atomic             Coordinates (Angstroms)
 Number     Number       Type             X           Y           Z
 ---------------------------------------------------------------------
      1          6           0       -0.197146    0.682809   -0.000265
      2          6           0        1.133454    0.781358   -0.000005
      3          1           0       -0.850938    1.546384   -0.000275
      4          8           0       -0.874869   -0.504406   -0.000541
      5          6           0        1.994728   -0.414634    0.000030
      6          1           0       -1.848078   -0.310004   -0.000578
      7          8           0        3.216710   -0.312107    0.000305
      8          1           0        1.639541    1.738163    0.000204
      9          1           0        1.486769   -1.392862   -0.000187
     10          7           0       -3.547308   -0.130219    0.000206
     11          1           0       -3.943364   -1.076558   -0.028072
     12          1           0       -3.984669    0.295608    0.823910
     13          1           0       -3.989047    0.345719   -0.793120
 ---------------------------------------------------------------------
 Rotational constants (GHZ):          16.2859619           1.0655886           1.0053974
 Standard basis: Aug-CC-pVDZ (5D, 7F)
 There are   213 symmetry adapted cartesian basis functions of A   symmetry.
 There are   201 symmetry adapted basis functions of A   symmetry.
   201 basis functions,   335 primitive gaussians,   213 cartesian basis functions
    24 alpha electrons       24 beta electrons
       nuclear repulsion energy       216.1202222894 Hartrees.
 NAtoms=   13 NActive=   13 NUniq=   13 SFac= 1.00D+00 NAtFMM=   60 NAOKFM=F Big=F
 Integral buffers will be    131072 words long.
 Raffenetti 1 integral format.
 Two-electron integral symmetry is turned on.
 One-electron integrals computed using PRISM.
 NBasis=   201 RedAO= T EigKep=  2.36D-05  NBF=   201
 NBsUse=   201 1.00D-06 EigRej= -1.00D+00 NBFU=   201
 ExpMin= 2.97D-02 ExpMax= 1.17D+04 ExpMxC= 4.01D+02 IAcc=3 IRadAn=         5 AccDes= 0.00D+00
 Harris functional with IExCor=  205 and IRadAn=       5 diagonalized for initial guess.
 HarFok:  IExCor=  205 AccDes= 0.00D+00 IRadAn=         5 IDoV= 1 UseB2=F ITyADJ=14
 ICtDFT=  3500011 ScaDFX=  1.000000  1.000000  1.000000  1.000000
 FoFCou: FMM=F IPFlag=           0 FMFlag=      100000 FMFlg1=           0
         NFxFlg=           0 DoJE=T BraDBF=F KetDBF=T FulRan=T
         wScrn=  0.000000 ICntrl=       500 IOpCl=  0 I1Cent=   200000004 NGrid=           0
         NMat0=    1 NMatS0=      1 NMatT0=    0 NMatD0=    1 NMtDS0=    0 NMtDT0=    0
 Petite list used in FoFCou.
 Requested convergence on RMS density matrix=1.00D-08 within 128 cycles.
 Requested convergence on MAX density matrix=1.00D-06.
 Requested convergence on             energy=1.00D-06.
 No special actions if energy rises.
 SCF Done:  E(RHF) =  -321.877807325     A.U. after   14 cycles
            NFock= 14  Conv=0.94D-08     -V/T= 2.0017
 ExpMin= 2.97D-02 ExpMax= 1.17D+04 ExpMxC= 4.01D+02 IAcc=3 IRadAn=         5 AccDes= 0.00D+00
 HarFok:  IExCor=  205 AccDes= 0.00D+00 IRadAn=         5 IDoV=-2 UseB2=F ITyADJ=14
 ICtDFT= 12500011 ScaDFX=  1.000000  1.000000  1.000000  1.000000
 Range of M.O.s used for correlation:     7   201
 NBasis=   201 NAE=    24 NBE=    24 NFC=     6 NFV=     0
 NROrb=    195 NOA=    18 NOB=    18 NVA=   177 NVB=   177

 **** Warning!!: The largest alpha MO coefficient is  0.56257755D+02

 Fully direct method using O(ONN) memory.
 JobTyp=1 Pass  1:  I=   7 to  24 NPSUse= 40 ParTrn=T ParDer=T DoDerP=T.
 Spin components of T(2) and E(2):
     alpha-alpha T2 =       0.4208819851D-01 E2=     -0.1290852703D+00
     alpha-beta  T2 =       0.2374026835D+00 E2=     -0.7463591881D+00
     beta-beta   T2 =       0.4208819851D-01 E2=     -0.1290852703D+00
 ANorm=    0.1149599530D+01
 E2 =    -0.1004529729D+01 EUMP2 =    -0.32288233705371D+03
          IDoAtm=1111111111111
          Differentiating once with respect to electric field.
                with respect to dipole field.
          Differentiating once with respect to nuclear coordinates.
 Keep R1 ints in memory in canonical form, NReq=215103941.
          There are     1 degrees of freedom in the 1st order CPHF.  IDoFFX=0 NUNeed=     1.
 LinEq1:  Iter=  0 NonCon=     1 RMS=4.51D-03 Max=1.25D-01 NDo=     1
 AX will form     1 AO Fock derivatives at one time.
 LinEq1:  Iter=  1 NonCon=     1 RMS=1.35D-03 Max=1.99D-02 NDo=     1
 LinEq1:  Iter=  2 NonCon=     1 RMS=4.93D-04 Max=9.68D-03 NDo=     1
 LinEq1:  Iter=  3 NonCon=     1 RMS=1.55D-04 Max=2.90D-03 NDo=     1
 LinEq1:  Iter=  4 NonCon=     1 RMS=5.69D-05 Max=1.04D-03 NDo=     1
 LinEq1:  Iter=  5 NonCon=     1 RMS=2.09D-05 Max=3.03D-04 NDo=     1
 LinEq1:  Iter=  6 NonCon=     1 RMS=7.00D-06 Max=1.50D-04 NDo=     1
 LinEq1:  Iter=  7 NonCon=     1 RMS=2.08D-06 Max=4.67D-05 NDo=     1
 LinEq1:  Iter=  8 NonCon=     1 RMS=8.66D-07 Max=3.07D-05 NDo=     1
 LinEq1:  Iter=  9 NonCon=     1 RMS=2.25D-07 Max=2.51D-06 NDo=     1
 LinEq1:  Iter= 10 NonCon=     1 RMS=5.80D-08 Max=1.06D-06 NDo=     1
 LinEq1:  Iter= 11 NonCon=     1 RMS=1.57D-08 Max=2.51D-07 NDo=     1
 LinEq1:  Iter= 12 NonCon=     1 RMS=5.40D-09 Max=7.33D-08 NDo=     1
 LinEq1:  Iter= 13 NonCon=     1 RMS=1.51D-09 Max=1.70D-08 NDo=     1
 LinEq1:  Iter= 14 NonCon=     1 RMS=3.39D-10 Max=4.04D-09 NDo=     1
 LinEq1:  Iter= 15 NonCon=     1 RMS=1.12D-10 Max=1.91D-09 NDo=     1
 LinEq1:  Iter= 16 NonCon=     0 RMS=2.41D-11 Max=2.10D-10 NDo=     1
 Linear equations converged to 1.000D-10 1.000D-09 after    16 iterations.
 End of Minotr F.D. properties file   721 does not exist.
 End of Minotr F.D. properties file   722 does not exist.
 End of Minotr F.D. properties file   788 does not exist.

 **********************************************************************

            Population analysis using the SCF Density.

 **********************************************************************

 Orbital symmetries:
       Occupied  (A) (A) (A) (A) (A) (A) (A) (A) (A) (A) (A) (A)
                 (A) (A) (A) (A) (A) (A) (A) (A) (A) (A) (A) (A)
       Virtual   (A) (A) (A) (A) (A) (A) (A) (A) (A) (A) (A) (A)
                 (A) (A) (A) (A) (A) (A) (A) (A) (A) (A) (A) (A)
                 (A) (A) (A) (A) (A) (A) (A) (A) (A) (A) (A) (A)
                 (A) (A) (A) (A) (A) (A) (A) (A) (A) (A) (A) (A)
                 (A) (A) (A) (A) (A) (A) (A) (A) (A) (A) (A) (A)
                 (A) (A) (A) (A) (A) (A) (A) (A) (A) (A) (A) (A)
                 (A) (A) (A) (A) (A) (A) (A) (A) (A) (A) (A) (A)
                 (A) (A) (A) (A) (A) (A) (A) (A) (A) (A) (A) (A)
                 (A) (A) (A) (A) (A) (A) (A) (A) (A) (A) (A) (A)
                 (A) (A) (A) (A) (A) (A) (A) (A) (A) (A) (A) (A)
                 (A) (A) (A) (A) (A) (A) (A) (A) (A) (A) (A) (A)
                 (A) (A) (A) (A) (A) (A) (A) (A) (A) (A) (A) (A)
                 (A) (A) (A) (A) (A) (A) (A) (A) (A) (A) (A) (A)
                 (A) (A) (A) (A) (A) (A) (A) (A) (A) (A) (A) (A)
                 (A) (A) (A) (A) (A) (A) (A) (A) (A)
 The electronic state is 1-A.
 Alpha  occ. eigenvalues --  -20.58362 -20.53611 -15.61310 -11.32054 -11.31722
 Alpha  occ. eigenvalues --  -11.22009  -1.39264  -1.35798  -1.20288  -1.05188
 Alpha  occ. eigenvalues --   -0.86109  -0.76954  -0.72730  -0.67726  -0.67700
 Alpha  occ. eigenvalues --   -0.66552  -0.60416  -0.57476  -0.56909  -0.54249
 Alpha  occ. eigenvalues --   -0.50489  -0.49056  -0.40080  -0.34501
 Alpha virt. eigenvalues --    0.01304   0.03848   0.04240   0.05015   0.06295
 Alpha virt. eigenvalues --    0.06961   0.08534   0.09947   0.11767   0.12871
 Alpha virt. eigenvalues --    0.13610   0.14973   0.15016   0.15881   0.16375
 Alpha virt. eigenvalues --    0.16574   0.17491   0.18055   0.18350   0.19827
 Alpha virt. eigenvalues --    0.20887   0.22306   0.23592   0.24189   0.25067
 Alpha virt. eigenvalues --    0.26377   0.27077   0.29233   0.30081   0.31158
 Alpha virt. eigenvalues --    0.31687   0.32511   0.34092   0.34499   0.35555
 Alpha virt. eigenvalues --    0.37125   0.39156   0.39971   0.40382   0.40594
 Alpha virt. eigenvalues --    0.41745   0.44635   0.45037   0.45851   0.48193
 Alpha virt. eigenvalues --    0.48622   0.50036   0.50455   0.50551   0.52153
 Alpha virt. eigenvalues --    0.53014   0.54374   0.55322   0.55862   0.57817
 Alpha virt. eigenvalues --    0.59145   0.59649   0.60651   0.61246   0.63978
 Alpha virt. eigenvalues --    0.64353   0.64808   0.66090   0.66391   0.67705
 Alpha virt. eigenvalues --    0.69187   0.71482   0.71707   0.72696   0.74267
 Alpha virt. eigenvalues --    0.74362   0.78211   0.80411   0.82030   0.82429
 Alpha virt. eigenvalues --    0.86126   0.87783   0.87849   0.89200   0.90000
 Alpha virt. eigenvalues --    0.92410   0.94261   0.97542   0.98279   0.98943
 Alpha virt. eigenvalues --    1.01121   1.03368   1.07050   1.07247   1.12290
 Alpha virt. eigenvalues --    1.14024   1.18959   1.19458   1.21094   1.23129
 Alpha virt. eigenvalues --    1.24285   1.26416   1.28402   1.32106   1.32974
 Alpha virt. eigenvalues --    1.34499   1.37195   1.41939   1.47332   1.49694
 Alpha virt. eigenvalues --    1.50898   1.54781   1.60442   1.60698   1.62318
 Alpha virt. eigenvalues --    1.63844   1.67584   1.70698   1.72406   1.75266
 Alpha virt. eigenvalues --    1.79390   1.80665   1.83166   1.84344   1.86780
 Alpha virt. eigenvalues --    1.87795   1.89051   1.90502   1.95241   1.96235
 Alpha virt. eigenvalues --    1.97242   1.98872   2.01634   2.03477   2.06599
 Alpha virt. eigenvalues --    2.11214   2.11491   2.12880   2.17507   2.19307
 Alpha virt. eigenvalues --    2.22961   2.26071   2.28836   2.32605   2.33287
 Alpha virt. eigenvalues --    2.33939   2.37670   2.38050   2.39619   2.41526
 Alpha virt. eigenvalues --    2.42581   2.48788   2.51407   2.60808   2.64564
 Alpha virt. eigenvalues --    2.75299   2.75508   2.80424   2.83715   2.84597
 Alpha virt. eigenvalues --    2.86758   2.92125   2.96341   3.04579   3.09416
 Alpha virt. eigenvalues --    3.12488   3.18818   3.29256   3.42072   3.50829
 Alpha virt. eigenvalues --    3.52106   3.70509   3.72161   3.75969   3.79797
 Alpha virt. eigenvalues --    3.80264   3.82861   3.87267   4.01153   4.03944
 Alpha virt. eigenvalues --    4.14030   4.49032
          Condensed to atoms (all electrons):
               1          2          3          4          5          6
     1  C    5.485629  -0.309748  -0.323279  -0.040891   0.000982   0.069426
     2  C   -0.309748   5.766177   0.185287  -0.014388   0.106084  -0.089204
     3  H   -0.323279   0.185287   1.781356   0.010845  -0.003196  -0.140888
     4  O   -0.040891  -0.014388   0.010845   8.657772  -0.038012   0.343616
     5  C    0.000982   0.106084  -0.003196  -0.038012   4.796796   0.011237
     6  H    0.069426  -0.089204  -0.140888   0.343616   0.011237   0.540789
     7  O    0.003425  -0.059336  -0.000897   0.002104   0.267234   0.000470
     8  H    0.138749  -0.035558  -0.089099   0.013917  -0.155725   0.003546
     9  H   -0.062529   0.008794   0.009166  -0.014853   0.299132  -0.009960
    10  N    0.024405  -0.029851   0.000258  -0.055165   0.004036  -0.166392
    11  H   -0.001620  -0.002417   0.003356   0.001215   0.000173  -0.012161
    12  H    0.001297   0.000011  -0.001400  -0.006192   0.000061  -0.010427
    13  H    0.000892  -0.000065  -0.000931  -0.005544   0.000035  -0.009681
               7          8          9         10         11         12
     1  C    0.003425   0.138749  -0.062529   0.024405  -0.001620   0.001297
     2  C   -0.059336  -0.035558   0.008794  -0.029851  -0.002417   0.000011
     3  H   -0.000897  -0.089099   0.009166   0.000258   0.003356  -0.001400
     4  O    0.002104   0.013917  -0.014853  -0.055165   0.001215  -0.006192
     5  C    0.267234  -0.155725   0.299132   0.004036   0.000173   0.000061
     6  H    0.000470   0.003546  -0.009960  -0.166392  -0.012161  -0.010427
     7  O    8.574148   0.016889  -0.058061   0.000045  -0.000007  -0.000002
     8  H    0.016889   1.500573   0.021053  -0.000708  -0.000233   0.000047
     9  H   -0.058061   0.021053   0.940693   0.003901   0.000282   0.000159
    10  N    0.000045  -0.000708   0.003901   6.269536   0.414548   0.410530
    11  H   -0.000007  -0.000233   0.000282   0.414548   0.666424  -0.059420
    12  H   -0.000002   0.000047   0.000159   0.410530  -0.059420   0.683235
    13  H   -0.000002   0.000038   0.000122   0.409558  -0.063232  -0.091398
              13
     1  C    0.000892
     2  C   -0.000065
     3  H   -0.000931
     4  O   -0.005544
     5  C    0.000035
     6  H   -0.009681
     7  O   -0.000002
     8  H    0.000038
     9  H    0.000122
    10  N    0.409558
    11  H   -0.063232
    12  H   -0.091398
    13  H    0.687963
 Mulliken charges:
               1
     1  C    1.013262
     2  C    0.474214
     3  H   -0.430577
     4  O   -0.854423
     5  C    0.711163
     6  H    0.469630
     7  O   -0.746011
     8  H   -0.413491
     9  H   -0.137899
    10  N   -0.284701
    11  H    0.053093
    12  H    0.073496
    13  H    0.072244
 Sum of Mulliken charges =  -0.00000
 Mulliken charges with hydrogens summed into heavy atoms:
               1
     1  C    0.582685
     2  C    0.060723
     4  O   -0.384793
     5  C    0.573263
     7  O   -0.746011
    10  N   -0.085867
 Electronic spatial extent (au):  <R**2>=           1097.3876
 Charge=             -0.0000 electrons
 Dipole moment (field-independent basis, Debye):
    X=             -9.3180    Y=              1.2141    Z=              0.0022  Tot=              9.3968
 Quadrupole moment (field-independent basis, Debye-Ang):
   XX=            -32.4690   YY=            -34.0604   ZZ=            -37.0905
   XY=              0.8549   XZ=             -0.0084   YZ=              0.0001
 Traceless Quadrupole moment (field-independent basis, Debye-Ang):
   XX=              2.0710   YY=              0.4796   ZZ=             -2.5505
   XY=              0.8549   XZ=             -0.0084   YZ=              0.0001
 Octapole moment (field-independent basis, Debye-Ang**2):
  XXX=           -169.5180  YYY=             -2.8203  ZZZ=              0.1007  XYY=             -7.7473
  XXY=              2.0944  XXZ=             -0.0001  XZZ=             -9.0116  YZZ=             -1.9994
  YYZ=             -0.0910  XYZ=              0.0054
 Hexadecapole moment (field-independent basis, Debye-Ang**3):
 XXXX=          -1083.3154 YYYY=           -113.0897 ZZZZ=            -42.0586 XXXY=             40.3814
 XXXZ=              0.0143 YYYX=              7.8380 YYYZ=              0.0433 ZZZX=             -0.4022
 ZZZY=             -0.0106 XXYY=           -194.7108 XXZZ=           -183.0231 YYZZ=            -29.8510
 XXYZ=             -0.0267 YYXZ=              0.3748 ZZXY=             -4.8804
 N-N= 2.161202222894D+02 E-N=-1.189307598307D+03  KE= 3.213225738162D+02
 Calling FoFJK, ICntrl=  10002127 FMM=F ISym2X=0 I1Cent= 0 IOpClX= 0 NMat=1 NMatS=1 NMatT=0.
 ***** Axes restored to original set *****
 -------------------------------------------------------------------
 Center     Atomic                   Forces (Hartrees/Bohr)
 Number     Number              X              Y              Z
 -------------------------------------------------------------------
      1        6           0.022778794    0.021150747    0.023061277
      2        6          -0.010685675    0.005607056   -0.026480602
      3        1          -0.001268976   -0.009488353    0.007104350
      4        8          -0.007491257   -0.006854593   -0.007693858
      5        6           0.001652435   -0.011459188    0.014779636
      6        1           0.000362595    0.000192150    0.000499736
      7        8          -0.007683233    0.001305822   -0.016294663
      8        1          -0.001688094   -0.006255947    0.003017594
      9        1           0.002144514    0.005503151   -0.001371014
     10        7           0.007810185    0.003451242    0.011842070
     11        1          -0.002120179   -0.001687633   -0.002382779
     12        1          -0.001633888   -0.000876312   -0.003171966
     13        1          -0.002177222   -0.000588141   -0.002909780
 -------------------------------------------------------------------
 Cartesian Forces:  Max     0.026480602 RMS     0.009700028

 GradGradGradGradGradGradGradGradGradGradGradGradGradGradGradGradGradGrad
 Berny optimization.
 FormGI is forming the generalized inverse of G from B-inverse, IUseBI=4.
 Internal  Forces:  Max     0.031091920 RMS     0.006625161
 Search for a local minimum.
 Step number   1 out of a maximum of   53
 All quantities printed in internal units (Hartrees-Bohrs-Radians)
 Mixed Optimization -- RFO/linear search
 Second derivative matrix not updated -- first step.
 ITU=  0
     Eigenvalues ---    0.00230   0.00230   0.00230   0.01112   0.01112
     Eigenvalues ---    0.02087   0.02128   0.02714   0.02959   0.07281
     Eigenvalues ---    0.08079   0.09864   0.16000   0.16000   0.16000
     Eigenvalues ---    0.16000   0.16000   0.16000   0.16000   0.22000
     Eigenvalues ---    0.22000   0.22000   0.33435   0.35285   0.35617
     Eigenvalues ---    0.35705   0.43354   0.43514   0.43520   0.49042
     Eigenvalues ---    0.51550   0.58514   0.92656
 RFO step:  Lambda=-4.82524956D-03 EMin= 2.30000000D-03
 Linear search not attempted -- first point.
 Iteration  1 RMS(Cart)=  0.11477000 RMS(Int)=  0.00517870
 Iteration  2 RMS(Cart)=  0.01275107 RMS(Int)=  0.00046119
 Iteration  3 RMS(Cart)=  0.00004984 RMS(Int)=  0.00046053
 Iteration  4 RMS(Cart)=  0.00000004 RMS(Int)=  0.00046053
 Variable       Old X    -DE/DX   Delta X   Delta X   Delta X     New X
                                 (Linear)    (Quad)   (Total)
    R1        2.52136   0.03109   0.00000   0.05270   0.05270   2.57406
    R2        2.04685   0.01097   0.00000   0.03040   0.03040   2.07725
    R3        2.58332  -0.00827   0.00000  -0.01589  -0.01589   2.56743
    R4        2.78514   0.00008   0.00000   0.00024   0.00024   2.78538
    R5        2.04545   0.00627   0.00000   0.01732   0.01732   2.06277
    R6        1.87543   0.00450   0.00000   0.00909   0.00910   1.88453
    R7        2.31732   0.01650   0.00000   0.01771   0.01771   2.33504
    R8        2.08295   0.00586   0.00000   0.01726   0.01726   2.10021
    R9        3.22900   0.00386   0.00000   0.04980   0.04979   3.27879
   R10        1.93936  -0.00228   0.00000  -0.00520  -0.00520   1.93415
   R11        1.93741  -0.00190   0.00000  -0.00432  -0.00432   1.93308
   R12        1.93733  -0.00188   0.00000  -0.00428  -0.00428   1.93305
    A1        2.14488  -0.00341   0.00000  -0.02286  -0.02286   2.12202
    A2        2.16344  -0.00272   0.00000  -0.01211  -0.01211   2.15133
    A3        1.97487   0.00613   0.00000   0.03497   0.03497   2.00983
    A4        2.12098   0.00564   0.00000   0.02506   0.02506   2.14604
    A5        2.13125  -0.00633   0.00000  -0.03387  -0.03387   2.09739
    A6        2.03096   0.00070   0.00000   0.00880   0.00880   2.03976
    A7        1.89235  -0.00090   0.00000  -0.00545  -0.00545   1.88690
    A8        2.11120   0.01027   0.00000   0.04566   0.04566   2.15686
    A9        2.03854  -0.00349   0.00000  -0.01288  -0.01288   2.02567
   A10        2.13344  -0.00677   0.00000  -0.03278  -0.03278   2.10066
   A11        1.86162  -0.00226   0.00000  -0.01250  -0.01167   1.84996
   A12        2.05816  -0.00254   0.00000  -0.01604  -0.01660   2.04156
   A13        2.06802  -0.00258   0.00000  -0.01633  -0.01685   2.05116
   A14        1.81368   0.00271   0.00000   0.01756   0.01826   1.83194
   A15        1.81365   0.00272   0.00000   0.01747   0.01823   1.83189
   A16        1.81840   0.00321   0.00000   0.01794   0.01654   1.83494
   A17        3.23334  -0.00121   0.00000  -0.18492  -0.18540   3.04794
   A18        3.14214  -0.00001   0.00000  -0.00117  -0.00114   3.14100
    D1        3.14157  -0.00000   0.00000  -0.00001  -0.00001   3.14156
    D2       -0.00001  -0.00000   0.00000  -0.00005  -0.00005  -0.00006
    D3       -0.00002   0.00000   0.00000   0.00004   0.00004   0.00002
    D4        3.14158   0.00000   0.00000   0.00001   0.00001  -3.14159
    D5        3.14146   0.00000   0.00000   0.00007   0.00007   3.14153
    D6       -0.00012   0.00000   0.00000   0.00012   0.00012  -0.00000
    D7       -3.14156  -0.00000   0.00000  -0.00004  -0.00004   3.14158
    D8        0.00002  -0.00000   0.00000  -0.00001  -0.00001   0.00001
    D9        0.00002   0.00000   0.00000  -0.00001  -0.00001   0.00001
   D10       -3.14159   0.00000   0.00000   0.00003   0.00003  -3.14156
   D11        3.11335  -0.00002   0.00000  -0.00043  -0.00048   3.11287
   D12       -1.15729   0.00058   0.00000   0.03878   0.03730  -1.11999
   D13        1.09410  -0.00055   0.00000  -0.03761  -0.03607   1.05803
         Item               Value     Threshold  Converged?
 Maximum Force            0.031092     0.000450     NO 
 RMS     Force            0.006625     0.000300     NO 
 Maximum Displacement     0.295131     0.001800     NO 
 RMS     Displacement     0.121516     0.001200     NO 
 Predicted change in Energy=-2.539004D-03
 GradGradGradGradGradGradGradGradGradGradGradGradGradGradGradGradGradGrad

                          Input orientation:                          
 ---------------------------------------------------------------------
 Center     Atomic      Atomic             Coordinates (Angstroms)
 Number     Number       Type             X           Y           Z
 ---------------------------------------------------------------------
      1          6           0       -0.464396    0.950091   -0.015994
      2          6           0       -1.229204    0.491657   -1.045709
      3          1           0       -0.306668    0.353798    0.893880
      4          8           0        0.154745    2.159377   -0.028508
      5          6           0       -1.460888    1.265215   -2.278790
      6          1           0        0.649115    2.263456    0.831303
      7          8           0       -2.152267    0.860647   -3.219612
      8          1           0       -1.703993   -0.489185   -0.982103
      9          1           0       -0.971291    2.261666   -2.329335
     10          7           0        1.454801    2.296911    2.367594
     11          1           0        1.964558    3.183875    2.399460
     12          1           0        0.862906    2.302342    3.201887
     13          1           0        2.161728    1.579498    2.546335
 ---------------------------------------------------------------------
                    Distance matrix (angstroms):
                    1          2          3          4          5
     1  C    0.000000
     2  C    1.362133   0.000000
     3  H    1.099234   2.152228   0.000000
     4  O    1.358626   2.394014   2.079379   0.000000
     5  C    2.492497   1.473959   3.496961   2.910938   0.000000
     6  H    1.919048   3.192261   2.136406   0.997251   3.888608
     7  O    3.622164   2.390408   4.536953   4.146341   1.235648
     8  H    2.131075   1.091569   2.486453   3.373297   2.195089
     9  H    2.707160   2.201623   3.804050   2.563635   1.111384
    10  N    3.343461   4.702495   3.008371   2.729536   5.581623
    11  H    4.089503   5.414550   3.928686   3.196882   6.107451
    12  H    3.734311   5.069278   3.239078   3.310195   6.042638
    13  H    3.722663   5.058123   3.213399   3.315729   6.041850
                    6          7          8          9         10
     6  H    0.000000
     7  O    5.121087   0.000000
     8  H    4.050011   2.651310   0.000000
     9  H    3.551810   2.037192   3.149455   0.000000
    10  N    1.735061   6.803724   5.381522   5.286615   0.000000
    11  H    2.244255   7.342997   6.195531   5.641913   1.023510
    12  H    2.380522   7.239158   5.646891   5.827551   1.022944
    13  H    2.386867   7.236950   5.627889   5.835523   1.022926
                   11         12         13
    11  H    0.000000
    12  H    1.623153   0.000000
    13  H    1.623106   1.624559   0.000000
 Stoichiometry    C3H7NO2
 Framework group  C1[X(C3H7NO2)]
 Deg. of freedom    33
 Full point group                 C1      NOp   1
 Largest Abelian subgroup         C1      NOp   1
 Largest concise Abelian subgroup C1      NOp   1
                         Standard orientation:                         
 ---------------------------------------------------------------------
 Center     Atomic      Atomic             Coordinates (Angstroms)
 Number     Number       Type             X           Y           Z
 ---------------------------------------------------------------------
      1          6           0       -0.263679    0.599514    0.000175
      2          6           0        1.088461    0.764200    0.000032
      3          1           0       -0.948374    1.459460    0.000271
      4          8           0       -0.866028   -0.618288    0.000277
      5          6           0        2.034001   -0.366512   -0.000057
      6          1           0       -1.853067   -0.475936    0.000428
      7          8           0        3.262130   -0.230394   -0.000197
      8          1           0        1.518950    1.767296   -0.000044
      9          1           0        1.581352   -1.381541   -0.000011
     10          7           0       -3.539674   -0.068760   -0.000326
     11          1           0       -4.044616   -0.958607   -0.028222
     12          1           0       -3.900790    0.414029    0.826067
     13          1           0       -3.897252    0.462864   -0.797753
 ---------------------------------------------------------------------
 Rotational constants (GHZ):          16.8260835           1.0560477           0.9989058
 Standard basis: Aug-CC-pVDZ (5D, 7F)
 There are   213 symmetry adapted cartesian basis functions of A   symmetry.
 There are   201 symmetry adapted basis functions of A   symmetry.
   201 basis functions,   335 primitive gaussians,   213 cartesian basis functions
    24 alpha electrons       24 beta electrons
       nuclear repulsion energy       215.0417626183 Hartrees.
 NAtoms=   13 NActive=   13 NUniq=   13 SFac= 1.00D+00 NAtFMM=   60 NAOKFM=F Big=F
 Integral buffers will be    131072 words long.
 Raffenetti 1 integral format.
 Two-electron integral symmetry is turned on.
 One-electron integrals computed using PRISM.
 NBasis=   201 RedAO= T EigKep=  2.42D-05  NBF=   201
 NBsUse=   201 1.00D-06 EigRej= -1.00D+00 NBFU=   201
 Initial guess from the checkpoint file:  "/scr/Gau-54136.chk"
 B after Tr=     0.000000    0.000000   -0.000000
         Rot=    0.999994    0.000067    0.000004   -0.003571 Ang=   0.41 deg.
 ExpMin= 2.97D-02 ExpMax= 1.17D+04 ExpMxC= 4.01D+02 IAcc=3 IRadAn=         5 AccDes= 0.00D+00
 Harris functional with IExCor=  205 and IRadAn=       5 diagonalized for initial guess.
 HarFok:  IExCor=  205 AccDes= 0.00D+00 IRadAn=         5 IDoV= 1 UseB2=F ITyADJ=14
 ICtDFT=  3500011 ScaDFX=  1.000000  1.000000  1.000000  1.000000
 FoFCou: FMM=F IPFlag=           0 FMFlag=      100000 FMFlg1=           0
         NFxFlg=           0 DoJE=T BraDBF=F KetDBF=T FulRan=T
         wScrn=  0.000000 ICntrl=       500 IOpCl=  0 I1Cent=   200000004 NGrid=           0
         NMat0=    1 NMatS0=      1 NMatT0=    0 NMatD0=    1 NMtDS0=    0 NMtDT0=    0
 Petite list used in FoFCou.
 Requested convergence on RMS density matrix=1.00D-08 within 128 cycles.
 Requested convergence on MAX density matrix=1.00D-06.
 Requested convergence on             energy=1.00D-06.
 No special actions if energy rises.
 SCF Done:  E(RHF) =  -321.877024348     A.U. after   13 cycles
            NFock= 13  Conv=0.20D-08     -V/T= 2.0023
 ExpMin= 2.97D-02 ExpMax= 1.17D+04 ExpMxC= 4.01D+02 IAcc=3 IRadAn=         5 AccDes= 0.00D+00
 HarFok:  IExCor=  205 AccDes= 0.00D+00 IRadAn=         5 IDoV=-2 UseB2=F ITyADJ=14
 ICtDFT= 12500011 ScaDFX=  1.000000  1.000000  1.000000  1.000000
 Range of M.O.s used for correlation:     7   201
 NBasis=   201 NAE=    24 NBE=    24 NFC=     6 NFV=     0
 NROrb=    195 NOA=    18 NOB=    18 NVA=   177 NVB=   177

 **** Warning!!: The largest alpha MO coefficient is  0.57866134D+02

 Fully direct method using O(ONN) memory.
 JobTyp=1 Pass  1:  I=   7 to  24 NPSUse= 40 ParTrn=T ParDer=T DoDerP=T.
 Spin components of T(2) and E(2):
     alpha-alpha T2 =       0.4253228618D-01 E2=     -0.1294929042D+00
     alpha-beta  T2 =       0.2400024905D+00 E2=     -0.7487282738D+00
     beta-beta   T2 =       0.4253228618D-01 E2=     -0.1294929042D+00
 ANorm=    0.1151115573D+01
 E2 =    -0.1007714082D+01 EUMP2 =    -0.32288473843065D+03
          IDoAtm=1111111111111
          Differentiating once with respect to electric field.
                with respect to dipole field.
          Differentiating once with respect to nuclear coordinates.
 Keep R1 ints in memory in canonical form, NReq=215103515.
          There are     1 degrees of freedom in the 1st order CPHF.  IDoFFX=0 NUNeed=     1.
 LinEq1:  Iter=  0 NonCon=     1 RMS=4.61D-03 Max=1.29D-01 NDo=     1
 AX will form     1 AO Fock derivatives at one time.
 LinEq1:  Iter=  1 NonCon=     1 RMS=1.39D-03 Max=1.87D-02 NDo=     1
 LinEq1:  Iter=  2 NonCon=     1 RMS=5.15D-04 Max=1.03D-02 NDo=     1
 LinEq1:  Iter=  3 NonCon=     1 RMS=1.69D-04 Max=3.42D-03 NDo=     1
 LinEq1:  Iter=  4 NonCon=     1 RMS=6.16D-05 Max=1.14D-03 NDo=     1
 LinEq1:  Iter=  5 NonCon=     1 RMS=2.33D-05 Max=2.86D-04 NDo=     1
 LinEq1:  Iter=  6 NonCon=     1 RMS=8.28D-06 Max=2.23D-04 NDo=     1
 LinEq1:  Iter=  7 NonCon=     1 RMS=2.40D-06 Max=4.91D-05 NDo=     1
 LinEq1:  Iter=  8 NonCon=     1 RMS=1.04D-06 Max=3.67D-05 NDo=     1
 LinEq1:  Iter=  9 NonCon=     1 RMS=2.65D-07 Max=2.63D-06 NDo=     1
 LinEq1:  Iter= 10 NonCon=     1 RMS=6.85D-08 Max=1.24D-06 NDo=     1
 LinEq1:  Iter= 11 NonCon=     1 RMS=2.02D-08 Max=3.06D-07 NDo=     1
 LinEq1:  Iter= 12 NonCon=     1 RMS=7.01D-09 Max=1.03D-07 NDo=     1
 LinEq1:  Iter= 13 NonCon=     1 RMS=1.81D-09 Max=2.12D-08 NDo=     1
 LinEq1:  Iter= 14 NonCon=     1 RMS=4.04D-10 Max=4.60D-09 NDo=     1
 LinEq1:  Iter= 15 NonCon=     1 RMS=1.34D-10 Max=2.36D-09 NDo=     1
 LinEq1:  Iter= 16 NonCon=     0 RMS=2.82D-11 Max=2.54D-10 NDo=     1
 Linear equations converged to 1.000D-10 1.000D-09 after    16 iterations.
 End of Minotr F.D. properties file   721 does not exist.
 End of Minotr F.D. properties file   722 does not exist.
 End of Minotr F.D. properties file   788 does not exist.
 Calling FoFJK, ICntrl=  10002127 FMM=F ISym2X=0 I1Cent= 0 IOpClX= 0 NMat=1 NMatS=1 NMatT=0.
 ***** Axes restored to original set *****
 -------------------------------------------------------------------
 Center     Atomic                   Forces (Hartrees/Bohr)
 Number     Number              X              Y              Z
 -------------------------------------------------------------------
      1        6           0.004647884    0.007043835    0.001965564
      2        6          -0.002595277    0.001950946   -0.007030527
      3        1          -0.001181703   -0.000973975   -0.001317448
      4        8          -0.002366627   -0.003576038   -0.000977333
      5        6           0.001930496   -0.001466498    0.005241205
      6        1          -0.002404988   -0.003424284   -0.001318253
      7        8          -0.000763962   -0.000785377   -0.000696110
      8        1           0.000781303   -0.000749321    0.002279394
      9        1           0.000334080    0.000558923    0.000090664
     10        7           0.004445647    0.002225192    0.006527945
     11        1          -0.000719550   -0.000607356   -0.000761715
     12        1          -0.001115326   -0.000055106   -0.001945314
     13        1          -0.000991977   -0.000140942   -0.002058071
 -------------------------------------------------------------------
 Cartesian Forces:  Max     0.007043835 RMS     0.002767131

 GradGradGradGradGradGradGradGradGradGradGradGradGradGradGradGradGradGrad
 Berny optimization.
 Using GEDIIS/GDIIS optimizer.
 FormGI is forming the generalized inverse of G from B-inverse, IUseBI=4.
 Internal  Forces:  Max     0.006397210 RMS     0.001712576
 Search for a local minimum.
 Step number   2 out of a maximum of   53
 All quantities printed in internal units (Hartrees-Bohrs-Radians)
 Mixed Optimization -- RFO/linear search
 Update second derivatives using D2CorX and points    1    2
 DE= -2.40D-03 DEPred=-2.54D-03 R= 9.46D-01
 TightC=F SS=  1.41D+00  RLast= 2.31D-01 DXNew= 5.0454D-01 6.9256D-01
 Trust test= 9.46D-01 RLast= 2.31D-01 DXMaxT set to 5.05D-01
 ITU=  1  0
 Use linear search instead of GDIIS.
     Eigenvalues ---    0.00230   0.00230   0.00314   0.01112   0.01112
     Eigenvalues ---    0.02064   0.02128   0.02704   0.02959   0.06773
     Eigenvalues ---    0.08518   0.09786   0.13192   0.16000   0.16000
     Eigenvalues ---    0.16000   0.16000   0.16000   0.16102   0.21910
     Eigenvalues ---    0.22000   0.22858   0.33007   0.34483   0.35678
     Eigenvalues ---    0.37083   0.43155   0.43438   0.43517   0.48532
     Eigenvalues ---    0.49444   0.60223   0.91940
 RFO step:  Lambda=-2.51131147D-03 EMin= 2.29999302D-03
 Quartic linear search produced a step of  0.00986.
 Maximum step size (   0.505) exceeded in Quadratic search.
    -- Step size scaled by   0.875
 Iteration  1 RMS(Cart)=  0.13144405 RMS(Int)=  0.04601590
 Iteration  2 RMS(Cart)=  0.12476695 RMS(Int)=  0.01569298
 Iteration  3 RMS(Cart)=  0.05783245 RMS(Int)=  0.00147160
 Iteration  4 RMS(Cart)=  0.00265885 RMS(Int)=  0.00062949
 Iteration  5 RMS(Cart)=  0.00000049 RMS(Int)=  0.00062949
 Variable       Old X    -DE/DX   Delta X   Delta X   Delta X     New X
                                 (Linear)    (Quad)   (Total)
    R1        2.57406   0.00043   0.00052   0.03024   0.03076   2.60482
    R2        2.07725  -0.00073   0.00030   0.01511   0.01541   2.09266
    R3        2.56743  -0.00640  -0.00016  -0.02036  -0.02052   2.54691
    R4        2.78538  -0.00500   0.00000  -0.01292  -0.01292   2.77246
    R5        2.06277   0.00047   0.00017   0.01089   0.01106   2.07382
    R6        1.88453  -0.00022   0.00009   0.00470   0.00469   1.88923
    R7        2.33504   0.00121   0.00017   0.01117   0.01134   2.34638
    R8        2.10021   0.00064   0.00017   0.01142   0.01159   2.11180
    R9        3.27879   0.00234   0.00049   0.05577   0.05632   3.33511
   R10        1.93415  -0.00091  -0.00005  -0.00485  -0.00490   1.92926
   R11        1.93308  -0.00094  -0.00004  -0.00442  -0.00446   1.92862
   R12        1.93305  -0.00095  -0.00004  -0.00440  -0.00445   1.92860
    A1        2.12202  -0.00246  -0.00023  -0.02590  -0.02612   2.09590
    A2        2.15133   0.00101  -0.00012  -0.00254  -0.00266   2.14867
    A3        2.00983   0.00145   0.00034   0.02844   0.02879   2.03862
    A4        2.14604  -0.00010   0.00025   0.01352   0.01377   2.15981
    A5        2.09739  -0.00251  -0.00033  -0.03317  -0.03350   2.06388
    A6        2.03976   0.00261   0.00009   0.01965   0.01974   2.05949
    A7        1.88690  -0.00122  -0.00005  -0.00996  -0.01001   1.87689
    A8        2.15686  -0.00062   0.00045   0.02282   0.02327   2.18013
    A9        2.02567   0.00017  -0.00013  -0.00668  -0.00681   2.01886
   A10        2.10066   0.00045  -0.00032  -0.01613  -0.01645   2.08420
   A11        1.84996   0.00008  -0.00011  -0.00415  -0.00313   1.84682
   A12        2.04156  -0.00202  -0.00016  -0.02164  -0.02290   2.01866
   A13        2.05116  -0.00211  -0.00017  -0.02236  -0.02333   2.02783
   A14        1.83194   0.00143   0.00018   0.01996   0.02075   1.85269
   A15        1.83189   0.00143   0.00018   0.01981   0.02141   1.85330
   A16        1.83494   0.00188   0.00016   0.01722   0.01569   1.85063
   A17        3.04794   0.00294  -0.00183   0.49293   0.49039   3.53833
   A18        3.14100   0.00003  -0.00001   0.00577   0.00586   3.14686
    D1        3.14156  -0.00000  -0.00000  -0.00002  -0.00002   3.14154
    D2       -0.00006  -0.00000  -0.00000  -0.00006  -0.00005  -0.00011
    D3        0.00002   0.00000   0.00000   0.00003   0.00003   0.00005
    D4       -3.14159  -0.00000   0.00000  -0.00000  -0.00001   3.14159
    D5        3.14153   0.00000   0.00000   0.00012   0.00011  -3.14154
    D6       -0.00000   0.00000   0.00000   0.00018   0.00016   0.00016
    D7        3.14158   0.00000  -0.00000   0.00002   0.00002  -3.14158
    D8        0.00001  -0.00000  -0.00000  -0.00009  -0.00009  -0.00008
    D9        0.00001   0.00000  -0.00000   0.00006   0.00006   0.00007
   D10       -3.14156  -0.00000   0.00000  -0.00006  -0.00006   3.14157
   D11        3.11287  -0.00000  -0.00000   0.00299   0.00233   3.11520
   D12       -1.11999   0.00012   0.00037  -0.07052  -0.07178  -1.19177
   D13        1.05803  -0.00011  -0.00036   0.07046   0.07234   1.13037
         Item               Value     Threshold  Converged?
 Maximum Force            0.006397     0.000450     NO 
 RMS     Force            0.001713     0.000300     NO 
 Maximum Displacement     0.755722     0.001800     NO 
 RMS     Displacement     0.302378     0.001200     NO 
 Predicted change in Energy=-1.567205D-03
 GradGradGradGradGradGradGradGradGradGradGradGradGradGradGradGradGradGrad

                          Input orientation:                          
 ---------------------------------------------------------------------
 Center     Atomic      Atomic             Coordinates (Angstroms)
 Number     Number       Type             X           Y           Z
 ---------------------------------------------------------------------
      1          6           0       -0.563440    0.743498   -0.006363
      2          6           0       -1.296317    0.451573   -1.136710
      3          1           0       -0.512507    0.014658    0.825804
      4          8           0        0.115630    1.896689    0.153299
      5          6           0       -1.418795    1.356566   -2.284940
      6          1           0        0.559324    1.863545    1.048569
      7          8           0       -2.072407    1.115946   -3.312845
      8          1           0       -1.818806   -0.512399   -1.182448
      9          1           0       -0.871410    2.326880   -2.197144
     10          7           0        1.540685    2.431668    2.400940
     11          1           0        1.902122    3.343764    2.118596
     12          1           0        1.040012    2.583549    3.277212
     13          1           0        2.355056    1.863416    2.636437
 ---------------------------------------------------------------------
                    Distance matrix (angstroms):
                    1          2          3          4          5
     1  C    0.000000
     2  C    1.378409   0.000000
     3  H    1.107386   2.157942   0.000000
     4  O    1.347768   2.397098   2.094960   0.000000
     5  C    2.509860   1.467121   3.506965   2.931075   0.000000
     6  H    1.904727   3.195702   2.148680   0.999736   3.909253
     7  O    3.653562   2.404011   4.557909   4.172675   1.241650
     8  H    2.129882   1.097420   2.453015   3.366002   2.206474
     9  H    2.720563   2.195869   3.822747   2.585322   1.117518
    10  N    3.615573   4.948164   3.540987   2.714568   5.645515
    11  H    4.166033   5.402943   4.310996   3.024562   5.862472
    12  H    4.091297   5.430144   3.875424   3.329428   6.203930
    13  H    4.093437   5.437137   3.862539   3.343966   6.222443
                    6          7          8          9         10
     6  H    0.000000
     7  O    5.148479   0.000000
     8  H    4.034606   2.693402   0.000000
     9  H    3.577196   2.038024   3.160486   0.000000
    10  N    1.764863   6.887154   5.726638   5.193415   0.000000
    11  H    2.266961   7.089471   6.293822   5.229928   1.020918
    12  H    2.390882   7.434370   6.135658   5.804135   1.020584
    13  H    2.397077   7.453529   6.135919   5.829956   1.020573
                   11         12         13
    11  H    0.000000
    12  H    1.632039   0.000000
    13  H    1.632403   1.630498   0.000000
 Stoichiometry    C3H7NO2
 Framework group  C1[X(C3H7NO2)]
 Deg. of freedom    33
 Full point group                 C1      NOp   1
 Largest Abelian subgroup         C1      NOp   1
 Largest concise Abelian subgroup C1      NOp   1
                         Standard orientation:                         
 ---------------------------------------------------------------------
 Center     Atomic      Atomic             Coordinates (Angstroms)
 Number     Number       Type             X           Y           Z
 ---------------------------------------------------------------------
      1          6           0       -0.174226    0.803745   -0.000977
      2          6           0        1.204147    0.793788    0.000453
      3          1           0       -0.722422    1.765922   -0.000500
      4          8           0       -0.918566   -0.319835   -0.002861
      5          6           0        2.010362   -0.431962    0.000024
      6          1           0       -1.879642   -0.044509   -0.003644
      7          8           0        3.251541   -0.466152    0.001300
      8          1           0        1.730574    1.756701    0.001946
      9          1           0        1.434900   -1.389922   -0.001489
     10          7           0       -3.632278   -0.251830    0.001389
     11          1           0       -3.793336   -1.259543   -0.027762
     12          1           0       -4.115234    0.088914    0.833399
     13          1           0       -4.134393    0.139718   -0.796195
 ---------------------------------------------------------------------
 Rotational constants (GHZ):          14.5720950           1.0282245           0.9653701
 Standard basis: Aug-CC-pVDZ (5D, 7F)
 There are   213 symmetry adapted cartesian basis functions of A   symmetry.
 There are   201 symmetry adapted basis functions of A   symmetry.
   201 basis functions,   335 primitive gaussians,   213 cartesian basis functions
    24 alpha electrons       24 beta electrons
       nuclear repulsion energy       213.2646210368 Hartrees.
 NAtoms=   13 NActive=   13 NUniq=   13 SFac= 1.00D+00 NAtFMM=   60 NAOKFM=F Big=F
 Integral buffers will be    131072 words long.
 Raffenetti 1 integral format.
 Two-electron integral symmetry is turned on.
 One-electron integrals computed using PRISM.
 NBasis=   201 RedAO= T EigKep=  3.00D-05  NBF=   201
 NBsUse=   201 1.00D-06 EigRej= -1.00D+00 NBFU=   201
 Initial guess from the checkpoint file:  "/scr/Gau-54136.chk"
 B after Tr=    -0.000000   -0.000000    0.000000
         Rot=    0.999980   -0.000481   -0.000016    0.006383 Ang=  -0.73 deg.
 ExpMin= 2.97D-02 ExpMax= 1.17D+04 ExpMxC= 4.01D+02 IAcc=3 IRadAn=         5 AccDes= 0.00D+00
 Harris functional with IExCor=  205 and IRadAn=       5 diagonalized for initial guess.
 HarFok:  IExCor=  205 AccDes= 0.00D+00 IRadAn=         5 IDoV= 1 UseB2=F ITyADJ=14
 ICtDFT=  3500011 ScaDFX=  1.000000  1.000000  1.000000  1.000000
 FoFCou: FMM=F IPFlag=           0 FMFlag=      100000 FMFlg1=           0
         NFxFlg=           0 DoJE=T BraDBF=F KetDBF=T FulRan=T
         wScrn=  0.000000 ICntrl=       500 IOpCl=  0 I1Cent=   200000004 NGrid=           0
         NMat0=    1 NMatS0=      1 NMatT0=    0 NMatD0=    1 NMtDS0=    0 NMtDT0=    0
 Petite list used in FoFCou.
 Requested convergence on RMS density matrix=1.00D-08 within 128 cycles.
 Requested convergence on MAX density matrix=1.00D-06.
 Requested convergence on             energy=1.00D-06.
 No special actions if energy rises.
 SCF Done:  E(RHF) =  -321.874030925     A.U. after   14 cycles
            NFock= 14  Conv=0.88D-08     -V/T= 2.0025
 ExpMin= 2.97D-02 ExpMax= 1.17D+04 ExpMxC= 4.01D+02 IAcc=3 IRadAn=         5 AccDes= 0.00D+00
 HarFok:  IExCor=  205 AccDes= 0.00D+00 IRadAn=         5 IDoV=-2 UseB2=F ITyADJ=14
 ICtDFT= 12500011 ScaDFX=  1.000000  1.000000  1.000000  1.000000
 Range of M.O.s used for correlation:     7   201
 NBasis=   201 NAE=    24 NBE=    24 NFC=     6 NFV=     0
 NROrb=    195 NOA=    18 NOB=    18 NVA=   177 NVB=   177

 **** Warning!!: The largest alpha MO coefficient is  0.40419485D+02

 Fully direct method using O(ONN) memory.
 JobTyp=1 Pass  1:  I=   7 to  24 NPSUse= 40 ParTrn=T ParDer=T DoDerP=T.
 Spin components of T(2) and E(2):
     alpha-alpha T2 =       0.4273576370D-01 E2=     -0.1296660427D+00
     alpha-beta  T2 =       0.2413192468D+00 E2=     -0.7498504765D+00
     beta-beta   T2 =       0.4273576370D-01 E2=     -0.1296660427D+00
 ANorm=    0.1151864043D+01
 E2 =    -0.1009182562D+01 EUMP2 =    -0.32288321348727D+03
          IDoAtm=1111111111111
          Differentiating once with respect to electric field.
                with respect to dipole field.
          Differentiating once with respect to nuclear coordinates.
 Keep R1 ints in memory in canonical form, NReq=215099497.
          There are     1 degrees of freedom in the 1st order CPHF.  IDoFFX=0 NUNeed=     1.
 LinEq1:  Iter=  0 NonCon=     1 RMS=4.66D-03 Max=1.29D-01 NDo=     1
 AX will form     1 AO Fock derivatives at one time.
 LinEq1:  Iter=  1 NonCon=     1 RMS=1.42D-03 Max=1.76D-02 NDo=     1
 LinEq1:  Iter=  2 NonCon=     1 RMS=5.29D-04 Max=1.07D-02 NDo=     1
 LinEq1:  Iter=  3 NonCon=     1 RMS=1.79D-04 Max=3.62D-03 NDo=     1
 LinEq1:  Iter=  4 NonCon=     1 RMS=6.55D-05 Max=1.16D-03 NDo=     1
 LinEq1:  Iter=  5 NonCon=     1 RMS=2.53D-05 Max=4.28D-04 NDo=     1
 LinEq1:  Iter=  6 NonCon=     1 RMS=9.19D-06 Max=2.59D-04 NDo=     1
 LinEq1:  Iter=  7 NonCon=     1 RMS=2.60D-06 Max=5.18D-05 NDo=     1
 LinEq1:  Iter=  8 NonCon=     1 RMS=1.14D-06 Max=3.83D-05 NDo=     1
 LinEq1:  Iter=  9 NonCon=     1 RMS=2.90D-07 Max=2.81D-06 NDo=     1
 LinEq1:  Iter= 10 NonCon=     1 RMS=7.39D-08 Max=1.32D-06 NDo=     1
 LinEq1:  Iter= 11 NonCon=     1 RMS=2.12D-08 Max=3.55D-07 NDo=     1
 LinEq1:  Iter= 12 NonCon=     1 RMS=7.34D-09 Max=9.58D-08 NDo=     1
 LinEq1:  Iter= 13 NonCon=     1 RMS=1.96D-09 Max=2.16D-08 NDo=     1
 LinEq1:  Iter= 14 NonCon=     1 RMS=4.47D-10 Max=5.23D-09 NDo=     1
 LinEq1:  Iter= 15 NonCon=     1 RMS=1.51D-10 Max=2.82D-09 NDo=     1
 LinEq1:  Iter= 16 NonCon=     0 RMS=3.03D-11 Max=3.25D-10 NDo=     1
 Linear equations converged to 1.000D-10 1.000D-09 after    16 iterations.
 End of Minotr F.D. properties file   721 does not exist.
 End of Minotr F.D. properties file   722 does not exist.
 End of Minotr F.D. properties file   788 does not exist.
 Calling FoFJK, ICntrl=  10002127 FMM=F ISym2X=0 I1Cent= 0 IOpClX= 0 NMat=1 NMatS=1 NMatT=0.
 ***** Axes restored to original set *****
 -------------------------------------------------------------------
 Center     Atomic                   Forces (Hartrees/Bohr)
 Number     Number              X              Y              Z
 -------------------------------------------------------------------
      1        6          -0.009772536   -0.006100556   -0.012852840
      2        6           0.002133610   -0.003031299    0.007184175
      3        1          -0.000286681    0.004190004   -0.004779468
      4        8           0.001118901   -0.006276141    0.008361781
      5        6           0.001086381    0.004615480   -0.002512010
      6        1           0.002124809    0.010411033   -0.006146231
      7        8           0.002717328   -0.001781021    0.007064504
      8        1           0.001661979    0.002710034    0.000510085
      9        1          -0.001020388   -0.002436547    0.000458677
     10        7           0.000708783   -0.002391760    0.003840929
     11        1          -0.000527174   -0.000217867   -0.000927095
     12        1          -0.000205438    0.000235952   -0.000007126
     13        1           0.000260426    0.000072688   -0.000195380
 -------------------------------------------------------------------
 Cartesian Forces:  Max     0.012852840 RMS     0.004512582

 GradGradGradGradGradGradGradGradGradGradGradGradGradGradGradGradGradGrad
 Berny optimization.
 Using GEDIIS/GDIIS optimizer.
 FormGI is forming the generalized inverse of G from B-inverse, IUseBI=4.
 Internal  Forces:  Max     0.013933051 RMS     0.003565626
 Search for a local minimum.
 Step number   3 out of a maximum of   53
 All quantities printed in internal units (Hartrees-Bohrs-Radians)
 Mixed Optimization -- RFO/linear search
 Update second derivatives using D2CorX and points    1    3    2
 DE=  1.52D-03 DEPred=-1.57D-03 R=-9.73D-01
 Trust test=-9.73D-01 RLast= 5.13D-01 DXMaxT set to 2.52D-01
 ITU= -1  1  0
 Use linear search instead of GDIIS.
     Eigenvalues ---    0.00230   0.00230   0.01112   0.01112   0.01932
     Eigenvalues ---    0.02037   0.02127   0.02693   0.02959   0.05942
     Eigenvalues ---    0.08292   0.10367   0.12240   0.16000   0.16000
     Eigenvalues ---    0.16000   0.16000   0.16053   0.17247   0.21907
     Eigenvalues ---    0.22006   0.23113   0.32983   0.34107   0.35678
     Eigenvalues ---    0.36795   0.43116   0.43438   0.43517   0.49086
     Eigenvalues ---    0.49572   0.61360   0.92682
 RFO step:  Lambda=-5.01618530D-04 EMin= 2.29997969D-03
 Quartic linear search produced a step of -0.71200.
 Iteration  1 RMS(Cart)=  0.12191048 RMS(Int)=  0.02829327
 Iteration  2 RMS(Cart)=  0.11329766 RMS(Int)=  0.00496664
 Iteration  3 RMS(Cart)=  0.00959145 RMS(Int)=  0.00039909
 Iteration  4 RMS(Cart)=  0.00000283 RMS(Int)=  0.00039908
 Iteration  5 RMS(Cart)=  0.00000000 RMS(Int)=  0.00039908
 Variable       Old X    -DE/DX   Delta X   Delta X   Delta X     New X
                                 (Linear)    (Quad)   (Total)
    R1        2.60482  -0.01393  -0.02190  -0.00092  -0.02282   2.58199
    R2        2.09266  -0.00636  -0.01097  -0.00434  -0.01531   2.07735
    R3        2.54691   0.00391   0.01461  -0.01237   0.00224   2.54915
    R4        2.77246  -0.00391   0.00920  -0.01800  -0.00880   2.76366
    R5        2.07382  -0.00319  -0.00787   0.00047  -0.00740   2.06642
    R6        1.88923  -0.00228  -0.00334  -0.00095  -0.00430   1.88493
    R7        2.34638  -0.00693  -0.00808   0.00097  -0.00711   2.33927
    R8        2.11180  -0.00258  -0.00825   0.00147  -0.00679   2.10502
    R9        3.33511   0.00146  -0.04010   0.04320   0.00311   3.33821
   R10        1.92926  -0.00012   0.00349  -0.00278   0.00070   1.92996
   R11        1.92862   0.00013   0.00318  -0.00260   0.00057   1.92920
   R12        1.92860   0.00012   0.00317  -0.00261   0.00055   1.92915
    A1        2.09590  -0.00145   0.01860  -0.01914  -0.00054   2.09536
    A2        2.14867   0.00292   0.00190   0.00743   0.00932   2.15799
    A3        2.03862  -0.00146  -0.02050   0.01171  -0.00878   2.02984
    A4        2.15981  -0.00302  -0.00980  -0.00204  -0.01184   2.14797
    A5        2.06388   0.00108   0.02385  -0.01839   0.00546   2.06935
    A6        2.05949   0.00194  -0.01405   0.02043   0.00638   2.06587
    A7        1.87689   0.00822   0.00713   0.00636   0.01349   1.89038
    A8        2.18013  -0.00499  -0.01657  -0.00511  -0.02167   2.15845
    A9        2.01886   0.00172   0.00485   0.00121   0.00605   2.02491
   A10        2.08420   0.00327   0.01172   0.00390   0.01562   2.09982
   A11        1.84682  -0.00215   0.00223  -0.00316  -0.00004   1.84679
   A12        2.01866   0.00048   0.01630  -0.01486   0.00118   2.01984
   A13        2.02783   0.00059   0.01661  -0.01525   0.00106   2.02889
   A14        1.85269  -0.00003  -0.01477   0.01203  -0.00189   1.85081
   A15        1.85330  -0.00008  -0.01525   0.01207  -0.00243   1.85087
   A16        1.85063   0.00103  -0.01117   0.01355   0.00140   1.85203
   A17        3.53833  -0.00836  -0.34916  -0.02624  -0.37581   3.16252
   A18        3.14686  -0.00010  -0.00417  -0.00165  -0.00582   3.14104
    D1        3.14154   0.00000   0.00001  -0.00001   0.00000   3.14154
    D2       -0.00011   0.00000   0.00004  -0.00002   0.00002  -0.00010
    D3        0.00005   0.00000  -0.00002   0.00003   0.00001   0.00007
    D4        3.14159   0.00000   0.00000   0.00002   0.00003  -3.14157
    D5       -3.14154  -0.00000  -0.00008   0.00009   0.00001  -3.14153
    D6        0.00016   0.00000  -0.00011   0.00014   0.00002   0.00018
    D7       -3.14158  -0.00000  -0.00002  -0.00001  -0.00002   3.14158
    D8       -0.00008   0.00000   0.00007  -0.00002   0.00005  -0.00003
    D9        0.00007  -0.00000  -0.00004   0.00001  -0.00004   0.00004
   D10        3.14157   0.00000   0.00004  -0.00000   0.00004  -3.14158
   D11        3.11520  -0.00003  -0.00166   0.00109  -0.00048   3.11472
   D12       -1.19177   0.00027   0.05111   0.01382   0.06357  -1.12820
   D13        1.13037  -0.00023  -0.05151  -0.01086  -0.06110   1.06927
         Item               Value     Threshold  Converged?
 Maximum Force            0.013933     0.000450     NO 
 RMS     Force            0.003566     0.000300     NO 
 Maximum Displacement     0.584737     0.001800     NO 
 RMS     Displacement     0.232631     0.001200     NO 
 Predicted change in Energy=-4.950886D-04
 GradGradGradGradGradGradGradGradGradGradGradGradGradGradGradGradGradGrad

                          Input orientation:                          
 ---------------------------------------------------------------------
 Center     Atomic      Atomic             Coordinates (Angstroms)
 Number     Number       Type             X           Y           Z
 ---------------------------------------------------------------------
      1          6           0       -0.492369    0.907830   -0.028225
      2          6           0       -1.251867    0.482784   -1.081488
      3          1           0       -0.370284    0.266986    0.856556
      4          8           0        0.140063    2.098890    0.004576
      5          6           0       -1.458562    1.280613   -2.289605
      6          1           0        0.623866    2.172975    0.873699
      7          8           0       -2.144108    0.906622   -3.250086
      8          1           0       -1.728107   -0.499637   -1.019892
      9          1           0       -0.955769    2.274384   -2.310866
     10          7           0        1.493568    2.337231    2.402484
     11          1           0        1.969211    3.239828    2.356496
     12          1           0        0.912985    2.366702    3.241690
     13          1           0        2.220518    1.644144    2.585070
 ---------------------------------------------------------------------
                    Distance matrix (angstroms):
                    1          2          3          4          5
     1  C    0.000000
     2  C    1.366332   0.000000
     3  H    1.099284   2.140040   0.000000
     4  O    1.348951   2.393491   2.083794   0.000000
     5  C    2.487234   1.462464   3.479960   2.913494   0.000000
     6  H    1.913122   3.193410   2.149749   0.997460   3.890926
     7  O    3.620584   2.382972   4.518860   4.151116   1.237888
     8  H    2.119296   1.093504   2.439764   3.360348   2.203206
     9  H    2.700492   2.192916   3.795393   2.567668   1.113927
    10  N    3.448983   4.807748   3.185868   2.763828   5.643333
    11  H    4.145418   5.458605   4.069503   3.190463   6.097082
    12  H    3.846514   5.188988   3.427018   3.338868   6.115476
    13  H    3.838129   5.181685   3.405376   3.345749   6.118026
                    6          7          8          9         10
     6  H    0.000000
     7  O    5.125517   0.000000
     8  H    4.032408   2.669156   0.000000
     9  H    3.556260   2.040847   3.155681   0.000000
    10  N    1.766507   6.872472   5.489961   5.312144   0.000000
    11  H    2.268660   7.334645   6.249301   5.592125   1.021290
    12  H    2.393429   7.322623   5.775149   5.859321   1.020888
    13  H    2.399532   7.324135   5.760485   5.869940   1.020865
                   11         12         13
    11  H    0.000000
    12  H    1.631420   0.000000
    13  H    1.631444   1.631834   0.000000
 Stoichiometry    C3H7NO2
 Framework group  C1[X(C3H7NO2)]
 Deg. of freedom    33
 Full point group                 C1      NOp   1
 Largest Abelian subgroup         C1      NOp   1
 Largest concise Abelian subgroup C1      NOp   1
                         Standard orientation:                         
 ---------------------------------------------------------------------
 Center     Atomic      Atomic             Coordinates (Angstroms)
 Number     Number       Type             X           Y           Z
 ---------------------------------------------------------------------
      1          6           0       -0.232162    0.637520    0.000197
      2          6           0        1.128242    0.764654    0.000014
      3          1           0       -0.868862    1.533644    0.000302
      4          8           0       -0.871782   -0.550147    0.000392
      5          6           0        2.036817   -0.381336   -0.000070
      6          1           0       -1.854107   -0.377040    0.000435
      7          8           0        3.270475   -0.279086   -0.000243
      8          1           0        1.559472    1.769538   -0.000117
      9          1           0        1.555981   -1.386140    0.000056
     10          7           0       -3.599841   -0.106936   -0.000417
     11          1           0       -4.025052   -1.035127   -0.026701
     12          1           0       -3.977527    0.353031    0.829038
     13          1           0       -3.977937    0.399479   -0.802135
 ---------------------------------------------------------------------
 Rotational constants (GHZ):          16.7453628           1.0364428           0.9811171
 Standard basis: Aug-CC-pVDZ (5D, 7F)
 There are   213 symmetry adapted cartesian basis functions of A   symmetry.
 There are   201 symmetry adapted basis functions of A   symmetry.
   201 basis functions,   335 primitive gaussians,   213 cartesian basis functions
    24 alpha electrons       24 beta electrons
       nuclear repulsion energy       214.4331370102 Hartrees.
 NAtoms=   13 NActive=   13 NUniq=   13 SFac= 1.00D+00 NAtFMM=   60 NAOKFM=F Big=F
 Integral buffers will be    131072 words long.
 Raffenetti 1 integral format.
 Two-electron integral symmetry is turned on.
 One-electron integrals computed using PRISM.
 NBasis=   201 RedAO= T EigKep=  2.54D-05  NBF=   201
 NBsUse=   201 1.00D-06 EigRej= -1.00D+00 NBFU=   201
 Lowest energy guess from the checkpoint file:  "/scr/Gau-54136.chk"
 B after Tr=     0.000000   -0.000000    0.000000
         Rot=    0.999999    0.000140   -0.000003    0.001674 Ang=   0.19 deg.
 B after Tr=     0.000000   -0.000000   -0.000000
         Rot=    0.999990    0.000494    0.000017   -0.004471 Ang=   0.52 deg.
 Requested convergence on RMS density matrix=1.00D-08 within 128 cycles.
 Requested convergence on MAX density matrix=1.00D-06.
 Requested convergence on             energy=1.00D-06.
 No special actions if energy rises.
 SCF Done:  E(RHF) =  -321.878075755     A.U. after   11 cycles
            NFock= 11  Conv=0.60D-08     -V/T= 2.0023
 ExpMin= 2.97D-02 ExpMax= 1.17D+04 ExpMxC= 4.01D+02 IAcc=3 IRadAn=         5 AccDes= 0.00D+00
 HarFok:  IExCor=  205 AccDes= 0.00D+00 IRadAn=         5 IDoV=-2 UseB2=F ITyADJ=14
 ICtDFT= 12500011 ScaDFX=  1.000000  1.000000  1.000000  1.000000
 Range of M.O.s used for correlation:     7   201
 NBasis=   201 NAE=    24 NBE=    24 NFC=     6 NFV=     0
 NROrb=    195 NOA=    18 NOB=    18 NVA=   177 NVB=   177

 **** Warning!!: The largest alpha MO coefficient is  0.52659105D+02

 Fully direct method using O(ONN) memory.
 JobTyp=1 Pass  1:  I=   7 to  24 NPSUse= 40 ParTrn=T ParDer=T DoDerP=T.
 Spin components of T(2) and E(2):
     alpha-alpha T2 =       0.4250188862D-01 E2=     -0.1294443056D+00
     alpha-beta  T2 =       0.2398078602D+00 E2=     -0.7483196309D+00
     beta-beta   T2 =       0.4250188862D-01 E2=     -0.1294443056D+00
 ANorm=    0.1151004621D+01
 E2 =    -0.1007208242D+01 EUMP2 =    -0.32288528399698D+03
          IDoAtm=1111111111111
          Differentiating once with respect to electric field.
                with respect to dipole field.
          Differentiating once with respect to nuclear coordinates.
 Keep R1 ints in memory in canonical form, NReq=215102217.
          There are     1 degrees of freedom in the 1st order CPHF.  IDoFFX=0 NUNeed=     1.
 LinEq1:  Iter=  0 NonCon=     1 RMS=4.61D-03 Max=1.29D-01 NDo=     1
 AX will form     1 AO Fock derivatives at one time.
 LinEq1:  Iter=  1 NonCon=     1 RMS=1.40D-03 Max=1.82D-02 NDo=     1
 LinEq1:  Iter=  2 NonCon=     1 RMS=5.18D-04 Max=1.05D-02 NDo=     1
 LinEq1:  Iter=  3 NonCon=     1 RMS=1.72D-04 Max=3.46D-03 NDo=     1
 LinEq1:  Iter=  4 NonCon=     1 RMS=6.27D-05 Max=1.14D-03 NDo=     1
 LinEq1:  Iter=  5 NonCon=     1 RMS=2.38D-05 Max=3.43D-04 NDo=     1
 LinEq1:  Iter=  6 NonCon=     1 RMS=8.65D-06 Max=2.41D-04 NDo=     1
 LinEq1:  Iter=  7 NonCon=     1 RMS=2.46D-06 Max=4.95D-05 NDo=     1
 LinEq1:  Iter=  8 NonCon=     1 RMS=1.07D-06 Max=3.69D-05 NDo=     1
 LinEq1:  Iter=  9 NonCon=     1 RMS=2.71D-07 Max=2.69D-06 NDo=     1
 LinEq1:  Iter= 10 NonCon=     1 RMS=6.96D-08 Max=1.26D-06 NDo=     1
 LinEq1:  Iter= 11 NonCon=     1 RMS=2.02D-08 Max=3.20D-07 NDo=     1
 LinEq1:  Iter= 12 NonCon=     1 RMS=7.01D-09 Max=9.82D-08 NDo=     1
 LinEq1:  Iter= 13 NonCon=     1 RMS=1.82D-09 Max=2.01D-08 NDo=     1
 LinEq1:  Iter= 14 NonCon=     1 RMS=4.11D-10 Max=4.64D-09 NDo=     1
 LinEq1:  Iter= 15 NonCon=     1 RMS=1.37D-10 Max=2.46D-09 NDo=     1
 LinEq1:  Iter= 16 NonCon=     0 RMS=2.81D-11 Max=2.72D-10 NDo=     1
 Linear equations converged to 1.000D-10 1.000D-09 after    16 iterations.
 End of Minotr F.D. properties file   721 does not exist.
 End of Minotr F.D. properties file   722 does not exist.
 End of Minotr F.D. properties file   788 does not exist.
 Calling FoFJK, ICntrl=  10002127 FMM=F ISym2X=0 I1Cent= 0 IOpClX= 0 NMat=1 NMatS=1 NMatT=0.
 ***** Axes restored to original set *****
 -------------------------------------------------------------------
 Center     Atomic                   Forces (Hartrees/Bohr)
 Number     Number              X              Y              Z
 -------------------------------------------------------------------
      1        6          -0.001648248   -0.001434411   -0.001750922
      2        6           0.000594159   -0.001010992    0.002173458
      3        1           0.000188930    0.000630612   -0.000271815
      4        8           0.001498651    0.000375024    0.002573031
      5        6          -0.000159223    0.000886361   -0.001199804
      6        1          -0.001009450   -0.000137876   -0.001918559
      7        8           0.000360663    0.000298193    0.000401319
      8        1           0.000427273    0.000828800   -0.000002864
      9        1          -0.000366567   -0.000672916   -0.000037771
     10        7           0.000695121    0.000288849    0.001194787
     11        1          -0.000046998   -0.000145449    0.000044757
     12        1          -0.000422339    0.000137085   -0.000507543
     13        1          -0.000111971   -0.000043279   -0.000698074
 -------------------------------------------------------------------
 Cartesian Forces:  Max     0.002573031 RMS     0.000950531

 GradGradGradGradGradGradGradGradGradGradGradGradGradGradGradGradGradGrad
 Berny optimization.
 Using GEDIIS/GDIIS optimizer.
 FormGI is forming the generalized inverse of G from B-inverse, IUseBI=4.
 Internal  Forces:  Max     0.002069065 RMS     0.000560340
 Search for a local minimum.
 Step number   4 out of a maximum of   53
 All quantities printed in internal units (Hartrees-Bohrs-Radians)
 Mixed Optimization -- En-DIIS/RFO-DIIS
 Update second derivatives using D2CorX and points    1    3    2    4
 DE= -5.46D-04 DEPred=-4.95D-04 R= 1.10D+00
 TightC=F SS=  1.41D+00  RLast= 1.50D-01 DXNew= 4.2426D-01 4.4957D-01
 Trust test= 1.10D+00 RLast= 1.50D-01 DXMaxT set to 4.24D-01
 ITU=  1 -1  1  0
 Use linear search instead of GDIIS.
     Eigenvalues ---    0.00230   0.00230   0.01112   0.01112   0.02037
     Eigenvalues ---    0.02071   0.02128   0.02694   0.02959   0.05717
     Eigenvalues ---    0.08669   0.10009   0.11671   0.16000   0.16000
     Eigenvalues ---    0.16000   0.16029   0.16362   0.17345   0.21858
     Eigenvalues ---    0.22012   0.22862   0.33536   0.35235   0.35906
     Eigenvalues ---    0.36362   0.43024   0.43432   0.43517   0.48887
     Eigenvalues ---    0.51234   0.60238   0.92575
 RFO step:  Lambda=-3.81423727D-05 EMin= 2.29981025D-03
 Quartic linear search produced a step of -0.02044.
 Iteration  1 RMS(Cart)=  0.00795749 RMS(Int)=  0.00003315
 Iteration  2 RMS(Cart)=  0.00005345 RMS(Int)=  0.00000426
 Iteration  3 RMS(Cart)=  0.00000000 RMS(Int)=  0.00000426
 Variable       Old X    -DE/DX   Delta X   Delta X   Delta X     New X
                                 (Linear)    (Quad)   (Total)
    R1        2.58199  -0.00161  -0.00016  -0.00213  -0.00229   2.57970
    R2        2.07735  -0.00057  -0.00000  -0.00142  -0.00142   2.07593
    R3        2.54915   0.00072   0.00037   0.00034   0.00071   2.54986
    R4        2.76366   0.00099   0.00044   0.00174   0.00218   2.76584
    R5        2.06642  -0.00093  -0.00007  -0.00231  -0.00238   2.06404
    R6        1.88493  -0.00207  -0.00001  -0.00410  -0.00411   1.88082
    R7        2.33927  -0.00060  -0.00009  -0.00037  -0.00045   2.33881
    R8        2.10502  -0.00077  -0.00010  -0.00194  -0.00204   2.10298
    R9        3.33821   0.00011  -0.00121   0.00431   0.00310   3.34131
   R10        1.92996  -0.00015   0.00009  -0.00055  -0.00047   1.92949
   R11        1.92920  -0.00017   0.00008  -0.00059  -0.00051   1.92868
   R12        1.92915  -0.00018   0.00008  -0.00060  -0.00052   1.92864
    A1        2.09536   0.00012   0.00054  -0.00002   0.00053   2.09588
    A2        2.15799   0.00066  -0.00014   0.00319   0.00305   2.16104
    A3        2.02984  -0.00078  -0.00041  -0.00317  -0.00358   2.02626
    A4        2.14797  -0.00002  -0.00004   0.00014   0.00010   2.14807
    A5        2.06935  -0.00005   0.00057  -0.00179  -0.00122   2.06813
    A6        2.06587   0.00007  -0.00053   0.00165   0.00112   2.06699
    A7        1.89038   0.00044  -0.00007   0.00227   0.00220   1.89258
    A8        2.15845   0.00017  -0.00003   0.00103   0.00100   2.15945
    A9        2.02491  -0.00003   0.00002  -0.00010  -0.00009   2.02482
   A10        2.09982  -0.00015   0.00002  -0.00093  -0.00091   2.09891
   A11        1.84679   0.00027   0.00006   0.00184   0.00191   1.84870
   A12        2.01984  -0.00061   0.00044  -0.00497  -0.00453   2.01532
   A13        2.02889  -0.00068   0.00046  -0.00547  -0.00502   2.02388
   A14        1.85081   0.00017  -0.00039   0.00220   0.00182   1.85263
   A15        1.85087   0.00016  -0.00039   0.00206   0.00168   1.85256
   A16        1.85203   0.00079  -0.00035   0.00544   0.00508   1.85711
   A17        3.16252  -0.00008  -0.00234  -0.00108  -0.00342   3.15910
   A18        3.14104   0.00003  -0.00000   0.01237   0.01237   3.15341
[...]
 563,0.00018466,0.00080541,-0.00023063,0.00093573,-0.00007117,-0.000011
 75,-0.00012053,-0.00001004,-0.00000300,-0.00002546,-0.00001504,0.00000
 539,0.00003633,-0.62195963,0.90513230,-0.18850375,0.01822896,-0.018372
 04,0.00347245,-0.00607650,0.02063395,-0.00477727,0.60904153,-0.0005149
 2,-0.00070087,-0.00013148,0.00011419,0.00001958,0.00018013,-0.00005545
 ,-0.00007130,-0.00005744,0.00046964,0.00040782,0.00037691,-0.00006099,
 0.00007943,-0.00024023,-0.00112031,0.00087889,-0.00115109,0.00007792,0
 .00001493,0.00014522,0.00000256,0.00000594,0.00002832,0.00000833,0.000
 00486,-0.00004794,0.88195039,-0.60399162,0.19762280,0.02921263,-0.0146
 4016,0.00396169,-0.00281780,0.00815261,0.00564975,-0.90726618,0.609839
 88,-0.00011175,-0.00001613,-0.00003038,0.00001956,-0.00003101,-0.00000
 520,-0.00004986,-0.00005569,-0.00007149,0.00014433,-0.00006119,-0.0000
 6634,-0.00000484,-0.00000332,0.00000252,-0.00037559,0.00051001,0.00017
 628,-0.00000477,-0.00000249,-0.00000342,-0.00001229,-0.00000350,0.0000
 1298,-0.00001077,0.00000079,-0.00000812,-0.21166048,0.22587073,0.24397
 581,-0.00128050,0.00211501,0.01180752,0.02428981,-0.02198656,0.0122416
 5,0.18905716,-0.20633664,-0.26803180,0.00000994,-0.00038558,-0.0005615
 1,-0.00022468,0.00008386,-0.00034320,-0.00004325,0.00010618,0.00000486
 ,0.00007592,0.00002324,0.00016732,-0.00017296,-0.00004228,-0.00030153,
 0.00008588,0.00001280,0.00023942,-0.00000907,0.00018923,-0.00032206,0.
 00003584,0.00001784,0.00006769,-0.00000579,0.00001822,0.00003506,-0.00
 010611,0.00005592,0.00011704,-0.00001840,0.00001674,-0.00004800,0.0000
 6949,-0.00008237,-0.00013266,0.00005446,-0.00008222,0.00014505,-0.0000
 0573,0.00004187,-0.00003143,-0.00008392,-0.00004730,-0.00014339,-0.000
 10391,0.00017081,0.00006295,0.00004291,0.00001136,-0.00008227,0.000060
 70,-0.00000555,-0.00000594,0.00016161,0.00024726,0.00017517,0.00007877
 ,-0.00005100,0.00009904,-0.00014595,0.00000580,0.00002253,0.00003766,-
 0.00023679,-0.00022595,-0.00002447,-0.00009578,-0.00017358,-0.00001126
 ,0.00000309,0.00004736,-0.00001680,0.00001958,0.00002120,0.00009281,0.
 00006703,0.00034850,-0.00004345,0.00001456,-0.00000638,0.00000372,-0.0
 0005273,0.00005577,-0.00000626,-0.00000623,0.00000111,0.00001243,-0.00
 001138,-0.00000275,-0.00001020,0.00004940,0.00001167,0.00005759,-0.000
 04136,0.00007197,-0.00011592,-0.00000053,0.00000948,-0.00000771,-0.000
 01215,-0.00001080,0.00001785,0.00009763,-0.00009546,-0.00005103,-0.000
 04892,-0.00012313,0.00011079,-0.00006125,0.00023095,-0.00000279,-0.000
 01486,0.00000444,-0.00001590,0.00000404,-0.00000525,-0.00017806,0.0000
 8646,-0.00022606,0.00002162,-0.00007488,-0.00004032,-0.00001471,0.0000
 3652,0.00006352,-0.00002542,-0.00001195,-0.00001386,-0.00002851,0.0002
 9410,0.00022338,-0.00001557,0.00002190,-0.00001916,-0.00012453,-0.0000
 8448,0.00001233,-0.00010050,0.00003795,-0.00002952,0.00004455,-0.00005
 323,-0.00004222,-0.00005501,0.00038319,0.00007008,0.00035518,0.0000068
 7,0.00000178,-0.00000798,-0.00097558,-0.00052809,-0.00000788,-0.000053
 17,0.00012052,0.00004923,0.00003911,-0.00000252,0.00001311,0.00000235,
 0.00001465,0.00012246,0.00016507,-0.00022094,-0.00000417,0.00001647,-0
 .00003911,-0.00072000,-0.00056575,-0.00008162,0.00004112,-0.00000039,0
 .00002432,-0.00002353,0.00005158,-0.00005430,0.00000203,0.00000688,-0.
 00000268,-0.00000400,-0.00000766,0.00000168,0.00005075,-0.00006386,0.0
 0010970,0.00001021,0.00000947,0.00000708,-0.00005690,-0.00000756,0.000
 01719,-0.00000195,0.00000037,-0.00000259,-0.00003127,0.00000402,0.0000
 0358,0.00000180,0.00000035,-0.00000501,-0.00000118,-0.00000882,0.00004
 402,0.00003470,-0.00000144,0.00000141,-0.00000409,0.00000344,-0.000069
 01,0.00002809,0.00003095,0.00006853,-0.00005194,0.00002465,-0.00013196
 ,-0.00000328,0.00000589,-0.00001338,0.00000042,-0.00000744,0.00000790,
 0.00007916,-0.00004568,0.00013970,0.00001835,0.00001667,0.00001783,-0.
 00005458,-0.00001581,-0.00007667,0.00002786,-0.00001700,-0.00000010,0.
 00000926,0.00000653,-0.00001442,0.00000971,-0.00000182,-0.00001294,-0.
 00001925,0.00001436,0.00000684,-0.00000131,-0.00000498,-0.00000221,-0.
 00000398,0.00000179,0.00000227,0.00000271,0.00000225,0.00000115,-0.000
 02086,-0.00001526,-0.00000462,0.00001459,0.00003155,0.00005965,-0.0000
 0066,-0.00000825,0.00000936,-0.00000732,0.00000604,-0.00000606,-0.0000
 1516,-0.00002127,-0.00001921,-0.00000307,0.00000096,-0.00000249,-0.000
 00279,0.00000686,0.00000479,0.00000531,0.00000757,-0.00003363,-0.00001
 018,0.00000494,0.00000385,-0.00003309,-0.00001889,0.00001099,-0.000006
 27,0.00000043,0.00000183,0.00001838,0.00000818,0.00000102,0.00000708,0
 .00000185,-0.00000838,0.00000237,-0.00000024,0.00000021,0.00000016,0.0
 0000111,0.00000048,0.00002215,0.00000528,-0.00000441,0.00000535,0.0000
 0451,0.00000084,-0.00002920,0.00000209,-0.00000069,0.00000188,0.000002
 14,0.00000170,0.00001248,-0.00001664,-0.00000624,-0.00001167,-0.000029
 30,0.00000716,-0.00000577,0.00000208,0.00000033,-0.00000545,0.00000943
 ,0.00001022,0.00000154,-0.00000495,0.00000120,0.00003249,-0.00000607,-
 0.00000305,-0.00000953,0.00000589,0.00000844,0.00002570,-0.00000054,-0
 .00000153,0.00000236,-0.00000781,0.00000095,0.00000303,-0.00002276,0.0
 0000923,-0.00002694,0.00000092,0.00000272,-0.00000546,0.00000656,0.000
 00772,0.00000978,-0.00000370,0.00000025,-0.00000005,0.00002772,-0.0000
 2265,-0.00000191,-0.00000718,0.00000844,0.00001297,-0.00001504,0.00001
 161,-0.00000107,0.00000537,-0.00000161,-0.00000915,-0.00000016,-0.0000
 0143,0.00002625,-0.00001051,-0.00002371,-0.00000041,-0.00000402,-0.000
 00245,-0.00001445,0.00002016,0.00001795,-0.00000092,0.00000384,-0.0000
 0124,-0.00001743,0.00000457,-0.00001233,-0.00015076,0.00003718,0.00018
 727,-0.00002758,-0.00003320,-0.00015034,0.00006016,0.00008860,0.000099
 05,0.00043317,0.00002380,-0.00048537,0.00004070,-0.00001665,0.00006543
 ,-0.00238611,-0.00011452,0.00057785,-0.00002684,-0.00000536,-0.0000635
 4,-0.00001269,0.00001144,0.00002359,0.00003555,-0.00001312,-0.00000268
 ,0.81455319,-0.00023173,-0.00108392,0.00030333,0.00002896,0.00018371,-
 0.00007063,0.00023565,0.00032047,0.00011347,0.00007447,0.00167875,-0.0
 0091714,-0.00005418,0.00000175,-0.00009152,-0.00121713,-0.00364320,-0.
 00112485,0.00002173,0.00002493,0.00002729,0.00004844,-0.00001799,0.000
 08475,-0.00000896,0.00001884,0.00000927,1.20030242,2.55954352,0.000502
 21,0.00091864,-0.00020768,-0.00020882,-0.00019563,-0.00015184,-0.00006
 295,-0.00019348,0.00004794,-0.00054496,-0.00104011,0.00067932,0.000103
 81,-0.00001438,0.00023633,0.00169384,0.00097818,-0.00034412,-0.0000921
 7,-0.00002929,-0.00014164,-0.00001677,0.00001118,-0.00007502,-0.000008
 29,-0.00000033,0.00002838,-0.37859731,-0.01627042,-0.33512118,0.000327
 99,0.00037640,-0.00007849,-0.00000065,-0.00008548,0.00005093,-0.000063
 40,-0.00008115,0.00003470,-0.00034869,-0.00048079,-0.00018309,-0.00000
 001,0.00002356,0.00000342,0.00113071,0.00112013,0.00065992,0.00000124,
 -0.00001572,0.00001780,-0.00001402,-0.00001091,-0.00002475,-0.00000538
 ,-0.00001500,0.00000771,-0.24390886,-1.73096850,-0.00959262,0.24504345
 ,0.00032639,0.00100411,-0.00015531,-0.00004987,-0.00019798,0.00012601,
 -0.00013493,-0.00029417,-0.00001607,-0.00025124,-0.00104077,0.00061846
 ,0.00004659,0.00002341,0.00005016,0.00171116,0.00260273,0.00067002,-0.
 00001115,-0.00002931,0.00000670,-0.00003844,0.00000013,-0.00007206,-0.
 00000664,-0.00003014,0.00001574,-1.72287767,-2.44445889,-0.03082210,1.
 70779907,2.42323131,-0.00006727,-0.00014593,0.00017635,0.00001089,0.00
 006174,-0.00001750,0.00010422,0.00011961,0.00004503,-0.00042633,0.0001
 6690,-0.00101865,-0.00001914,0.00000322,-0.00005817,0.00008493,-0.0003
 9368,0.00079124,0.00001332,0.00000166,0.00002539,0.00000471,-0.0000168
 9,0.00003180,0.00000017,0.00000186,-0.00000339,-0.01825245,-0.04680457
 ,0.71468729,0.01080734,0.03826726,-0.70743361,-0.00015283,-0.00013138,
 -0.00014504,0.00000427,-0.00003286,0.00008117,-0.00006174,-0.00011423,
 -0.00007286,-0.00015303,0.00000860,0.00012448,-0.00001802,0.00003706,-
 0.00007955,0.00067728,0.00012050,-0.00079803,0.00001845,-0.00000373,0.
 00004870,0.00000992,-0.00000853,0.00000341,-0.00002623,0.00001507,-0.0
 0001634,-0.18426721,0.02879266,0.49016617,0.00134777,0.01052452,0.0075
 5366,0.18505022,0.00002262,0.00009812,0.00006010,-0.00001957,0.0000285
 7,-0.00009183,0.00004439,0.00008697,0.00003195,0.00007773,-0.00039233,
 -0.00005427,0.00000883,-0.00004951,0.00007709,0.00008059,0.00065506,0.
 00070751,-0.00001926,0.00000819,-0.00005128,-0.00000642,0.00000805,-0.
 00001022,0.00000446,0.00000969,0.00000340,0.03039242,0.17118776,-0.044
 49720,0.00562472,0.00980293,0.00441864,-0.04363986,-0.18643846,-0.0000
 8216,-0.00031318,0.00010881,0.00005637,0.00008994,0.00002743,0.0000279
 5,0.00008597,-0.00002650,0.00038217,0.00039876,0.00020621,-0.00002610,
 -0.00002017,-0.00003023,-0.00051433,-0.00033879,0.00005539,0.00002497,
 0.00001822,0.00002187,0.00000588,0.00000595,0.00001690,0.00001892,-0.0
 0000751,-0.00000559,0.51551699,-0.04346708,-0.52681053,-0.00059329,-0.
 00709487,-0.00626473,-0.51142054,0.04790977,0.52671110,0.00002450,-0.0
 0011823,0.00014716,0.00000866,0.00009706,-0.00006125,0.00009838,0.0001
 3302,0.00000692,-0.00006593,0.00021036,0.00028079,-0.00000116,-0.00006
 077,0.00005218,0.00076477,-0.00045418,0.00009783,-0.00000978,0.0000227
 8,-0.00003054,0.00001111,0.00000476,-0.00000407,-0.00000559,0.00001282
 ,0.00001741,-0.38434272,0.50297616,-0.10334216,-0.00351014,0.00296222,
 0.00018597,-0.00242885,0.00742936,-0.00339683,0.38945676,0.00000589,0.
 00005016,-0.00013949,-0.00002353,-0.00003903,-0.00001151,-0.00004608,-
 0.00005085,-0.00001349,-0.00021040,-0.00036560,-0.00000069,0.00000285,
 0.00000163,0.00000205,0.00013484,0.00089941,0.00015560,-0.00000420,-0.
 00000590,-0.00000703,-0.00000860,0.00000178,-0.00000511,0.00001406,-0.
 00000045,-0.00002546,0.49220467,-0.28375575,0.09115494,0.01671367,0.00
 938666,0.00432019,0.00443219,0.00499497,0.00273300,-0.51321535,0.26888
 297,-0.00020103,-0.00030479,-0.00002334,0.00007480,0.00001418,0.000089
 50,-0.00007093,-0.00003463,-0.00006382,0.00040536,0.00026727,0.0001083
 2,-0.00003662,0.00003088,-0.00009737,-0.00077831,0.00007141,-0.0003090
 9,0.00003696,0.00000594,0.00006401,0.00000438,-0.00000024,0.00002196,-
 0.00000789,0.00000251,-0.00001464,-0.11891849,0.10820809,0.14717277,-0
 .00110959,-0.00159393,-0.00096105,0.01455477,-0.00850367,0.00598988,0.
 10604660,-0.09816302,-0.15197712,-0.00011238,0.00019023,0.00052597,-0.
 00023330,-0.00032189,-0.00037025,0.00017069,-0.00010307,-0.00003001,0.
 00000691,-0.00014552,-0.00004433,0.00007518,0.00010711,-0.00002033,-0.
 00001062,0.00018915,0.00027601,0.00002854,-0.00002113,-0.00025514,-0.0
 0007113,-0.00002405,0.00006934,-0.00005692,0.00004591,-0.00000161,0.00
 008896,-0.00002629,-0.00024561,0.00008924,0.00001294,0.00007658,-0.000
 10454,-0.00005703,0.00008890,0.00010924,0.00011216,-0.00005535,-0.0000
 1623,-0.00007097,0.00002546,-0.00010040,-0.00003757,0.00000738,-0.0001
 2564,-0.00005180,0.00014025,0.00005805,0.00000905,-0.00001602,0.000007
 66,0.00000236,-0.00005299,0.00034406,0.00006489,-0.00014236,0.00010755
 ,-0.00000553,0.00003106,0.00000059,-0.00001996,0.00003531,-0.00005852,
 0.00002487,0.00034285,0.00001320,-0.00015138,0.00000338,0.00000290,0.0
 0005189,0.00001091,-0.00003209,-0.00000942,-0.00000775,0.00013028,0.00
 000133,0.00053686,-0.00003941,0.00004786,0.00001154,0.00002254,-0.0000
 8950,0.00003578,0.00001170,-0.00002945,-0.00000399,-0.00000915,0.00002
 613,0.00003610,-0.00020361,0.00003837,0.00000459,0.00002108,-0.0000536
 0,-0.00001626,-0.00000342,-0.00000406,-0.00001156,0.00003972,0.0000298
 9,-0.00000593,0.00003587,0.00003391,-0.00015152,0.00001171,-0.00001069
 ,-0.00007244,0.00006848,0.00002633,0.00012069,-0.00003023,-0.00000839,
 -0.00002161,0.00001891,0.00001251,-0.00000819,-0.00022117,-0.00011492,
 -0.00022816,0.00014024,0.00000678,-0.00004606,-0.00017472,0.00005779,0
 .00006918,-0.00006522,0.00001079,0.00001699,-0.00037978,-0.00009751,-0
 .00018883,0.00003611,-0.00003641,-0.00000147,0.00051865,-0.00000331,0.
 00015516,-0.00002613,0.00005248,-0.00005276,-0.00007688,-0.00002568,-0
 .00005693,-0.00005519,-0.00017917,-0.00044843,-0.00013644,0.00000330,0
 .00001808,0.00003925,0.00029027,0.00061209,-0.00000079,0.00004112,0.00
 011120,0.00005380,-0.00007965,-0.00004373,0.00005606,0.00001030,0.0000
 1980,-0.00010413,0.00001237,-0.00046330,-0.00003987,-0.00003717,0.0000
 1798,-0.00013311,0.00038226,-0.00023148,0.00001563,0.00002344,0.000012
 48,-0.00000079,0.00002173,-0.00006463,0.00000456,0.00000322,0.00001052
 ,-0.00000138,-0.00001469,-0.00000229,0.00012469,0.00000030,0.00013567,
 0.00000665,-0.00000850,0.00000074,-0.00011826,0.00000498,0.00001943,-0
 .00001274,-0.00001428,0.00001761,-0.00003718,-0.00000012,0.00000064,-0
 .00000595,-0.00000545,-0.00000507,-0.00000443,0.00002004,0.00007455,0.
 00008552,0.00000183,-0.00000329,0.00001670,-0.00002224,-0.00010250,0.0
 0002863,0.00004232,0.00002479,-0.00007859,-0.00001042,-0.00010198,0.00
 001036,-0.00000075,0.00001794,-0.00000488,-0.00001265,0.00001206,0.000
 14018,0.00007497,0.00015561,-0.00000982,-0.00000379,-0.00000676,-0.000
 06986,-0.00007101,-0.00008375,-0.00004785,0.00000785,0.00002846,0.0000
 0189,-0.00000904,-0.00001313,0.00001440,-0.00000705,-0.00001042,0.0000
 0297,-0.00000756,-0.00000076,-0.00002436,0.00001109,-0.00000415,0.0000
 3653,-0.00001356,-0.00001655,0.00000568,0.00000484,0.00000171,0.000028
 04,0.00001557,-0.00002736,-0.00001180,-0.00000284,-0.00001112,0.000019
 09,-0.00000994,0.00000367,-0.00000057,-0.00000358,-0.00000109,0.000000
 47,-0.00001193,-0.00000060,-0.00003394,-0.00001532,0.00000253,0.000019
 47,0.00001047,0.00000689,0.00001057,0.00000786,0.00002245,0.00001057,-
 0.00003623,-0.00002226,-0.00001060,0.00003747,0.00000464,-0.00000410,0
 .00000292,0.00000919,-0.00000312,-0.00000224,0.00000802,0.00001097,-0.
 00001471,-0.00001358,-0.00001464,0.00002465,-0.00000138,-0.00000014,0.
 00000519,-0.00000303,0.00000845,-0.00000319,0.00002965,0.00002999,-0.0
 0000889,-0.00001466,-0.00006177,0.00000011,0.00001479,-0.00000101,0.00
 000448,0.00000265,0.00001754,-0.00002866,-0.00000966,0.00008576,-0.000
 01201,0.00000749,-0.00001290,0.00000304,0.00000865,-0.00002550,0.00000
 484,-0.00000198,0.00000191,-0.00000532,0.00000264,-0.00003226,-0.00001
 962,-0.00001589,0.00001649,0.00000933,-0.00000434,0.00000880,-0.000002
 69,-0.00000215,-0.00000540,-0.00001665,-0.00000114,0.00000114,0.000004
 68,0.00009668,0.00001377,0.00001060,0.00000354,0.00000269,-0.00001857,
 -0.00001433,-0.00002652,-0.00000241,0.00000044,0.00000312,0.00003194,-
 0.00006357,-0.00001639,0.00001835,-0.00000869,0.00001960,-0.00004699,0
 .00001823,0.00000503,0.00000618,0.00000425,-0.00001441,-0.00000594,0.0
 0000727,0.00001768,0.00001485,0.00001935,-0.00000215,-0.00001472,-0.00
 000563,-0.00000672,0.00002531,0.00001973,-0.00000109,0.00000239,-0.000
 00076,-0.00001730,-0.00000798,-0.00006449,0.00013312,0.00055542,0.0001
 8607,0.00004170,-0.00006886,-0.00016044,0.00009891,0.00009646,0.000111
 60,0.00091798,-0.00039268,-0.00002814,0.00006168,-0.00003358,0.0001224
 1,-0.00304465,0.00037028,0.00172540,-0.00004901,-0.00001042,-0.0000826
 7,-0.00007231,0.00004207,0.00001932,0.00009181,-0.00004809,-0.00000596
 ,1.46414664,0.00047046,0.00043110,0.00021026,-0.00013470,0.00005209,-0
 .00014850,0.00022672,0.00028026,0.00016630,-0.00003775,0.00039178,0.00
 073823,0.00005007,-0.00009850,0.00021396,0.00093328,-0.00287624,0.0004
 1400,-0.00006106,0.00001034,-0.00012991,0.00002642,-0.00000632,-0.0000
 5179,-0.00001554,0.00000471,0.00009561,-1.52517857,0.44106543,0.000268
 61,0.00032372,-0.00006020,-0.00008709,0.00000033,-0.00000569,-0.000030
 63,-0.00008183,0.00003834,-0.00038448,0.00005364,0.00032327,0.00003442
 ,0.00004639,0.00003222,0.00115107,-0.00065526,-0.00119719,-0.00003084,
 -0.00003058,-0.00002924,0.00003765,-0.00001598,-0.00001565,-0.00004256
 ,0.00002690,0.00000928,-1.06476291,-0.42712457,1.13698633,-0.00008805,
 -0.00019318,-0.00000593,-0.00000063,0.00000994,0.00005699,0.00001780,-
 0.00001285,-0.00002653,0.00004938,0.00019107,0.00041606,-0.00000698,0.
 00002252,-0.00004218,0.00027792,-0.00006897,-0.00054057,0.00001168,0.0
 0000196,0.00002622,0.00000837,-0.00000158,0.00000141,-0.00001419,0.000
 00784,-0.00000166,-0.00878403,0.01200451,0.00753620,-0.00193456,-0.000
 01143,0.00000315,-0.00001383,0.00001195,-0.00003332,0.00001924,-0.0000
 3836,-0.00003651,-0.00000282,0.00012599,-0.00008882,0.00005956,0.00000
 503,0.00003641,-0.00002452,-0.00015775,0.00031250,0.00001681,0.0000029
 8,-0.00000946,0.00001227,-0.00000367,-0.00000230,0.00000498,0.00000333
 ,-0.00000871,-0.00000333,0.02279039,0.00996955,0.01535037,0.00021387,0
 .00278211,-0.00019792,-0.00036300,0.00001381,0.00005963,0.00001461,0.0
 0006000,0.00000344,0.00004918,-0.00001210,0.00048206,0.00019722,0.0004
 8572,-0.00002574,0.00001017,-0.00005682,-0.00047134,0.00013681,-0.0004
 9818,0.00002645,0.00001095,0.00003738,0.00000248,0.00000754,0.00000650
 ,0.00000379,0.00000631,-0.00001681,-0.00402136,-0.00592071,-0.02027734
 ,-0.00110697,-0.00607968,0.00269396,-0.00007394,-0.00016153,-0.0001249
 5,-0.00000839,-0.00006444,0.00006399,-0.00006836,-0.00006949,-0.000020
 85,-0.00083469,-0.00002482,-0.00045781,-0.00003291,0.00003252,-0.00006
 339,0.00186779,0.00034971,-0.00113484,0.00001914,-0.00000724,0.0000433
 7,0.00002448,-0.00001811,-0.00001608,-0.00006081,0.00002780,-0.0000145
 8,-0.47296881,-0.01297384,1.44278746,0.00212946,-0.00473336,0.00352357
 ,0.46505039,-0.00032127,-0.00033840,0.00000868,0.00010100,0.00003705,0
 .00004042,0.00001872,-0.00004140,-0.00005843,-0.00005311,0.00020748,0.
 00003666,-0.00003760,0.00001549,-0.00007884,0.00030756,0.00025980,-0.0
 0063005,0.00002664,0.00001149,0.00004604,0.00000757,0.00000089,0.00000
 979,-0.00000033,0.00001176,-0.00001535,-0.00959647,0.52799881,0.019695
 78,-0.01128463,-0.00632709,0.00903576,0.02454549,-0.51984260,-0.000024
 09,0.00008776,0.00014669,0.00001550,0.00004882,-0.00007901,0.00000787,
 0.00009553,0.00000785,0.00011662,-0.00008080,-0.00030547,0.00000467,-0
 .00005083,0.00004125,-0.00052144,-0.00005778,0.00149576,-0.00000250,0.
 00001254,-0.00003541,-0.00001996,0.00000681,0.00000350,0.00003830,-0.0
 0002538,0.00001959,1.46408948,0.02491717,-1.55412485,-0.00834009,-0.00
 435389,0.01178218,-1.44630260,-0.02656342,1.54137174,0.00006874,-0.000
 28904,0.00000687,0.00000150,0.00012580,-0.00000282,0.00001866,0.000071
 92,-0.00001961,-0.00004698,0.00028444,0.00012103,-0.00002610,-0.000029
 00,-0.00000212,0.00079338,-0.00076988,0.00012520,0.00000693,0.00002126
 ,-0.00000264,0.00002024,-0.00000736,-0.00000471,-0.00001856,0.00001585
 ,0.00003794,-0.98057304,1.52468999,-0.38647690,0.00833382,-0.01820898,
 0.00172192,0.00495666,-0.00371356,-0.00906176,0.96646475,-0.00025701,-
 0.00032551,-0.00014200,0.00001926,-0.00003180,0.00011433,-0.00010949,-
 0.00009119,-0.00002278,0.00015536,-0.00031564,-0.00062350,-0.00002258,
 0.00003852,-0.00012008,-0.00131190,0.00207395,-0.00016884,0.00003628,-
 0.00000629,0.00006886,-0.00002235,0.00001192,0.00002003,0.00002301,-0.
 00000702,-0.00006839,1.51147405,-0.97722302,0.39241109,-0.00089049,-0.
 00659751,0.00289484,-0.00690268,-0.00199328,0.00596347,-1.50219144,0.9
 8446687,0.00004122,0.00006863,0.00001334,-0.00002589,-0.00002543,-0.00
 003035,0.00004696,-0.00001082,-0.00003341,-0.00030808,-0.00022505,-0.0
 0060277,-0.00000064,-0.00002208,0.00001366,0.00015162,0.00044322,0.000
 80291,-0.00000886,0.00000567,-0.00000734,-0.00001270,-0.00000087,-0.00
 000484,0.00000783,-0.00001394,-0.00000131,-0.39719281,0.40661993,0.438
 32073,0.00202705,-0.00498517,0.00578172,0.00171671,-0.00152705,-0.0003
 2382,0.39355760,-0.40032703,-0.44392853\\@
 The archive entry for this job was punched.


 IF IT'S NOT TRUE, IT'S WELL INVENTED -- DANTE
 Job cpu time:       9 days  7 hours 57 minutes 42.2 seconds.
 Elapsed time:       0 days  5 hours 38 minutes 41.4 seconds.
 File lengths (MBytes):  RWF=   7420 Int=      0 D2E=      0 Chk=     49 Scr=      1
 Normal termination of Gaussian 16 at Sat Mar 22 20:53:31 2025.
