 Entering Gaussian System, Link 0=g16
 Input=enoloneto2_nh3_mp2_avdz_opt_anharm.gjf
 Output=enoloneto2_nh3_mp2_avdz_opt_anharm.log
 Initial command:
 /sw/contrib/chem-src/g16/c01/g16/l1.exe "/scr/Gau-80391.inp" -scrdir="/scr/"
 Entering Link 1 = /sw/contrib/chem-src/g16/c01/g16/l1.exe PID=     80392.
  
 Copyright (c) 1988-2019, Gaussian, Inc.  All Rights Reserved.
  
 This is part of the Gaussian(R) 16 program.  It is based on
 the Gaussian(R) 09 system (copyright 2009, Gaussian, Inc.),
 the Gaussian(R) 03 system (copyright 2003, Gaussian, Inc.),
 the Gaussian(R) 98 system (copyright 1998, Gaussian, Inc.),
 the Gaussian(R) 94 system (copyright 1995, Gaussian, Inc.),
 the Gaussian 92(TM) system (copyright 1992, Gaussian, Inc.),
 the Gaussian 90(TM) system (copyright 1990, Gaussian, Inc.),
 the Gaussian 88(TM) system (copyright 1988, Gaussian, Inc.),
 the Gaussian 86(TM) system (copyright 1986, Carnegie Mellon
 University), and the Gaussian 82(TM) system (copyright 1983,
 Carnegie Mellon University). Gaussian is a federally registered
 trademark of Gaussian, Inc.
  
 This software contains proprietary and confidential information,
 including trade secrets, belonging to Gaussian, Inc.
  
 This software is provided under written license and may be
 used, copied, transmitted, or stored only in accord with that
 written license.
  
 The following legend is applicable only to US Government
 contracts under FAR:
  
                    RESTRICTED RIGHTS LEGEND
  
 Use, reproduction and disclosure by the US Government is
 subject to restrictions as set forth in subparagraphs (a)
 and (c) of the Commercial Computer Software - Restricted
 Rights clause in FAR 52.227-19.
  
 Gaussian, Inc.
 340 Quinnipiac St., Bldg. 40, Wallingford CT 06492
  
  
 ---------------------------------------------------------------
 Warning -- This program may not be used in any manner that
 competes with the business of Gaussian, Inc. or will provide
 assistance to any competitor of Gaussian, Inc.  The licensee
 of this program is prohibited from giving any competitor of
 Gaussian, Inc. access to this program.  By using this program,
 the user acknowledges that Gaussian, Inc. is engaged in the
 business of creating and licensing software in the field of
 computational chemistry and represents and warrants to the
 licensee that it is not a competitor of Gaussian, Inc. and that
 it will not use this program in any manner prohibited above.
 ---------------------------------------------------------------
  

 Cite this work as:
 Gaussian 16, Revision C.01,
 M. J. Frisch, G. W. Trucks, H. B. Schlegel, G. E. Scuseria, 
 M. A. Robb, J. R. Cheeseman, G. Scalmani, V. Barone, 
 G. A. Petersson, H. Nakatsuji, X. Li, M. Caricato, A. V. Marenich, 
 J. Bloino, B. G. Janesko, R. Gomperts, B. Mennucci, H. P. Hratchian, 
 J. V. Ortiz, A. F. Izmaylov, J. L. Sonnenberg, D. Williams-Young, 
 F. Ding, F. Lipparini, F. Egidi, J. Goings, B. Peng, A. Petrone, 
 T. Henderson, D. Ranasinghe, V. G. Zakrzewski, J. Gao, N. Rega, 
 G. Zheng, W. Liang, M. Hada, M. Ehara, K. Toyota, R. Fukuda, 
 J. Hasegawa, M. Ishida, T. Nakajima, Y. Honda, O. Kitao, H. Nakai, 
 T. Vreven, K. Throssell, J. A. Montgomery, Jr., J. E. Peralta, 
 F. Ogliaro, M. J. Bearpark, J. J. Heyd, E. N. Brothers, K. N. Kudin, 
 V. N. Staroverov, T. A. Keith, R. Kobayashi, J. Normand, 
 K. Raghavachari, A. P. Rendell, J. C. Burant, S. S. Iyengar, 
 J. Tomasi, M. Cossi, J. M. Millam, M. Klene, C. Adamo, R. Cammi, 
 J. W. Ochterski, R. L. Martin, K. Morokuma, O. Farkas, 
 J. B. Foresman, and D. J. Fox, Gaussian, Inc., Wallingford CT, 2019.
 
 ******************************************
 Gaussian 16:  EM64L-G16RevC.01  3-Jul-2019
                22-Mar-2025 
 ******************************************
 %nprocshared=40
 Will use up to   40 processors via shared memory.
 %mem=50gb
 ----------------------------------------------
 # MP2/aug-cc-pVDZ opt freq=(vibrot,anharmonic)
 ----------------------------------------------
 1/18=20,19=15,38=1,80=1/1,3;
 2/9=110,12=2,17=6,18=5,40=1/2;
 3/5=16,7=10,11=9,25=1,30=1,71=1/1,2,3;
 4//1;
 5/5=2,38=5/2;
 8/6=4,10=1/1;
 9/15=2,16=-3/6;
 10/5=1/2;
 6/7=2,8=2,9=2,10=2/1;
 7/12=2/1,2,3,16;
 1/18=20,19=15,80=1/3(2);
 2/9=110/2;
 99//99;
 2/9=110/2;
 3/5=16,7=10,11=9,25=1,30=1,71=1/1,2,3;
 4/5=5,16=3,69=1/1;
 5/5=2,38=5/2;
 8/6=4,10=1/1;
 9/15=2,16=-3/6;
 10/5=1/2;
 7/12=2/1,2,3,16;
 1/18=20,19=15,80=1/3(-8);
 2/9=110/2;
 6/7=2,8=2,9=2,10=2/1;
 99/9=10/99;
 ----
 blah
 ----
 Symbolic Z-matrix:
 Charge =  0 Multiplicity = 1
 C                    -0.73141   0.77854  -0.20419 
 C                    -1.36087   0.39448  -1.31494 
 H                    -0.97771   0.45156   0.79827 
 O                     0.32113   1.65325  -0.23779 
 C                    -2.48838  -0.5484   -1.23178 
 H                     0.63828   1.80164   0.68969 
 O                    -3.08895  -0.92209  -2.23153 
 H                    -1.07766   0.74953  -2.29727 
 H                    -2.76078  -0.89799  -0.22213 
 N                     1.29818   2.16051   2.22984 
 H                     2.099     2.77218   2.03474 
 H                     0.72899   2.70211   2.88824 
 H                     1.69628   1.40781   2.80041 
 
 Add virtual bond connecting atoms N10        and H6         Dist= 3.24D+00.

 GradGradGradGradGradGradGradGradGradGradGradGradGradGradGradGradGradGrad
 Berny optimization.
 Initialization pass.
                           ----------------------------
                           !    Initial Parameters    !
                           ! (Angstroms and Degrees)  !
 --------------------------                            --------------------------
 ! Name  Definition              Value          Derivative Info.                !
 --------------------------------------------------------------------------------
 ! R1    R(1,2)                  1.3332         estimate D2E/DX2                !
 ! R2    R(1,3)                  1.0828         estimate D2E/DX2                !
 ! R3    R(1,4)                  1.369          estimate D2E/DX2                !
 ! R4    R(2,5)                  1.4721         estimate D2E/DX2                !
 ! R5    R(2,8)                  1.0822         estimate D2E/DX2                !
 ! R6    R(4,6)                  0.9914         estimate D2E/DX2                !
 ! R7    R(5,7)                  1.2247         estimate D2E/DX2                !
 ! R8    R(5,9)                  1.1026         estimate D2E/DX2                !
 ! R9    R(6,10)                 1.7136         estimate D2E/DX2                !
 ! R10   R(10,11)                1.0264         estimate D2E/DX2                !
 ! R11   R(10,12)                1.0251         estimate D2E/DX2                !
 ! R12   R(10,13)                1.025          estimate D2E/DX2                !
 ! A1    A(2,1,3)              125.2344         estimate D2E/DX2                !
 ! A2    A(2,1,4)              121.7771         estimate D2E/DX2                !
 ! A3    A(3,1,4)              112.9886         estimate D2E/DX2                !
 ! A4    A(1,2,5)              119.9371         estimate D2E/DX2                !
 ! A5    A(1,2,8)              122.5583         estimate D2E/DX2                !
 ! A6    A(5,2,8)              117.5046         estimate D2E/DX2                !
 ! A7    A(1,4,6)              108.5807         estimate D2E/DX2                !
 ! A8    A(2,5,7)              121.6622         estimate D2E/DX2                !
 ! A9    A(2,5,9)              116.3591         estimate D2E/DX2                !
 ! A10   A(7,5,9)              121.9787         estimate D2E/DX2                !
 ! A11   A(6,10,11)            104.7396         estimate D2E/DX2                !
 ! A12   A(6,10,12)            118.3011         estimate D2E/DX2                !
 ! A13   A(6,10,13)            119.7427         estimate D2E/DX2                !
 ! A14   A(11,10,12)           103.9128         estimate D2E/DX2                !
 ! A15   A(11,10,13)           103.9104         estimate D2E/DX2                !
 ! A16   A(12,10,13)           104.2478         estimate D2E/DX2                !
 ! A17   L(4,6,10,3,-1)        185.4886         estimate D2E/DX2                !
 ! A18   L(4,6,10,3,-2)        180.0623         estimate D2E/DX2                !
 ! D1    D(3,1,2,5)             -0.0016         estimate D2E/DX2                !
 ! D2    D(3,1,2,8)            179.999          estimate D2E/DX2                !
 ! D3    D(4,1,2,5)            179.9983         estimate D2E/DX2                !
 ! D4    D(4,1,2,8)             -0.001          estimate D2E/DX2                !
 ! D5    D(2,1,4,6)            179.9952         estimate D2E/DX2                !
 ! D6    D(3,1,4,6)             -0.0048         estimate D2E/DX2                !
 ! D7    D(1,2,5,7)            179.995          estimate D2E/DX2                !
 ! D8    D(1,2,5,9)             -0.0048         estimate D2E/DX2                !
 ! D9    D(8,2,5,7)             -0.0056         estimate D2E/DX2                !
 ! D10   D(8,2,5,9)            179.9946         estimate D2E/DX2                !
 ! D11   D(1,4,10,11)          176.7265         estimate D2E/DX2                !
 ! D12   D(1,4,10,12)          -69.2455         estimate D2E/DX2                !
 ! D13   D(1,4,10,13)           61.8268         estimate D2E/DX2                !
 --------------------------------------------------------------------------------
 Trust Radius=3.00D-01 FncErr=1.00D-07 GrdErr=1.00D-07 EigMax=2.50D+02 EigMin=1.00D-04
 Number of steps in this run=     53 maximum allowed number of steps=    100.
 GradGradGradGradGradGradGradGradGradGradGradGradGradGradGradGradGradGrad

                          Input orientation:                          
 ---------------------------------------------------------------------
 Center     Atomic      Atomic             Coordinates (Angstroms)
 Number     Number       Type             X           Y           Z
 ---------------------------------------------------------------------
      1          6           0       -0.731413    0.778538   -0.204194
      2          6           0       -1.360867    0.394475   -1.314937
      3          1           0       -0.977708    0.451560    0.798268
      4          8           0        0.321129    1.653254   -0.237795
      5          6           0       -2.488385   -0.548397   -1.231782
      6          1           0        0.638282    1.801641    0.689687
      7          8           0       -3.088947   -0.922095   -2.231532
      8          1           0       -1.077657    0.749533   -2.297274
      9          1           0       -2.760784   -0.897991   -0.222131
     10          7           0        1.298182    2.160511    2.229840
     11          1           0        2.098995    2.772184    2.034744
     12          1           0        0.728992    2.702111    2.888241
     13          1           0        1.696283    1.407812    2.800410
 ---------------------------------------------------------------------
                    Distance matrix (angstroms):
                    1          2          3          4          5
     1  C    0.000000
     2  C    1.333217   0.000000
     3  H    1.082823   2.148419   0.000000
     4  O    1.368979   2.360905   2.050481   0.000000
     5  C    2.429741   1.472147   2.720875   3.705218   0.000000
     6  H    1.929204   3.161524   2.108538   0.991377   4.357840
     7  O    3.544039   2.357915   3.940043   4.715509   1.224673
     8  H    2.121724   1.082248   3.111456   2.648541   2.193182
     9  H    2.632378   2.196466   2.458019   4.000910   1.102639
    10  N    3.457402   4.770207   3.185842   2.702067   5.801646
    11  H    4.122946   5.370709   4.047255   3.094713   6.537622
    12  H    3.923783   5.230622   3.513658   3.322432   6.155640
    13  H    3.913738   5.225811   3.474654   3.343947   6.131621
                    6          7          8          9         10
     6  H    0.000000
     7  O    5.463011   0.000000
     8  H    3.601849   2.616095   0.000000
     9  H    4.435434   2.036164   3.139024   0.000000
    10  N    1.713572   6.975185   5.303795   5.642854   0.000000
    11  H    2.210162   7.665739   5.740089   6.494700   1.026406
    12  H    2.377543   7.343269   5.828045   5.900312   1.025085
    13  H    2.393663   7.324434   5.840759   5.858150   1.024983
                   11         12         13
    11  H    0.000000
    12  H    1.615635   0.000000
    13  H    1.615529   1.618201   0.000000
 Stoichiometry    C3H7NO2
 Framework group  C1[X(C3H7NO2)]
 Deg. of freedom    33
 Full point group                 C1      NOp   1
 Largest Abelian subgroup         C1      NOp   1
 Largest concise Abelian subgroup C1      NOp   1
                         Standard orientation:                         
 ---------------------------------------------------------------------
 Center     Atomic      Atomic             Coordinates (Angstroms)
 Number     Number       Type             X           Y           Z
 ---------------------------------------------------------------------
      1          6           0        0.156340    0.010287   -0.000557
      2          6           0       -1.102036    0.450691    0.000079
      3          1           0        0.453815   -1.030872   -0.001252
      4          8           0        1.221228    0.870587   -0.000381
      5          6           0       -2.216881   -0.510734   -0.000178
      6          1           0        2.057483    0.338135   -0.000864
      7          8           0       -3.384462   -0.141168    0.000479
      8          1           0       -1.350444    1.504045    0.000781
      9          1           0       -1.942388   -1.578661   -0.000989
     10          7           0        3.584331   -0.439723    0.000082
     11          1           0        4.266892    0.324714   -0.056978
     12          1           0        3.864898   -0.958604    0.838439
     13          1           0        3.840762   -1.057514   -0.776556
 ---------------------------------------------------------------------
 Rotational constants (GHZ):          16.8182473           0.9733823           0.9245708
 Standard basis: Aug-CC-pVDZ (5D, 7F)
 There are   213 symmetry adapted cartesian basis functions of A   symmetry.
 There are   201 symmetry adapted basis functions of A   symmetry.
   201 basis functions,   335 primitive gaussians,   213 cartesian basis functions
    24 alpha electrons       24 beta electrons
       nuclear repulsion energy       212.6890859791 Hartrees.
 NAtoms=   13 NActive=   13 NUniq=   13 SFac= 1.00D+00 NAtFMM=   60 NAOKFM=F Big=F
 Integral buffers will be    131072 words long.
 Raffenetti 1 integral format.
 Two-electron integral symmetry is turned on.
 One-electron integrals computed using PRISM.
 NBasis=   201 RedAO= T EigKep=  2.20D-05  NBF=   201
 NBsUse=   201 1.00D-06 EigRej= -1.00D+00 NBFU=   201
 ExpMin= 2.97D-02 ExpMax= 1.17D+04 ExpMxC= 4.01D+02 IAcc=3 IRadAn=         5 AccDes= 0.00D+00
 Harris functional with IExCor=  205 and IRadAn=       5 diagonalized for initial guess.
 HarFok:  IExCor=  205 AccDes= 0.00D+00 IRadAn=         5 IDoV= 1 UseB2=F ITyADJ=14
 ICtDFT=  3500011 ScaDFX=  1.000000  1.000000  1.000000  1.000000
 FoFCou: FMM=F IPFlag=           0 FMFlag=      100000 FMFlg1=           0
         NFxFlg=           0 DoJE=T BraDBF=F KetDBF=T FulRan=T
         wScrn=  0.000000 ICntrl=       500 IOpCl=  0 I1Cent=   200000004 NGrid=           0
         NMat0=    1 NMatS0=      1 NMatT0=    0 NMatD0=    1 NMtDS0=    0 NMtDT0=    0
 Petite list used in FoFCou.
 Requested convergence on RMS density matrix=1.00D-08 within 128 cycles.
 Requested convergence on MAX density matrix=1.00D-06.
 Requested convergence on             energy=1.00D-06.
 No special actions if energy rises.
 SCF Done:  E(RHF) =  -321.879537851     A.U. after   14 cycles
            NFock= 14  Conv=0.76D-08     -V/T= 2.0018
 ExpMin= 2.97D-02 ExpMax= 1.17D+04 ExpMxC= 4.01D+02 IAcc=3 IRadAn=         5 AccDes= 0.00D+00
 HarFok:  IExCor=  205 AccDes= 0.00D+00 IRadAn=         5 IDoV=-2 UseB2=F ITyADJ=14
 ICtDFT= 12500011 ScaDFX=  1.000000  1.000000  1.000000  1.000000
 Range of M.O.s used for correlation:     7   201
 NBasis=   201 NAE=    24 NBE=    24 NFC=     6 NFV=     0
 NROrb=    195 NOA=    18 NOB=    18 NVA=   177 NVB=   177

 **** Warning!!: The largest alpha MO coefficient is  0.50409984D+02

 Fully direct method using O(ONN) memory.
 JobTyp=1 Pass  1:  I=   7 to  24 NPSUse= 40 ParTrn=T ParDer=T DoDerP=T.
 Spin components of T(2) and E(2):
     alpha-alpha T2 =       0.4224459873D-01 E2=     -0.1292613009D+00
     alpha-beta  T2 =       0.2377074004D+00 E2=     -0.7466089839D+00
     beta-beta   T2 =       0.4224459873D-01 E2=     -0.1292613009D+00
 ANorm=    0.1149868078D+01
 E2 =    -0.1005131586D+01 EUMP2 =    -0.32288466943687D+03
          IDoAtm=1111111111111
          Differentiating once with respect to electric field.
                with respect to dipole field.
          Differentiating once with respect to nuclear coordinates.
 Keep R1 ints in memory in canonical form, NReq=215099183.
          There are     1 degrees of freedom in the 1st order CPHF.  IDoFFX=0 NUNeed=     1.
 LinEq1:  Iter=  0 NonCon=     1 RMS=4.59D-03 Max=1.21D-01 NDo=     1
 AX will form     1 AO Fock derivatives at one time.
 LinEq1:  Iter=  1 NonCon=     1 RMS=1.40D-03 Max=1.94D-02 NDo=     1
 LinEq1:  Iter=  2 NonCon=     1 RMS=5.01D-04 Max=8.60D-03 NDo=     1
 LinEq1:  Iter=  3 NonCon=     1 RMS=1.57D-04 Max=2.96D-03 NDo=     1
 LinEq1:  Iter=  4 NonCon=     1 RMS=5.57D-05 Max=7.60D-04 NDo=     1
 LinEq1:  Iter=  5 NonCon=     1 RMS=2.01D-05 Max=2.56D-04 NDo=     1
 LinEq1:  Iter=  6 NonCon=     1 RMS=6.14D-06 Max=1.22D-04 NDo=     1
 LinEq1:  Iter=  7 NonCon=     1 RMS=1.89D-06 Max=3.91D-05 NDo=     1
 LinEq1:  Iter=  8 NonCon=     1 RMS=7.80D-07 Max=1.95D-05 NDo=     1
 LinEq1:  Iter=  9 NonCon=     1 RMS=1.83D-07 Max=2.05D-06 NDo=     1
 LinEq1:  Iter= 10 NonCon=     1 RMS=4.97D-08 Max=1.11D-06 NDo=     1
 LinEq1:  Iter= 11 NonCon=     1 RMS=1.68D-08 Max=2.38D-07 NDo=     1
 LinEq1:  Iter= 12 NonCon=     1 RMS=5.26D-09 Max=1.15D-07 NDo=     1
 LinEq1:  Iter= 13 NonCon=     1 RMS=1.37D-09 Max=2.05D-08 NDo=     1
 LinEq1:  Iter= 14 NonCon=     1 RMS=4.31D-10 Max=6.38D-09 NDo=     1
 LinEq1:  Iter= 15 NonCon=     1 RMS=1.28D-10 Max=1.85D-09 NDo=     1
 LinEq1:  Iter= 16 NonCon=     0 RMS=2.39D-11 Max=2.30D-10 NDo=     1
 Linear equations converged to 1.000D-10 1.000D-09 after    16 iterations.
 End of Minotr F.D. properties file   721 does not exist.
 End of Minotr F.D. properties file   722 does not exist.
 End of Minotr F.D. properties file   788 does not exist.

 **********************************************************************

            Population analysis using the SCF Density.

 **********************************************************************

 Orbital symmetries:
       Occupied  (A) (A) (A) (A) (A) (A) (A) (A) (A) (A) (A) (A)
                 (A) (A) (A) (A) (A) (A) (A) (A) (A) (A) (A) (A)
       Virtual   (A) (A) (A) (A) (A) (A) (A) (A) (A) (A) (A) (A)
                 (A) (A) (A) (A) (A) (A) (A) (A) (A) (A) (A) (A)
                 (A) (A) (A) (A) (A) (A) (A) (A) (A) (A) (A) (A)
                 (A) (A) (A) (A) (A) (A) (A) (A) (A) (A) (A) (A)
                 (A) (A) (A) (A) (A) (A) (A) (A) (A) (A) (A) (A)
                 (A) (A) (A) (A) (A) (A) (A) (A) (A) (A) (A) (A)
                 (A) (A) (A) (A) (A) (A) (A) (A) (A) (A) (A) (A)
                 (A) (A) (A) (A) (A) (A) (A) (A) (A) (A) (A) (A)
                 (A) (A) (A) (A) (A) (A) (A) (A) (A) (A) (A) (A)
                 (A) (A) (A) (A) (A) (A) (A) (A) (A) (A) (A) (A)
                 (A) (A) (A) (A) (A) (A) (A) (A) (A) (A) (A) (A)
                 (A) (A) (A) (A) (A) (A) (A) (A) (A) (A) (A) (A)
                 (A) (A) (A) (A) (A) (A) (A) (A) (A) (A) (A) (A)
                 (A) (A) (A) (A) (A) (A) (A) (A) (A) (A) (A) (A)
                 (A) (A) (A) (A) (A) (A) (A) (A) (A)
 The electronic state is 1-A.
 Alpha  occ. eigenvalues --  -20.58325 -20.53903 -15.61242 -11.32568 -11.32372
 Alpha  occ. eigenvalues --  -11.22328  -1.39063  -1.36315  -1.20225  -1.05876
 Alpha  occ. eigenvalues --   -0.85707  -0.78133  -0.72858  -0.67692  -0.67658
 Alpha  occ. eigenvalues --   -0.66581  -0.60342  -0.58935  -0.56718  -0.53568
 Alpha  occ. eigenvalues --   -0.51170  -0.48923  -0.40839  -0.34669
 Alpha virt. eigenvalues --    0.01335   0.03909   0.04217   0.05087   0.06028
 Alpha virt. eigenvalues --    0.07032   0.08805   0.10711   0.11001   0.12729
 Alpha virt. eigenvalues --    0.13375   0.14505   0.14745   0.15824   0.16545
 Alpha virt. eigenvalues --    0.16947   0.17854   0.18333   0.18523   0.18862
 Alpha virt. eigenvalues --    0.20390   0.22944   0.23139   0.24075   0.25290
 Alpha virt. eigenvalues --    0.25555   0.26796   0.29061   0.29883   0.30514
 Alpha virt. eigenvalues --    0.30954   0.32490   0.34030   0.34296   0.35559
 Alpha virt. eigenvalues --    0.36555   0.38539   0.39396   0.40320   0.40531
 Alpha virt. eigenvalues --    0.43017   0.43792   0.44801   0.45971   0.48397
 Alpha virt. eigenvalues --    0.48444   0.49436   0.50882   0.51509   0.51576
 Alpha virt. eigenvalues --    0.51654   0.53188   0.54503   0.54766   0.56159
 Alpha virt. eigenvalues --    0.58750   0.59312   0.59666   0.63770   0.64297
 Alpha virt. eigenvalues --    0.65140   0.65782   0.65949   0.66061   0.67053
 Alpha virt. eigenvalues --    0.68851   0.69238   0.70696   0.72118   0.73793
 Alpha virt. eigenvalues --    0.73957   0.79061   0.81370   0.82315   0.84006
 Alpha virt. eigenvalues --    0.85107   0.86101   0.86245   0.87926   0.88607
 Alpha virt. eigenvalues --    0.93172   0.96138   0.96730   0.97190   0.98220
 Alpha virt. eigenvalues --    1.00161   1.03946   1.06900   1.07414   1.11827
 Alpha virt. eigenvalues --    1.13550   1.18462   1.20405   1.21099   1.22383
 Alpha virt. eigenvalues --    1.25938   1.27371   1.28466   1.29662   1.32993
 Alpha virt. eigenvalues --    1.36763   1.36960   1.39195   1.42379   1.49221
 Alpha virt. eigenvalues --    1.50365   1.50679   1.58247   1.61507   1.63008
 Alpha virt. eigenvalues --    1.64847   1.65856   1.69954   1.71049   1.74569
 Alpha virt. eigenvalues --    1.78577   1.81111   1.84078   1.84786   1.86914
 Alpha virt. eigenvalues --    1.88286   1.90577   1.92742   1.93567   1.95350
 Alpha virt. eigenvalues --    1.96758   1.99688   2.01282   2.05596   2.05997
 Alpha virt. eigenvalues --    2.10007   2.11238   2.12991   2.17326   2.18874
 Alpha virt. eigenvalues --    2.24364   2.26215   2.28549   2.31792   2.32387
 Alpha virt. eigenvalues --    2.33744   2.37690   2.39976   2.40271   2.41653
 Alpha virt. eigenvalues --    2.41796   2.48971   2.49658   2.63286   2.68384
 Alpha virt. eigenvalues --    2.72766   2.74363   2.78159   2.81065   2.82551
 Alpha virt. eigenvalues --    2.84580   2.86662   2.93086   3.06524   3.07781
 Alpha virt. eigenvalues --    3.15032   3.25788   3.37024   3.50389   3.51039
 Alpha virt. eigenvalues --    3.51809   3.54929   3.72622   3.75369   3.79922
 Alpha virt. eigenvalues --    3.80333   3.83247   3.83588   4.00251   4.03011
 Alpha virt. eigenvalues --    4.12803   4.48978
          Condensed to atoms (all electrons):
               1          2          3          4          5          6
     1  C    5.342459  -0.158691  -0.138599  -0.176213   0.032769   0.046714
     2  C   -0.158691   5.778183  -0.124090   0.047846  -0.012363  -0.052277
     3  H   -0.138599  -0.124090   1.926128   0.044977  -0.082015  -0.178238
     4  O   -0.176213   0.047846   0.044977   8.722257  -0.008652   0.304420
     5  C    0.032769  -0.012363  -0.082015  -0.008652   4.965924   0.016150
     6  H    0.046714  -0.052277  -0.178238   0.304420   0.016150   0.578329
     7  O   -0.004805  -0.047392  -0.000530  -0.001502   0.258127  -0.000970
     8  H    0.072648   0.007647   0.084325  -0.006902  -0.174786  -0.020912
     9  H   -0.024725  -0.036678  -0.048639  -0.000673   0.323302   0.002863
    10  N   -0.000829  -0.013656   0.005713  -0.042103   0.002533  -0.136841
    11  H   -0.003706  -0.001785   0.003574   0.000592  -0.000094  -0.013505
    12  H    0.002443  -0.001108  -0.002490  -0.005984   0.000211  -0.008925
    13  H    0.001631  -0.000996  -0.001846  -0.004938   0.000161  -0.007390
               7          8          9         10         11         12
     1  C   -0.004805   0.072648  -0.024725  -0.000829  -0.003706   0.002443
     2  C   -0.047392   0.007647  -0.036678  -0.013656  -0.001785  -0.001108
     3  H   -0.000530   0.084325  -0.048639   0.005713   0.003574  -0.002490
     4  O   -0.001502  -0.006902  -0.000673  -0.042103   0.000592  -0.005984
     5  C    0.258127  -0.174786   0.323302   0.002533  -0.000094   0.000211
     6  H   -0.000970  -0.020912   0.002863  -0.136841  -0.013505  -0.008925
     7  O    8.584383   0.016185  -0.050861   0.000063   0.000017   0.000005
     8  H    0.016185   1.434774   0.007581   0.001414   0.000536  -0.000167
     9  H   -0.050861   0.007581   0.966073   0.001071  -0.000038   0.000049
    10  N    0.000063   0.001414   0.001071   6.264326   0.413675   0.406358
    11  H    0.000017   0.000536  -0.000038   0.413675   0.661347  -0.055269
    12  H    0.000005  -0.000167   0.000049   0.406358  -0.055269   0.681083
    13  H    0.000003  -0.000216   0.000013   0.404108  -0.063533  -0.091749
              13
     1  C    0.001631
     2  C   -0.000996
     3  H   -0.001846
     4  O   -0.004938
     5  C    0.000161
     6  H   -0.007390
     7  O    0.000003
     8  H   -0.000216
     9  H    0.000013
    10  N    0.404108
    11  H   -0.063533
    12  H   -0.091749
    13  H    0.690653
 Mulliken charges:
               1
     1  C    1.008905
     2  C    0.615361
     3  H   -0.488269
     4  O   -0.873124
     5  C    0.678734
     6  H    0.470582
     7  O   -0.752724
     8  H   -0.422127
     9  H   -0.139339
    10  N   -0.305832
    11  H    0.058189
    12  H    0.075545
    13  H    0.074099
 Sum of Mulliken charges =  -0.00000
 Mulliken charges with hydrogens summed into heavy atoms:
               1
     1  C    0.520636
     2  C    0.193234
     4  O   -0.402542
     5  C    0.539395
     7  O   -0.752724
    10  N   -0.097999
 Electronic spatial extent (au):  <R**2>=           1179.4481
 Charge=             -0.0000 electrons
 Dipole moment (field-independent basis, Debye):
    X=              8.7040    Y=             -2.9496    Z=              0.0032  Tot=              9.1902
 Quadrupole moment (field-independent basis, Debye-Ang):
   XX=            -34.7517   YY=            -34.7224   ZZ=            -37.0765
   XY=             -4.2610   XZ=              0.0160   YZ=              0.0017
 Traceless Quadrupole moment (field-independent basis, Debye-Ang):
   XX=              0.7652   YY=              0.7945   ZZ=             -1.5596
   XY=             -4.2610   XZ=              0.0160   YZ=              0.0017
 Octapole moment (field-independent basis, Debye-Ang**2):
  XXX=            181.3775  YYY=             -3.9253  ZZZ=              0.2029  XYY=              4.4604
  XXY=            -10.0488  XXZ=             -0.0186  XZZ=              8.8239  YZZ=             -2.3569
  YYZ=             -0.1707  XYZ=             -0.0503
 Hexadecapole moment (field-independent basis, Debye-Ang**3):
 XXXX=          -1212.5260 YYYY=           -108.6568 ZZZZ=            -41.9359 XXXY=            -36.6003
 XXXZ=             -0.2352 YYYX=            -10.9140 YYYZ=              0.3163 ZZZX=              0.8064
 ZZZY=             -0.1217 XXYY=           -208.0219 XXZZ=           -202.7185 YYZZ=            -25.2636
 XXYZ=             -0.3613 YYXZ=             -0.6502 ZZXY=             -7.3044
 N-N= 2.126890859791D+02 E-N=-1.182328967707D+03  KE= 3.213118538166D+02
 Calling FoFJK, ICntrl=  10002127 FMM=F ISym2X=0 I1Cent= 0 IOpClX= 0 NMat=1 NMatS=1 NMatT=0.
 ***** Axes restored to original set *****
 -------------------------------------------------------------------
 Center     Atomic                   Forces (Hartrees/Bohr)
 Number     Number              X              Y              Z
 -------------------------------------------------------------------
      1        6           0.034988047    0.027172148    0.014325735
      2        6          -0.023659603   -0.018307025   -0.010265424
      3        1          -0.008415695   -0.007836420    0.007160445
      4        8          -0.010634272   -0.008166445   -0.005106904
      5        6           0.018702645    0.016090516   -0.005017778
      6        1           0.000438537    0.000195936    0.001095705
      7        8          -0.013074847   -0.009770317   -0.008502422
      8        1           0.003278154    0.003414687   -0.005713641
      9        1          -0.003216119   -0.003678084    0.008271543
     10        7           0.007120505    0.004548305    0.011880581
     11        1          -0.002237350   -0.001537601   -0.002037033
     12        1          -0.001468203   -0.001260753   -0.003048055
     13        1          -0.001821799   -0.000864945   -0.003042751
 -------------------------------------------------------------------
 Cartesian Forces:  Max     0.034988047 RMS     0.011242260

 GradGradGradGradGradGradGradGradGradGradGradGradGradGradGradGradGradGrad
 Berny optimization.
 FormGI is forming the generalized inverse of G from B-inverse, IUseBI=4.
 Internal  Forces:  Max     0.029698505 RMS     0.006914442
 Search for a local minimum.
 Step number   1 out of a maximum of   53
 All quantities printed in internal units (Hartrees-Bohrs-Radians)
 Mixed Optimization -- RFO/linear search
 Second derivative matrix not updated -- first step.
 ITU=  0
     Eigenvalues ---    0.00230   0.00230   0.00230   0.01134   0.01134
     Eigenvalues ---    0.02100   0.02102   0.02726   0.02972   0.07211
     Eigenvalues ---    0.07851   0.10012   0.16000   0.16000   0.16000
     Eigenvalues ---    0.16000   0.16000   0.16000   0.16000   0.22000
     Eigenvalues ---    0.22000   0.22000   0.33392   0.35484   0.35655
     Eigenvalues ---    0.35724   0.43332   0.43537   0.43552   0.49236
     Eigenvalues ---    0.51173   0.58752   0.93342
 RFO step:  Lambda=-5.56056970D-03 EMin= 2.30000000D-03
 Linear search not attempted -- first point.
 Iteration  1 RMS(Cart)=  0.10831793 RMS(Int)=  0.00427496
 Iteration  2 RMS(Cart)=  0.01063647 RMS(Int)=  0.00032904
 Iteration  3 RMS(Cart)=  0.00003531 RMS(Int)=  0.00032849
 Iteration  4 RMS(Cart)=  0.00000002 RMS(Int)=  0.00032849
 Variable       Old X    -DE/DX   Delta X   Delta X   Delta X     New X
                                 (Linear)    (Quad)   (Total)
    R1        2.51941   0.02970   0.00000   0.05007   0.05007   2.56949
    R2        2.04624   0.01091   0.00000   0.03013   0.03013   2.07637
    R3        2.58699  -0.01114   0.00000  -0.02153  -0.02153   2.56547
    R4        2.78196  -0.00384   0.00000  -0.01064  -0.01064   2.77131
    R5        2.04515   0.00716   0.00000   0.01975   0.01975   2.06490
    R6        1.87343   0.00536   0.00000   0.01075   0.01075   1.88418
    R7        2.31430   0.01633   0.00000   0.01740   0.01740   2.33169
    R8        2.08369   0.00953   0.00000   0.02809   0.02809   2.11177
    R9        3.23818   0.00417   0.00000   0.05368   0.05367   3.29186
   R10        1.93963  -0.00227   0.00000  -0.00518  -0.00518   1.93444
   R11        1.93713  -0.00181   0.00000  -0.00410  -0.00410   1.93303
   R12        1.93694  -0.00177   0.00000  -0.00400  -0.00400   1.93293
    A1        2.18575  -0.01061   0.00000  -0.06023  -0.06023   2.12552
    A2        2.12541   0.00478   0.00000   0.02121   0.02121   2.14662
    A3        1.97202   0.00582   0.00000   0.03902   0.03902   2.01104
    A4        2.09330  -0.00075   0.00000  -0.00330  -0.00330   2.08999
    A5        2.13905  -0.00160   0.00000  -0.01027  -0.01027   2.12878
    A6        2.05084   0.00235   0.00000   0.01357   0.01357   2.06442
    A7        1.89509  -0.00034   0.00000  -0.00207  -0.00207   1.89302
    A8        2.12341   0.01227   0.00000   0.05438   0.05438   2.17779
    A9        2.03085  -0.00491   0.00000  -0.01980  -0.01980   2.01105
   A10        2.12893  -0.00736   0.00000  -0.03459  -0.03459   2.09434
   A11        1.82805  -0.00186   0.00000  -0.00912  -0.00852   1.81953
   A12        2.06474  -0.00255   0.00000  -0.01644  -0.01691   2.04783
   A13        2.08990  -0.00269   0.00000  -0.01738  -0.01780   2.07211
   A14        1.81362   0.00259   0.00000   0.01761   0.01810   1.83172
   A15        1.81358   0.00261   0.00000   0.01743   0.01800   1.83158
   A16        1.81947   0.00316   0.00000   0.01661   0.01562   1.83509
   A17        3.23739  -0.00091   0.00000  -0.13893  -0.13929   3.09810
   A18        3.14268  -0.00001   0.00000  -0.00057  -0.00054   3.14214
    D1       -0.00003  -0.00000   0.00000  -0.00004  -0.00004  -0.00007
    D2        3.14158  -0.00000   0.00000  -0.00004  -0.00004   3.14154
    D3        3.14156   0.00000   0.00000   0.00006   0.00006  -3.14156
    D4       -0.00002   0.00000   0.00000   0.00006   0.00006   0.00005
    D5        3.14151   0.00000   0.00000   0.00004   0.00004   3.14155
    D6       -0.00008   0.00000   0.00000   0.00013   0.00013   0.00005
    D7        3.14151   0.00000   0.00000   0.00009   0.00009  -3.14159
    D8       -0.00008   0.00000   0.00000   0.00001   0.00001  -0.00007
    D9       -0.00010   0.00000   0.00000   0.00009   0.00009  -0.00001
   D10        3.14150   0.00000   0.00000   0.00001   0.00001   3.14151
   D11        3.08446  -0.00005   0.00000  -0.00038  -0.00044   3.08402
   D12       -1.20856   0.00077   0.00000   0.03435   0.03332  -1.17524
   D13        1.07908  -0.00071   0.00000  -0.03269  -0.03161   1.04747
         Item               Value     Threshold  Converged?
 Maximum Force            0.029699     0.000450     NO 
 RMS     Force            0.006914     0.000300     NO 
 Maximum Displacement     0.249033     0.001800     NO 
 RMS     Displacement     0.115490     0.001200     NO 
 Predicted change in Energy=-2.894879D-03
 GradGradGradGradGradGradGradGradGradGradGradGradGradGradGradGradGradGrad

                          Input orientation:                          
 ---------------------------------------------------------------------
 Center     Atomic      Atomic             Coordinates (Angstroms)
 Number     Number       Type             X           Y           Z
 ---------------------------------------------------------------------
      1          6           0       -0.665691    0.838675   -0.249700
      2          6           0       -1.350807    0.405838   -1.341530
      3          1           0       -0.921614    0.502909    0.764721
      4          8           0        0.374223    1.708022   -0.326252
      5          6           0       -2.463798   -0.534731   -1.176456
      6          1           0        0.713882    1.876004    0.596003
      7          8           0       -3.146533   -0.986240   -2.099749
      8          1           0       -1.098955    0.737780   -2.351665
      9          1           0       -2.676969   -0.840121   -0.122841
     10          7           0        1.253595    2.123046    2.233733
     11          1           0        2.069123    2.734728    2.140753
     12          1           0        0.621871    2.619874    2.866536
     13          1           0        1.587775    1.317353    2.767992
 ---------------------------------------------------------------------
                    Distance matrix (angstroms):
                    1          2          3          4          5
     1  C    0.000000
     2  C    1.359715   0.000000
     3  H    1.098765   2.151726   0.000000
     4  O    1.357588   2.387928   2.078873   0.000000
     5  C    2.445058   1.466515   2.687600   3.715797   0.000000
     6  H    1.922105   3.190355   2.142126   0.997066   4.364734
     7  O    3.592711   2.395288   3.920843   4.774940   1.233878
     8  H    2.148524   1.092697   3.130252   2.685874   2.205265
     9  H    2.622916   2.190051   2.381757   3.980475   1.117502
    10  N    3.391269   4.744915   3.084538   2.738441   5.701945
    11  H    4.097376   5.407952   3.977309   3.164321   6.499278
    12  H    3.813321   5.147936   3.358797   3.329670   5.984871
    13  H    3.796539   5.133644   3.312620   3.346592   5.950137
                    6          7          8          9         10
     6  H    0.000000
     7  O    5.510201   0.000000
     8  H    3.642894   2.688546   0.000000
     9  H    4.403628   2.037156   3.153975   0.000000
    10  N    1.741975   6.914321   5.336602   5.457392   0.000000
    11  H    2.227182   7.683132   5.848619   6.358364   1.023663
    12  H    2.391052   7.202008   5.808025   5.638288   1.022914
    13  H    2.406931   7.170433   5.810793   5.585665   1.022864
                   11         12         13
    11  H    0.000000
    12  H    1.623111   0.000000
    13  H    1.622983   1.624574   0.000000
 Stoichiometry    C3H7NO2
 Framework group  C1[X(C3H7NO2)]
 Deg. of freedom    33
 Full point group                 C1      NOp   1
 Largest Abelian subgroup         C1      NOp   1
 Largest concise Abelian subgroup C1      NOp   1
                         Standard orientation:                         
 ---------------------------------------------------------------------
 Center     Atomic      Atomic             Coordinates (Angstroms)
 Number     Number       Type             X           Y           Z
 ---------------------------------------------------------------------
      1          6           0        0.193475    0.098768   -0.000327
      2          6           0       -1.106063    0.498801    0.000050
      3          1           0        0.471805   -0.964161   -0.000672
      4          8           0        1.235004    0.969550   -0.000194
      5          6           0       -2.176114   -0.504025   -0.000086
      6          1           0        2.083863    0.446503   -0.000493
      7          8           0       -3.382673   -0.245817    0.000225
      8          1           0       -1.386298    1.554952    0.000445
      9          1           0       -1.832313   -1.567327   -0.000578
     10          7           0        3.525768   -0.530937   -0.000101
     11          1           0        4.290170    0.147557   -0.056854
     12          1           0        3.721376   -1.079074    0.841111
     13          1           0        3.684586   -1.173022   -0.780328
 ---------------------------------------------------------------------
 Rotational constants (GHZ):          14.0812716           0.9916353           0.9309354
 Standard basis: Aug-CC-pVDZ (5D, 7F)
 There are   213 symmetry adapted cartesian basis functions of A   symmetry.
 There are   201 symmetry adapted basis functions of A   symmetry.
   201 basis functions,   335 primitive gaussians,   213 cartesian basis functions
    24 alpha electrons       24 beta electrons
       nuclear repulsion energy       211.9464478177 Hartrees.
 NAtoms=   13 NActive=   13 NUniq=   13 SFac= 1.00D+00 NAtFMM=   60 NAOKFM=F Big=F
 Integral buffers will be    131072 words long.
 Raffenetti 1 integral format.
 Two-electron integral symmetry is turned on.
 One-electron integrals computed using PRISM.
 NBasis=   201 RedAO= T EigKep=  2.26D-05  NBF=   201
 NBsUse=   201 1.00D-06 EigRej= -1.00D+00 NBFU=   201
 Initial guess from the checkpoint file:  "/scr/Gau-80392.chk"
 B after Tr=     0.000000    0.000000   -0.000000
         Rot=    1.000000   -0.000096    0.000002    0.000867 Ang=  -0.10 deg.
 ExpMin= 2.97D-02 ExpMax= 1.17D+04 ExpMxC= 4.01D+02 IAcc=3 IRadAn=         5 AccDes= 0.00D+00
 Harris functional with IExCor=  205 and IRadAn=       5 diagonalized for initial guess.
 HarFok:  IExCor=  205 AccDes= 0.00D+00 IRadAn=         5 IDoV= 1 UseB2=F ITyADJ=14
 ICtDFT=  3500011 ScaDFX=  1.000000  1.000000  1.000000  1.000000
 FoFCou: FMM=F IPFlag=           0 FMFlag=      100000 FMFlg1=           0
         NFxFlg=           0 DoJE=T BraDBF=F KetDBF=T FulRan=T
         wScrn=  0.000000 ICntrl=       500 IOpCl=  0 I1Cent=   200000004 NGrid=           0
         NMat0=    1 NMatS0=      1 NMatT0=    0 NMatD0=    1 NMtDS0=    0 NMtDT0=    0
 Petite list used in FoFCou.
 Requested convergence on RMS density matrix=1.00D-08 within 128 cycles.
 Requested convergence on MAX density matrix=1.00D-06.
 Requested convergence on             energy=1.00D-06.
 No special actions if energy rises.
 SCF Done:  E(RHF) =  -321.879806528     A.U. after   13 cycles
            NFock= 13  Conv=0.42D-08     -V/T= 2.0023
 ExpMin= 2.97D-02 ExpMax= 1.17D+04 ExpMxC= 4.01D+02 IAcc=3 IRadAn=         5 AccDes= 0.00D+00
 HarFok:  IExCor=  205 AccDes= 0.00D+00 IRadAn=         5 IDoV=-2 UseB2=F ITyADJ=14
 ICtDFT= 12500011 ScaDFX=  1.000000  1.000000  1.000000  1.000000
 Range of M.O.s used for correlation:     7   201
 NBasis=   201 NAE=    24 NBE=    24 NFC=     6 NFV=     0
 NROrb=    195 NOA=    18 NOB=    18 NVA=   177 NVB=   177

 **** Warning!!: The largest alpha MO coefficient is  0.59590178D+02

 Fully direct method using O(ONN) memory.
 JobTyp=1 Pass  1:  I=   7 to  24 NPSUse= 40 ParTrn=T ParDer=T DoDerP=T.
 Spin components of T(2) and E(2):
     alpha-alpha T2 =       0.4265874514D-01 E2=     -0.1296648263D+00
     alpha-beta  T2 =       0.2399582366D+00 E2=     -0.7486648935D+00
     beta-beta   T2 =       0.4265874514D-01 E2=     -0.1296648263D+00
 ANorm=    0.1151206205D+01
 E2 =    -0.1007994546D+01 EUMP2 =    -0.32288780107391D+03
          IDoAtm=1111111111111
          Differentiating once with respect to electric field.
                with respect to dipole field.
          Differentiating once with respect to nuclear coordinates.
 Keep R1 ints in memory in canonical form, NReq=215100094.
          There are     1 degrees of freedom in the 1st order CPHF.  IDoFFX=0 NUNeed=     1.
 LinEq1:  Iter=  0 NonCon=     1 RMS=4.67D-03 Max=1.31D-01 NDo=     1
 AX will form     1 AO Fock derivatives at one time.
 LinEq1:  Iter=  1 NonCon=     1 RMS=1.44D-03 Max=2.22D-02 NDo=     1
 LinEq1:  Iter=  2 NonCon=     1 RMS=5.19D-04 Max=9.38D-03 NDo=     1
 LinEq1:  Iter=  3 NonCon=     1 RMS=1.70D-04 Max=3.58D-03 NDo=     1
 LinEq1:  Iter=  4 NonCon=     1 RMS=5.97D-05 Max=9.75D-04 NDo=     1
 LinEq1:  Iter=  5 NonCon=     1 RMS=2.17D-05 Max=2.76D-04 NDo=     1
 LinEq1:  Iter=  6 NonCon=     1 RMS=7.44D-06 Max=2.20D-04 NDo=     1
 LinEq1:  Iter=  7 NonCon=     1 RMS=2.21D-06 Max=3.95D-05 NDo=     1
 LinEq1:  Iter=  8 NonCon=     1 RMS=1.00D-06 Max=3.28D-05 NDo=     1
 LinEq1:  Iter=  9 NonCon=     1 RMS=2.22D-07 Max=2.21D-06 NDo=     1
 LinEq1:  Iter= 10 NonCon=     1 RMS=6.10D-08 Max=1.28D-06 NDo=     1
 LinEq1:  Iter= 11 NonCon=     1 RMS=2.06D-08 Max=3.44D-07 NDo=     1
 LinEq1:  Iter= 12 NonCon=     1 RMS=6.33D-09 Max=1.03D-07 NDo=     1
 LinEq1:  Iter= 13 NonCon=     1 RMS=1.62D-09 Max=2.25D-08 NDo=     1
 LinEq1:  Iter= 14 NonCon=     1 RMS=5.13D-10 Max=7.39D-09 NDo=     1
 LinEq1:  Iter= 15 NonCon=     1 RMS=1.49D-10 Max=2.19D-09 NDo=     1
 LinEq1:  Iter= 16 NonCon=     0 RMS=2.70D-11 Max=2.52D-10 NDo=     1
 Linear equations converged to 1.000D-10 1.000D-09 after    16 iterations.
 End of Minotr F.D. properties file   721 does not exist.
 End of Minotr F.D. properties file   722 does not exist.
 End of Minotr F.D. properties file   788 does not exist.
 Calling FoFJK, ICntrl=  10002127 FMM=F ISym2X=0 I1Cent= 0 IOpClX= 0 NMat=1 NMatS=1 NMatT=0.
 ***** Axes restored to original set *****
 -------------------------------------------------------------------
 Center     Atomic                   Forces (Hartrees/Bohr)
 Number     Number              X              Y              Z
 -------------------------------------------------------------------
      1        6           0.010175266    0.008246877    0.001413011
      2        6          -0.005588734   -0.004380205   -0.001943153
      3        1          -0.002061615   -0.001608708   -0.000739809
      4        8          -0.006239899   -0.005026982   -0.001030842
      5        6           0.004582387    0.003653123    0.001027388
      6        1          -0.002856642   -0.002304103   -0.000872429
      7        8          -0.000729291   -0.000509609   -0.000738372
      8        1           0.001258974    0.000996803    0.000364204
      9        1          -0.000025106   -0.000163356    0.001192585
     10        7           0.003917976    0.002592859    0.006150239
     11        1          -0.000802380   -0.000553445   -0.000577056
     12        1          -0.000852767   -0.000372076   -0.002070926
     13        1          -0.000778168   -0.000571177   -0.002174839
 -------------------------------------------------------------------
 Cartesian Forces:  Max     0.010175266 RMS     0.003310898

 GradGradGradGradGradGradGradGradGradGradGradGradGradGradGradGradGradGrad
 Berny optimization.
 Using GEDIIS/GDIIS optimizer.
 FormGI is forming the generalized inverse of G from B-inverse, IUseBI=4.
 Internal  Forces:  Max     0.009790843 RMS     0.002103477
 Search for a local minimum.
 Step number   2 out of a maximum of   53
 All quantities printed in internal units (Hartrees-Bohrs-Radians)
 Mixed Optimization -- RFO/linear search
 Update second derivatives using D2CorX and points    1    2
 DE= -3.13D-03 DEPred=-2.89D-03 R= 1.08D+00
 TightC=F SS=  1.41D+00  RLast= 2.05D-01 DXNew= 5.0454D-01 6.1528D-01
 Trust test= 1.08D+00 RLast= 2.05D-01 DXMaxT set to 5.05D-01
 ITU=  1  0
 Use linear search instead of GDIIS.
     Eigenvalues ---    0.00230   0.00230   0.00269   0.01134   0.01134
     Eigenvalues ---    0.02088   0.02102   0.02706   0.02972   0.06845
     Eigenvalues ---    0.08212   0.09975   0.12956   0.16000   0.16000
     Eigenvalues ---    0.16000   0.16000   0.16000   0.16204   0.21052
     Eigenvalues ---    0.22000   0.23216   0.32778   0.34609   0.35703
     Eigenvalues ---    0.36631   0.43207   0.43466   0.43545   0.47761
     Eigenvalues ---    0.49570   0.63031   0.93540
 RFO step:  Lambda=-1.81060290D-03 EMin= 2.29998451D-03
 Quartic linear search produced a step of  0.17071.
 Iteration  1 RMS(Cart)=  0.12213385 RMS(Int)=  0.04008703
 Iteration  2 RMS(Cart)=  0.12779732 RMS(Int)=  0.01072136
 Iteration  3 RMS(Cart)=  0.03466111 RMS(Int)=  0.00069000
 Iteration  4 RMS(Cart)=  0.00104605 RMS(Int)=  0.00048429
 Iteration  5 RMS(Cart)=  0.00000013 RMS(Int)=  0.00048429
 Variable       Old X    -DE/DX   Delta X   Delta X   Delta X     New X
                                 (Linear)    (Quad)   (Total)
    R1        2.56949   0.00046   0.00855   0.01305   0.02160   2.59109
    R2        2.07637   0.00029   0.00514   0.00824   0.01338   2.08975
    R3        2.56547  -0.00979  -0.00367  -0.02795  -0.03162   2.53385
    R4        2.77131  -0.00465  -0.00182  -0.01812  -0.01994   2.75138
    R5        2.06490   0.00026   0.00337   0.00562   0.00899   2.07389
    R6        1.88418  -0.00025   0.00184   0.00200   0.00376   1.88794
    R7        2.33169   0.00114   0.00297   0.00567   0.00864   2.34034
    R8        2.11177   0.00117   0.00479   0.01095   0.01575   2.12752
    R9        3.29186   0.00186   0.00916   0.04274   0.05194   3.34380
   R10        1.93444  -0.00092  -0.00088  -0.00377  -0.00465   1.92979
   R11        1.93303  -0.00094  -0.00070  -0.00354  -0.00424   1.92878
   R12        1.93293  -0.00094  -0.00068  -0.00353  -0.00422   1.92872
    A1        2.12552  -0.00334  -0.01028  -0.03803  -0.04832   2.07720
    A2        2.14662   0.00108   0.00362   0.01091   0.01453   2.16115
    A3        2.01104   0.00227   0.00666   0.02713   0.03379   2.04483
    A4        2.08999  -0.00328  -0.00056  -0.01842  -0.01899   2.07101
    A5        2.12878  -0.00004  -0.00175  -0.00603  -0.00778   2.12100
    A6        2.06442   0.00332   0.00232   0.02445   0.02677   2.09118
    A7        1.89302  -0.00172  -0.00035  -0.01319  -0.01354   1.87947
    A8        2.17779   0.00046   0.00928   0.01559   0.02487   2.20266
    A9        2.01105  -0.00051  -0.00338  -0.00810  -0.01148   1.99957
   A10        2.09434   0.00005  -0.00590  -0.00748  -0.01339   2.08096
   A11        1.81953   0.00027  -0.00145   0.00313   0.00241   1.82195
   A12        2.04783  -0.00202  -0.00289  -0.02053  -0.02439   2.02344
   A13        2.07211  -0.00224  -0.00304  -0.02241  -0.02603   2.04608
   A14        1.83172   0.00135   0.00309   0.01723   0.02036   1.85207
   A15        1.83158   0.00137   0.00307   0.01712   0.02144   1.85302
   A16        1.83509   0.00201   0.00267   0.01442   0.01584   1.85093
   A17        3.09810   0.00192  -0.02378   0.47835   0.45407   3.55216
   A18        3.14214   0.00001  -0.00009   0.00696   0.00700   3.14914
    D1       -0.00007  -0.00000  -0.00001  -0.00008  -0.00008  -0.00015
    D2        3.14154  -0.00000  -0.00001  -0.00005  -0.00005   3.14148
    D3       -3.14156  -0.00000   0.00001   0.00001   0.00002  -3.14154
    D4        0.00005   0.00000   0.00001   0.00004   0.00005   0.00009
    D5        3.14155   0.00000   0.00001   0.00022   0.00021  -3.14143
    D6        0.00005   0.00001   0.00002   0.00031   0.00031   0.00036
    D7       -3.14159  -0.00000   0.00002  -0.00017  -0.00016   3.14144
    D8       -0.00007   0.00000   0.00000   0.00025   0.00026   0.00019
    D9       -0.00001  -0.00000   0.00001  -0.00020  -0.00019  -0.00020
   D10        3.14151   0.00000   0.00000   0.00022   0.00023  -3.14145
   D11        3.08402  -0.00002  -0.00008   0.00490   0.00384   3.08785
   D12       -1.17524   0.00040   0.00569  -0.06844  -0.06360  -1.23884
   D13        1.04747  -0.00036  -0.00540   0.07092   0.06730   1.11477
         Item               Value     Threshold  Converged?
 Maximum Force            0.009791     0.000450     NO 
 RMS     Force            0.002103     0.000300     NO 
 Maximum Displacement     0.544824     0.001800     NO 
 RMS     Displacement     0.274152     0.001200     NO 
 Predicted change in Energy=-1.248025D-03
 GradGradGradGradGradGradGradGradGradGradGradGradGradGradGradGradGradGrad

                          Input orientation:                          
 ---------------------------------------------------------------------
 Center     Atomic      Atomic             Coordinates (Angstroms)
 Number     Number       Type             X           Y           Z
 ---------------------------------------------------------------------
      1          6           0       -0.778328    0.734381   -0.180413
      2          6           0       -1.373967    0.391097   -1.366758
      3          1           0       -1.163674    0.297305    0.759465
      4          8           0        0.258021    1.579549   -0.082639
      5          6           0       -2.494099   -0.538712   -1.342383
      6          1           0        0.497483    1.655578    0.884312
      7          8           0       -3.131473   -0.942047   -2.324645
      8          1           0       -1.025131    0.800228   -2.323490
      9          1           0       -2.777981   -0.902744   -0.315545
     10          7           0        1.398935    2.236875    2.291604
     11          1           0        2.136034    2.822894    1.896487
     12          1           0        0.880643    2.831684    2.939168
     13          1           0        1.869639    1.537048    2.866383
 ---------------------------------------------------------------------
                    Distance matrix (angstroms):
                    1          2          3          4          5
     1  C    0.000000
     2  C    1.371147   0.000000
     3  H    1.105847   2.138655   0.000000
     4  O    1.340854   2.392648   2.091531   0.000000
     5  C    2.432038   1.455965   2.624256   3.694340   0.000000
     6  H    1.899984   3.188817   2.149403   0.999057   4.326967
     7  O    3.597976   2.404922   3.862637   4.782647   1.238453
     8  H    2.158246   1.097456   3.126777   2.697264   2.216574
     9  H    2.587866   2.179525   2.280735   3.928528   1.125835
    10  N    3.620612   4.947675   3.560385   2.714920   6.005452
    11  H    4.143538   5.374245   4.308072   2.998296   6.574861
    12  H    4.108851   5.438817   3.918343   3.329687   6.409378
    13  H    4.115698   5.454692   3.895773   3.360929   6.408174
                    6          7          8          9         10
     6  H    0.000000
     7  O    5.496761   0.000000
     8  H    3.652392   2.733533   0.000000
     9  H    4.325891   2.040339   3.162980   0.000000
    10  N    1.769461   7.206934   5.407322   5.839611   0.000000
    11  H    2.252104   7.729124   5.647330   6.551412   1.021200
    12  H    2.398431   7.618783   5.954356   6.158298   1.020668
    13  H    2.413600   7.622585   5.988102   6.138210   1.020633
                   11         12         13
    11  H    0.000000
    12  H    1.631953   0.000000
    13  H    1.632502   1.630795   0.000000
 Stoichiometry    C3H7NO2
 Framework group  C1[X(C3H7NO2)]
 Deg. of freedom    33
 Full point group                 C1      NOp   1
 Largest Abelian subgroup         C1      NOp   1
 Largest concise Abelian subgroup C1      NOp   1
                         Standard orientation:                         
 ---------------------------------------------------------------------
 Center     Atomic      Atomic             Coordinates (Angstroms)
 Number     Number       Type             X           Y           Z
 ---------------------------------------------------------------------
      1          6           0        0.129023   -0.036882   -0.002576
      2          6           0       -1.140890    0.480180    0.000546
      3          1           0        0.261116   -1.134807   -0.005646
      4          8           0        1.240372    0.713313   -0.001925
      5          6           0       -2.269414   -0.439747   -0.000498
      6          1           0        2.024478    0.094213   -0.004855
      7          8           0       -3.467813   -0.127338    0.002116
      8          1           0       -1.319560    1.562990    0.003741
      9          1           0       -1.985272   -1.529131   -0.003702
     10          7           0        3.735465   -0.356867    0.001469
     11          1           0        4.232823    0.533357   -0.053182
     12          1           0        4.072362   -0.818165    0.847322
     13          1           0        4.073015   -0.919500   -0.780321
 ---------------------------------------------------------------------
 Rotational constants (GHZ):          20.6470656           0.9166286           0.8817698
 Standard basis: Aug-CC-pVDZ (5D, 7F)
 There are   213 symmetry adapted cartesian basis functions of A   symmetry.
 There are   201 symmetry adapted basis functions of A   symmetry.
   201 basis functions,   335 primitive gaussians,   213 cartesian basis functions
    24 alpha electrons       24 beta electrons
       nuclear repulsion energy       210.6117901360 Hartrees.
 NAtoms=   13 NActive=   13 NUniq=   13 SFac= 1.00D+00 NAtFMM=   60 NAOKFM=F Big=F
 Integral buffers will be    131072 words long.
 Raffenetti 1 integral format.
 Two-electron integral symmetry is turned on.
 One-electron integrals computed using PRISM.
 NBasis=   201 RedAO= T EigKep=  2.52D-05  NBF=   201
 NBsUse=   201 1.00D-06 EigRej= -1.00D+00 NBFU=   201
 Initial guess from the checkpoint file:  "/scr/Gau-80392.chk"
 B after Tr=    -0.000000   -0.000000    0.000000
         Rot=    0.999998    0.000405    0.000005   -0.001769 Ang=   0.21 deg.
 ExpMin= 2.97D-02 ExpMax= 1.17D+04 ExpMxC= 4.01D+02 IAcc=3 IRadAn=         5 AccDes= 0.00D+00
 Harris functional with IExCor=  205 and IRadAn=       5 diagonalized for initial guess.
 HarFok:  IExCor=  205 AccDes= 0.00D+00 IRadAn=         5 IDoV= 1 UseB2=F ITyADJ=14
 ICtDFT=  3500011 ScaDFX=  1.000000  1.000000  1.000000  1.000000
 FoFCou: FMM=F IPFlag=           0 FMFlag=      100000 FMFlg1=           0
         NFxFlg=           0 DoJE=T BraDBF=F KetDBF=T FulRan=T
         wScrn=  0.000000 ICntrl=       500 IOpCl=  0 I1Cent=   200000004 NGrid=           0
         NMat0=    1 NMatS0=      1 NMatT0=    0 NMatD0=    1 NMtDS0=    0 NMtDT0=    0
 Petite list used in FoFCou.
 Requested convergence on RMS density matrix=1.00D-08 within 128 cycles.
 Requested convergence on MAX density matrix=1.00D-06.
 Requested convergence on             energy=1.00D-06.
 No special actions if energy rises.
 SCF Done:  E(RHF) =  -321.877790397     A.U. after   14 cycles
            NFock= 14  Conv=0.81D-08     -V/T= 2.0024
 ExpMin= 2.97D-02 ExpMax= 1.17D+04 ExpMxC= 4.01D+02 IAcc=3 IRadAn=         5 AccDes= 0.00D+00
 HarFok:  IExCor=  205 AccDes= 0.00D+00 IRadAn=         5 IDoV=-2 UseB2=F ITyADJ=14
 ICtDFT= 12500011 ScaDFX=  1.000000  1.000000  1.000000  1.000000
 Range of M.O.s used for correlation:     7   201
 NBasis=   201 NAE=    24 NBE=    24 NFC=     6 NFV=     0
 NROrb=    195 NOA=    18 NOB=    18 NVA=   177 NVB=   177

 **** Warning!!: The largest alpha MO coefficient is  0.46909235D+02

 Fully direct method using O(ONN) memory.
 JobTyp=1 Pass  1:  I=   7 to  24 NPSUse= 40 ParTrn=T ParDer=T DoDerP=T.
 Spin components of T(2) and E(2):
     alpha-alpha T2 =       0.4276499784D-01 E2=     -0.1298154644D+00
     alpha-beta  T2 =       0.2404258427D+00 E2=     -0.7490654219D+00
     beta-beta   T2 =       0.4276499784D-01 E2=     -0.1298154644D+00
 ANorm=    0.1151501558D+01
 E2 =    -0.1008696351D+01 EUMP2 =    -0.32288648674759D+03
          IDoAtm=1111111111111
          Differentiating once with respect to electric field.
                with respect to dipole field.
          Differentiating once with respect to nuclear coordinates.
 Keep R1 ints in memory in canonical form, NReq=215094917.
          There are     1 degrees of freedom in the 1st order CPHF.  IDoFFX=0 NUNeed=     1.
 LinEq1:  Iter=  0 NonCon=     1 RMS=4.71D-03 Max=9.51D-02 NDo=     1
 AX will form     1 AO Fock derivatives at one time.
 LinEq1:  Iter=  1 NonCon=     1 RMS=1.46D-03 Max=2.23D-02 NDo=     1
 LinEq1:  Iter=  2 NonCon=     1 RMS=5.27D-04 Max=7.75D-03 NDo=     1
 LinEq1:  Iter=  3 NonCon=     1 RMS=1.76D-04 Max=2.94D-03 NDo=     1
 LinEq1:  Iter=  4 NonCon=     1 RMS=6.22D-05 Max=9.61D-04 NDo=     1
 LinEq1:  Iter=  5 NonCon=     1 RMS=2.27D-05 Max=2.79D-04 NDo=     1
 LinEq1:  Iter=  6 NonCon=     1 RMS=8.31D-06 Max=2.13D-04 NDo=     1
 LinEq1:  Iter=  7 NonCon=     1 RMS=2.39D-06 Max=3.71D-05 NDo=     1
 LinEq1:  Iter=  8 NonCon=     1 RMS=1.09D-06 Max=3.04D-05 NDo=     1
 LinEq1:  Iter=  9 NonCon=     1 RMS=2.35D-07 Max=2.19D-06 NDo=     1
 LinEq1:  Iter= 10 NonCon=     1 RMS=6.32D-08 Max=1.06D-06 NDo=     1
 LinEq1:  Iter= 11 NonCon=     1 RMS=2.10D-08 Max=3.21D-07 NDo=     1
 LinEq1:  Iter= 12 NonCon=     1 RMS=6.45D-09 Max=1.26D-07 NDo=     1
 LinEq1:  Iter= 13 NonCon=     1 RMS=1.64D-09 Max=2.03D-08 NDo=     1
 LinEq1:  Iter= 14 NonCon=     1 RMS=5.23D-10 Max=6.36D-09 NDo=     1
 LinEq1:  Iter= 15 NonCon=     1 RMS=1.53D-10 Max=1.90D-09 NDo=     1
 LinEq1:  Iter= 16 NonCon=     0 RMS=2.80D-11 Max=2.47D-10 NDo=     1
 Linear equations converged to 1.000D-10 1.000D-09 after    16 iterations.
 End of Minotr F.D. properties file   721 does not exist.
 End of Minotr F.D. properties file   722 does not exist.
 End of Minotr F.D. properties file   788 does not exist.
 Calling FoFJK, ICntrl=  10002127 FMM=F ISym2X=0 I1Cent= 0 IOpClX= 0 NMat=1 NMatS=1 NMatT=0.
 ***** Axes restored to original set *****
 -------------------------------------------------------------------
 Center     Atomic                   Forces (Hartrees/Bohr)
 Number     Number              X              Y              Z
 -------------------------------------------------------------------
      1        6          -0.009957472   -0.007280582   -0.007557758
      2        6           0.005485273    0.004294702    0.001814091
      3        1           0.002059616    0.002063224   -0.002931909
      4        8          -0.002743714   -0.003270660    0.007256617
      5        6          -0.005472397   -0.004801403    0.002626255
      6        1           0.007311651    0.006966046   -0.006367524
      7        8           0.003984961    0.002968515    0.002455700
      8        1          -0.000721667   -0.000931806    0.002629524
      9        1           0.001186893    0.001305133   -0.002715206
     10        7          -0.000703344   -0.000996626    0.003893045
     11        1          -0.000432511   -0.000354658   -0.000694876
     12        1          -0.000159875    0.000152501   -0.000194589
     13        1           0.000162586   -0.000114388   -0.000213370
 -------------------------------------------------------------------
 Cartesian Forces:  Max     0.009957472 RMS     0.003982754

 GradGradGradGradGradGradGradGradGradGradGradGradGradGradGradGradGradGrad
 Berny optimization.
 Using GEDIIS/GDIIS optimizer.
 FormGI is forming the generalized inverse of G from B-inverse, IUseBI=4.
 Internal  Forces:  Max     0.008541078 RMS     0.002747769
 Search for a local minimum.
 Step number   3 out of a maximum of   53
 All quantities printed in internal units (Hartrees-Bohrs-Radians)
 Mixed Optimization -- RFO/linear search
 Update second derivatives using D2CorX and points    1    3    2
 DE=  1.31D-03 DEPred=-1.25D-03 R=-1.05D+00
 Trust test=-1.05D+00 RLast= 4.78D-01 DXMaxT set to 2.52D-01
 ITU= -1  1  0
 Use linear search instead of GDIIS.
     Eigenvalues ---    0.00230   0.00230   0.01134   0.01134   0.01509
     Eigenvalues ---    0.02070   0.02102   0.02689   0.02972   0.05662
     Eigenvalues ---    0.08084   0.10453   0.11143   0.16000   0.16000
     Eigenvalues ---    0.16000   0.16000   0.16119   0.17554   0.20861
     Eigenvalues ---    0.22007   0.23101   0.32952   0.34363   0.35703
     Eigenvalues ---    0.36606   0.43005   0.43442   0.43545   0.47068
     Eigenvalues ---    0.49363   0.62732   0.93956
 RFO step:  Lambda=-8.47419968D-04 EMin= 2.29987523D-03
 Quartic linear search produced a step of -0.69776.
 Iteration  1 RMS(Cart)=  0.12953980 RMS(Int)=  0.03700388
 Iteration  2 RMS(Cart)=  0.13662190 RMS(Int)=  0.00843561
 Iteration  3 RMS(Cart)=  0.03033322 RMS(Int)=  0.00103256
 Iteration  4 RMS(Cart)=  0.00032751 RMS(Int)=  0.00101258
 Iteration  5 RMS(Cart)=  0.00000025 RMS(Int)=  0.00101258
 Variable       Old X    -DE/DX   Delta X   Delta X   Delta X     New X
                                 (Linear)    (Quad)   (Total)
    R1        2.59109  -0.00854  -0.01507   0.00206  -0.01301   2.57808
    R2        2.08975  -0.00403  -0.00934   0.00095  -0.00839   2.08136
    R3        2.53385   0.00442   0.02207  -0.02914  -0.00708   2.52677
    R4        2.75138   0.00061   0.01391  -0.02078  -0.00687   2.74451
    R5        2.07389  -0.00287  -0.00627   0.00072  -0.00556   2.06833
    R6        1.88794  -0.00153  -0.00263  -0.00066  -0.00328   1.88467
    R7        2.34034  -0.00497  -0.00603   0.00212  -0.00392   2.33642
    R8        2.12752  -0.00320  -0.01099   0.00542  -0.00557   2.12195
    R9        3.34380   0.00120  -0.03624   0.04927   0.01302   3.35682
   R10        1.92979  -0.00025   0.00325  -0.00399  -0.00074   1.92905
   R11        1.92878   0.00005   0.00296  -0.00371  -0.00075   1.92803
   R12        1.92872   0.00003   0.00294  -0.00373  -0.00079   1.92793
    A1        2.07720   0.00125   0.03371  -0.03451  -0.00079   2.07641
    A2        2.16115  -0.00053  -0.01014   0.00899  -0.00115   2.16001
    A3        2.04483  -0.00072  -0.02358   0.02552   0.00194   2.04677
    A4        2.07101  -0.00103   0.01325  -0.02467  -0.01142   2.05958
    A5        2.12100   0.00024   0.00543  -0.00548  -0.00005   2.12094
    A6        2.09118   0.00079  -0.01868   0.03015   0.01148   2.10266
    A7        1.87947   0.00837   0.00945  -0.00065   0.00880   1.88827
    A8        2.20266  -0.00348  -0.01735   0.00401  -0.01334   2.18932
    A9        1.99957   0.00120   0.00801  -0.00499   0.00302   2.00259
   A10        2.08096   0.00228   0.00934   0.00098   0.01032   2.09128
   A11        1.82195  -0.00176  -0.00168   0.00148   0.00192   1.82386
   A12        2.02344   0.00032   0.01702  -0.02276  -0.00671   2.01673
   A13        2.04608   0.00040   0.01816  -0.02463  -0.00725   2.03883
   A14        1.85207  -0.00006  -0.01420   0.01726   0.00480   1.85687
   A15        1.85302  -0.00014  -0.01496   0.01768   0.00480   1.85782
   A16        1.85093   0.00106  -0.01105   0.01822   0.00451   1.85544
   A17        3.55216  -0.00841  -0.31683  -0.11469  -0.43256   3.11960
   A18        3.14914  -0.00012  -0.00489  -0.00464  -0.00941   3.13974
    D1       -0.00015   0.00000   0.00006  -0.00005   0.00001  -0.00014
    D2        3.14148   0.00000   0.00004  -0.00002   0.00001   3.14150
    D3       -3.14154   0.00000  -0.00001   0.00003   0.00002  -3.14152
    D4        0.00009   0.00000  -0.00003   0.00006   0.00002   0.00012
    D5       -3.14143  -0.00000  -0.00015   0.00020   0.00006  -3.14137
    D6        0.00036  -0.00000  -0.00022   0.00029   0.00007   0.00043
    D7        3.14144   0.00001   0.00011   0.00008   0.00019  -3.14156
    D8        0.00019  -0.00001  -0.00018  -0.00002  -0.00020  -0.00001
    D9       -0.00020   0.00001   0.00013   0.00006   0.00019  -0.00001
   D10       -3.14145  -0.00001  -0.00016  -0.00004  -0.00020   3.14154
   D11        3.08785  -0.00006  -0.00268   0.00262  -0.00030   3.08755
   D12       -1.23884   0.00044   0.04438   0.03977   0.08092  -1.15792
   D13        1.11477  -0.00039  -0.04696  -0.03368  -0.07716   1.03761
         Item               Value     Threshold  Converged?
 Maximum Force            0.008541     0.000450     NO 
 RMS     Force            0.002748     0.000300     NO 
 Maximum Displacement     0.561230     0.001800     NO 
 RMS     Displacement     0.289121     0.001200     NO 
 Predicted change in Energy=-7.280258D-04
 GradGradGradGradGradGradGradGradGradGradGradGradGradGradGradGradGradGrad

                          Input orientation:                          
 ---------------------------------------------------------------------
 Center     Atomic      Atomic             Coordinates (Angstroms)
 Number     Number       Type             X           Y           Z
 ---------------------------------------------------------------------
      1          6           0       -0.658714    0.848939   -0.276979
      2          6           0       -1.348668    0.410382   -1.369151
      3          1           0       -0.952158    0.485796    0.720577
      4          8           0        0.366686    1.704749   -0.340253
      5          6           0       -2.442938   -0.520417   -1.155958
      6          1           0        0.696263    1.864862    0.587322
      7          8           0       -3.156416   -1.003317   -2.042746
      8          1           0       -1.092759    0.744164   -2.379627
      9          1           0       -2.621494   -0.797896   -0.082643
     10          7           0        1.257853    2.123295    2.252630
     11          1           0        2.068584    2.736133    2.156748
     12          1           0        0.602898    2.606434    2.867903
     13          1           0        1.576964    1.300012    2.763722
 ---------------------------------------------------------------------
                    Distance matrix (angstroms):
                    1          2          3          4          5
     1  C    0.000000
     2  C    1.364261   0.000000
     3  H    1.101408   2.128350   0.000000
     4  O    1.337108   2.382532   2.085798   0.000000
     5  C    2.414787   1.452331   2.599283   3.675693   0.000000
     6  H    1.901336   3.181987   2.153339   0.997322   4.310819
     7  O    3.575933   2.391700   3.835644   4.758608   1.236381
     8  H    2.149536   1.094514   3.114128   2.685471   2.217998
     9  H    2.569501   2.176034   2.253821   3.906253   1.122890
    10  N    3.419961   4.779678   3.148449   2.773517   5.683620
    11  H    4.113719   5.433111   4.031313   3.192996   6.475567
    12  H    3.817164   5.155957   3.395042   3.340823   5.936815
    13  H    3.800998   5.141148   3.351693   3.356075   5.902327
                    6          7          8          9         10
     6  H    0.000000
     7  O    5.476024   0.000000
     8  H    3.641339   2.725043   0.000000
     9  H    4.306581   2.042142   3.160873   0.000000
    10  N    1.776351   6.907367   5.374494   5.388523   0.000000
    11  H    2.259530   7.675927   5.877137   6.284987   1.020808
    12  H    2.399937   7.160811   5.820643   5.540026   1.020270
    13  H    2.414831   7.128278   5.821549   5.489085   1.020216
                   11         12         13
    11  H    0.000000
    12  H    1.634258   0.000000
    13  H    1.634794   1.632911   0.000000
 Stoichiometry    C3H7NO2
 Framework group  C1[X(C3H7NO2)]
 Deg. of freedom    33
 Full point group                 C1      NOp   1
 Largest Abelian subgroup         C1      NOp   1
 Largest concise Abelian subgroup C1      NOp   1
                         Standard orientation:                         
 ---------------------------------------------------------------------
 Center     Atomic      Atomic             Coordinates (Angstroms)
 Number     Number       Type             X           Y           Z
 ---------------------------------------------------------------------
      1          6           0        0.183138    0.131070    0.000643
      2          6           0       -1.121588    0.529689   -0.000349
      3          1           0        0.411770   -0.946347    0.002005
      4          8           0        1.218557    0.977099    0.000293
      5          6           0       -2.148442   -0.497363    0.000269
      6          1           0        2.059145    0.440385    0.000995
      7          8           0       -3.367666   -0.292114   -0.000521
      8          1           0       -1.396228    1.589185   -0.001620
      9          1           0       -1.759501   -1.550741    0.001530
     10          7           0        3.534950   -0.548260   -0.000895
     11          1           0        4.296489    0.129415   -0.054417
     12          1           0        3.697467   -1.097915    0.843155
     13          1           0        3.660429   -1.186411   -0.786936
 ---------------------------------------------------------------------
 Rotational constants (GHZ):          13.5618029           0.9976686           0.9339194
 Standard basis: Aug-CC-pVDZ (5D, 7F)
 There are   213 symmetry adapted cartesian basis functions of A   symmetry.
 There are   201 symmetry adapted basis functions of A   symmetry.
   201 basis functions,   335 primitive gaussians,   213 cartesian basis functions
    24 alpha electrons       24 beta electrons
       nuclear repulsion energy       212.3909883655 Hartrees.
 NAtoms=   13 NActive=   13 NUniq=   13 SFac= 1.00D+00 NAtFMM=   60 NAOKFM=F Big=F
 Integral buffers will be    131072 words long.
 Raffenetti 1 integral format.
 Two-electron integral symmetry is turned on.
 One-electron integrals computed using PRISM.
 NBasis=   201 RedAO= T EigKep=  2.29D-05  NBF=   201
 NBsUse=   201 1.00D-06 EigRej= -1.00D+00 NBFU=   201
 Lowest energy guess from the checkpoint file:  "/scr/Gau-80392.chk"
 B after Tr=    -0.000000   -0.000000    0.000000
         Rot=    0.999999   -0.000182    0.000006   -0.001188 Ang=  -0.14 deg.
 B after Tr=    -0.000000   -0.000000    0.000000
         Rot=    1.000000   -0.000546   -0.000008    0.000811 Ang=  -0.11 deg.
 Requested convergence on RMS density matrix=1.00D-08 within 128 cycles.
 Requested convergence on MAX density matrix=1.00D-06.
 Requested convergence on             energy=1.00D-06.
 No special actions if energy rises.
 SCF Done:  E(RHF) =  -321.880960862     A.U. after   13 cycles
            NFock= 13  Conv=0.91D-08     -V/T= 2.0022
 ExpMin= 2.97D-02 ExpMax= 1.17D+04 ExpMxC= 4.01D+02 IAcc=3 IRadAn=         5 AccDes= 0.00D+00
 HarFok:  IExCor=  205 AccDes= 0.00D+00 IRadAn=         5 IDoV=-2 UseB2=F ITyADJ=14
 ICtDFT= 12500011 ScaDFX=  1.000000  1.000000  1.000000  1.000000
 Range of M.O.s used for correlation:     7   201
 NBasis=   201 NAE=    24 NBE=    24 NFC=     6 NFV=     0
 NROrb=    195 NOA=    18 NOB=    18 NVA=   177 NVB=   177

 **** Warning!!: The largest alpha MO coefficient is  0.58638921D+02

 Fully direct method using O(ONN) memory.
 JobTyp=1 Pass  1:  I=   7 to  24 NPSUse= 40 ParTrn=T ParDer=T DoDerP=T.
 Spin components of T(2) and E(2):
     alpha-alpha T2 =       0.4261686180D-01 E2=     -0.1297006204D+00
     alpha-beta  T2 =       0.2393116769D+00 E2=     -0.7479058515D+00
     beta-beta   T2 =       0.4261686180D-01 E2=     -0.1297006204D+00
 ANorm=    0.1150888961D+01
 E2 =    -0.1007307092D+01 EUMP2 =    -0.32288826795426D+03
          IDoAtm=1111111111111
          Differentiating once with respect to electric field.
                with respect to dipole field.
          Differentiating once with respect to nuclear coordinates.
 Keep R1 ints in memory in canonical form, NReq=215100343.
          There are     1 degrees of freedom in the 1st order CPHF.  IDoFFX=0 NUNeed=     1.
 LinEq1:  Iter=  0 NonCon=     1 RMS=4.68D-03 Max=1.06D-01 NDo=     1
 AX will form     1 AO Fock derivatives at one time.
 LinEq1:  Iter=  1 NonCon=     1 RMS=1.44D-03 Max=2.14D-02 NDo=     1
 LinEq1:  Iter=  2 NonCon=     1 RMS=5.20D-04 Max=8.35D-03 NDo=     1
 LinEq1:  Iter=  3 NonCon=     1 RMS=1.72D-04 Max=3.19D-03 NDo=     1
 LinEq1:  Iter=  4 NonCon=     1 RMS=6.05D-05 Max=8.40D-04 NDo=     1
 LinEq1:  Iter=  5 NonCon=     1 RMS=2.18D-05 Max=2.68D-04 NDo=     1
 LinEq1:  Iter=  6 NonCon=     1 RMS=8.01D-06 Max=2.25D-04 NDo=     1
 LinEq1:  Iter=  7 NonCon=     1 RMS=2.32D-06 Max=3.94D-05 NDo=     1
 LinEq1:  Iter=  8 NonCon=     1 RMS=1.05D-06 Max=2.58D-05 NDo=     1
 LinEq1:  Iter=  9 NonCon=     1 RMS=2.24D-07 Max=2.29D-06 NDo=     1
 LinEq1:  Iter= 10 NonCon=     1 RMS=6.15D-08 Max=1.13D-06 NDo=     1
 LinEq1:  Iter= 11 NonCon=     1 RMS=2.07D-08 Max=3.20D-07 NDo=     1
 LinEq1:  Iter= 12 NonCon=     1 RMS=6.27D-09 Max=1.20D-07 NDo=     1
 LinEq1:  Iter= 13 NonCon=     1 RMS=1.61D-09 Max=2.07D-08 NDo=     1
 LinEq1:  Iter= 14 NonCon=     1 RMS=5.16D-10 Max=7.16D-09 NDo=     1
 LinEq1:  Iter= 15 NonCon=     1 RMS=1.45D-10 Max=1.80D-09 NDo=     1
 LinEq1:  Iter= 16 NonCon=     0 RMS=2.60D-11 Max=2.18D-10 NDo=     1
 Linear equations converged to 1.000D-10 1.000D-09 after    16 iterations.
 End of Minotr F.D. properties file   721 does not exist.
 End of Minotr F.D. properties file   722 does not exist.
 End of Minotr F.D. properties file   788 does not exist.
 Calling FoFJK, ICntrl=  10002127 FMM=F ISym2X=0 I1Cent= 0 IOpClX= 0 NMat=1 NMatS=1 NMatT=0.
 ***** Axes restored to original set *****
 -------------------------------------------------------------------
 Center     Atomic                   Forces (Hartrees/Bohr)
 Number     Number              X              Y              Z
 -------------------------------------------------------------------
      1        6          -0.005764055   -0.004573417   -0.001432563
      2        6           0.004020237    0.003353496   -0.000262991
      3        1           0.001547534    0.001283037   -0.000059160
      4        8           0.004417789    0.003342019    0.002989525
      5        6          -0.004012942   -0.003349373    0.000188685
      6        1          -0.000683921   -0.000566119   -0.001172843
      7        8           0.000636756    0.000410695    0.000979056
      8        1          -0.000717043   -0.000699568    0.000892860
      9        1           0.000178422    0.000338307   -0.001561148
     10        7           0.000004363    0.000332519   -0.000607424
     11        1           0.000142145   -0.000052308    0.000881087
     12        1          -0.000149014    0.000428025   -0.000337802
     13        1           0.000379730   -0.000247313   -0.000497282
 -------------------------------------------------------------------
 Cartesian Forces:  Max     0.005764055 RMS     0.002055806

 GradGradGradGradGradGradGradGradGradGradGradGradGradGradGradGradGradGrad
 Berny optimization.
 Using GEDIIS/GDIIS optimizer.
 FormGI is forming the generalized inverse of G from B-inverse, IUseBI=4.
 Internal  Forces:  Max     0.005165021 RMS     0.001261794
 Search for a local minimum.
 Step number   4 out of a maximum of   53
 All quantities printed in internal units (Hartrees-Bohrs-Radians)
 Mixed Optimization -- RFO/linear search
 Update second derivatives using D2CorX and points    1    3    2    4
 DE= -4.67D-04 DEPred=-7.28D-04 R= 6.41D-01
 TightC=F SS=  1.41D+00  RLast= 1.34D-01 DXNew= 4.2426D-01 4.0262D-01
 Trust test= 6.41D-01 RLast= 1.34D-01 DXMaxT set to 4.03D-01
 ITU=  1 -1  1  0
 Use linear search instead of GDIIS.
     Eigenvalues ---    0.00230   0.00230   0.01134   0.01134   0.01837
     Eigenvalues ---    0.02063   0.02102   0.02688   0.02972   0.05984
     Eigenvalues ---    0.08578   0.10081   0.11904   0.16000   0.16000
     Eigenvalues ---    0.16000   0.16034   0.16919   0.17348   0.21084
     Eigenvalues ---    0.22070   0.22706   0.33570   0.35652   0.36109
     Eigenvalues ---    0.36684   0.43035   0.43450   0.43545   0.48947
     Eigenvalues ---    0.50899   0.59854   0.93426
 RFO step:  Lambda=-9.84527031D-05 EMin= 2.29939862D-03
 Quartic linear search produced a step of -0.26862.
 Iteration  1 RMS(Cart)=  0.04296547 RMS(Int)=  0.00046902
 Iteration  2 RMS(Cart)=  0.00083691 RMS(Int)=  0.00003043
 Iteration  3 RMS(Cart)=  0.00000009 RMS(Int)=  0.00003043
 Variable       Old X    -DE/DX   Delta X   Delta X   Delta X     New X
                                 (Linear)    (Quad)   (Total)
    R1        2.57808  -0.00026  -0.00231   0.00040  -0.00191   2.57617
    R2        2.08136  -0.00089  -0.00134  -0.00125  -0.00259   2.07877
    R3        2.52677   0.00517   0.01040   0.00166   0.01205   2.53882
    R4        2.74451   0.00402   0.00720   0.00364   0.01085   2.75535
    R5        2.06833  -0.00121  -0.00092  -0.00190  -0.00282   2.06551
    R6        1.88467  -0.00173  -0.00013  -0.00219  -0.00232   1.88234
    R7        2.33642  -0.00123  -0.00127  -0.00038  -0.00165   2.33477
    R8        2.12195  -0.00160  -0.00273  -0.00196  -0.00469   2.11726
    R9        3.35682  -0.00034  -0.01745   0.00714  -0.01031   3.34651
   R10        1.92905  -0.00000   0.00145  -0.00073   0.00072   1.92977
   R11        1.92803   0.00009   0.00134  -0.00051   0.00083   1.92887
   R12        1.92793   0.00007   0.00134  -0.00055   0.00080   1.92873
    A1        2.07641   0.00168   0.01319   0.00031   0.01350   2.08991
    A2        2.16001   0.00040  -0.00359   0.00284  -0.00075   2.15925
    A3        2.04677  -0.00208  -0.00960  -0.00315  -0.01275   2.03402
    A4        2.05958   0.00134   0.00817  -0.00034   0.00783   2.06742
    A5        2.12094  -0.00006   0.00210  -0.00061   0.00150   2.12244
    A6        2.10266  -0.00128  -0.01027   0.00094  -0.00933   2.09333
    A7        1.88827   0.00134   0.00127   0.00669   0.00797   1.89624
    A8        2.18932   0.00015  -0.00310   0.00150  -0.00159   2.18772
    A9        2.00259   0.00003   0.00227  -0.00079   0.00148   2.00407
   A10        2.09128  -0.00018   0.00082  -0.00071   0.00011   2.09139
   A11        1.82386   0.00129  -0.00116   0.00458   0.00348   1.82734
   A12        2.01673  -0.00047   0.00836  -0.00555   0.00288   2.01961
   A13        2.03883  -0.00067   0.00894  -0.00683   0.00221   2.04104
   A14        1.85687  -0.00035  -0.00676   0.00183  -0.00490   1.85197
   A15        1.85782  -0.00043  -0.00705   0.00116  -0.00581   1.85201
   A16        1.85544   0.00063  -0.00547   0.00592   0.00055   1.85599
   A17        3.11960   0.00069  -0.00578   0.04635   0.04058   3.16019
   A18        3.13974   0.00010   0.00065   0.01894   0.01960   3.15933
    D1       -0.00014   0.00000   0.00002   0.00002   0.00004  -0.00010
    D2        3.14150   0.00000   0.00001   0.00003   0.00004   3.14154
[...]
 011298,0.00010243,0.00000405,-0.00001456,-0.00003036,0.00000081,-0.000
 00280,-0.00003022,0.49893695,-0.92318745,0.69748774,0.01454587,-0.0107
 8419,0.01196845,0.00184490,-0.00441920,0.01245436,-0.51459106,0.937609
 86,0.00020544,0.00019967,-0.00000727,-0.00013980,-0.00007125,0.0000052
 9,-0.00002548,-0.00001357,-0.00002935,-0.00013015,-0.00028419,-0.00015
 622,0.00010834,0.00006224,-0.00001287,0.00007906,0.00039382,0.00058426
 ,-0.00005593,-0.00004041,-0.00003480,0.00000093,0.00000487,0.00000762,
 -0.00000395,0.00000040,0.00001351,-0.29399061,0.73616925,-0.12597408,-
 0.00401627,0.00408052,0.00991103,0.01174407,-0.02003371,0.01783839,0.2
 8622436,-0.72046764,0.09785449,-0.00058343,-0.00038111,-0.00035686,0.0
 0013940,0.00004551,-0.00011801,0.00033131,0.00000499,-0.00013239,-0.00
 038890,-0.00002612,0.00031322,0.00001243,0.00004295,-0.00039691,0.0000
 0469,0.00009593,0.00013222,0.00012541,-0.00002764,-0.00005416,0.000029
 89,0.00005305,0.00006629,0.00002270,0.00002317,-0.00000111,-0.00008943
 ,0.00007658,0.00002439,0.00003365,-0.00000543,-0.00000795,-0.00000956,
 -0.00015130,-0.00000682,-0.00004484,-0.00006427,-0.00000058,0.00001271
 ,0.00002172,0.00001068,-0.00005858,-0.00003238,-0.00001002,0.00024529,
 0.00034146,-0.00002892,-0.00010117,-0.00008407,-0.00013058,0.00009853,
 -0.00000597,0.00002128,-0.00021057,0.00033687,-0.00000361,-0.00001465,
 -0.00010420,-0.00001071,-0.00009842,-0.00000484,0.00007349,0.00002502,
 -0.00036500,0.00004393,-0.00011939,-0.00007733,-0.00027916,0.00000456,
 -0.00001625,0.00003723,0.00001074,0.00003880,0.00004845,0.00011657,0.0
 0005051,0.00043402,-0.00011771,-0.00004539,-0.00011191,0.00015236,0.00
 011592,0.00001770,-0.00001079,-0.00000479,0.00001697,0.00004138,0.0000
 3604,-0.00001441,0.00004574,-0.00008353,-0.00008934,-0.00011917,0.0001
 6101,0.00012572,0.00001832,-0.00000733,0.00000029,0.00001960,0.0000494
 2,0.00002853,-0.00001306,-0.00015781,-0.00015211,-0.00002588,-0.000026
 19,0.00000192,-0.00011227,0.00000492,-0.00005868,-0.00001369,-0.000011
 71,-0.00003401,0.00003820,0.00002358,0.00001642,0.00021751,0.00011294,
 0.00006711,-0.00001247,-0.00016575,-0.00013284,-0.00000180,0.00007822,
 0.00007033,-0.00007851,-0.00000852,-0.00003339,0.00013673,0.00031823,0
 .00038461,-0.00005479,-0.00000235,0.00000901,-0.00053035,-0.00012774,0
 .00010112,-0.00009788,0.00006479,-0.00005422,0.00004439,-0.00003269,-0
 .00005724,-0.00003170,0.00031921,-0.00007747,0.00031321,0.00000859,-0.
 00005591,-0.00000016,-0.00094058,0.00000145,-0.00016215,-0.00012455,0.
 00017509,0.00012433,0.00008561,-0.00002011,0.00002666,0.00001371,-0.00
 001132,0.00025005,0.00020552,-0.00023677,-0.00002302,-0.00002330,-0.00
 000355,-0.00074408,-0.00051276,-0.00020306,0.00006362,-0.00000165,0.00
 005569,-0.00001787,-0.00002234,-0.00003824,0.00000687,-0.00000708,-0.0
 0000745,-0.00001966,0.00000254,-0.00000147,-0.00011609,0.00003571,-0.0
 0009222,0.00002847,0.00000222,0.00001838,0.00009182,0.00001988,0.00006
 813,0.00005499,-0.00002942,-0.00003048,-0.00001076,-0.00000327,0.00000
 608,-0.00000525,-0.00000821,-0.00002298,-0.00000204,0.00001143,0.00004
 360,-0.00004730,0.00000531,0.00002328,0.00001736,0.00000197,-0.0000323
 1,0.00003612,0.00002935,0.00004179,0.00003903,-0.00003771,0.00000308,0
 .00000426,0.00000434,0.00000181,-0.00002282,-0.00001493,-0.00000662,-0
 .00015179,-0.00001676,-0.00003489,0.00001088,0.00000978,0.00002088,0.0
 0009266,0.00001921,0.00000545,-0.00003564,0.00001374,0.00001757,0.0000
 5792,-0.00002236,-0.00000360,-0.00001220,0.00000446,-0.00001041,0.0000
 1461,-0.00000261,-0.00000075,-0.00000380,-0.00000013,-0.00000967,0.000
 00395,0.00000742,0.00000135,-0.00000791,0.00000715,0.00000337,-0.00002
 464,0.00001192,-0.00003210,-0.00000233,-0.00002661,0.00006691,0.000016
 42,0.00000379,-0.00001024,-0.00000499,-0.00001102,0.00001089,-0.000000
 26,0.00001601,-0.00001432,-0.00000846,0.00000780,0.00000076,0.00000165
 ,0.00000670,-0.00001020,0.00000111,0.00000795,-0.00002356,-0.00002425,
 -0.00001353,0.00002276,0.00002094,0.00001305,-0.00000797,0.00000125,0.
 00000187,-0.00000397,0.00000442,0.00000535,-0.00000044,-0.00000775,-0.
 00000192,-0.00000195,0.00000191,0.00000231,0.00000160,0.00000243,-0.00
 000031,0.00000416,-0.00000470,-0.00001167,-0.00002577,-0.00002940,0.00
 003999,0.00005285,0.00002183,-0.00001312,-0.00001167,-0.00003273,0.000
 01445,-0.00000889,0.00000906,0.00000323,0.00000287,-0.00000479,-0.0000
 2349,-0.00002069,0.00000942,-0.00000672,-0.00001491,0.00000524,0.00001
 703,0.00001125,0.00000937,-0.00001426,0.00000023,-0.00000546,0.0000456
 0,-0.00004633,0.00003626,-0.00002073,0.00002198,-0.00000885,0.00001662
 ,-0.00003909,-0.00001237,-0.00000139,0.00000524,0.00000329,-0.00000222
 ,0.00006316,-0.00005979,-0.00000682,0.00001413,-0.00000869,0.00000259,
 -0.00002515,0.00002189,-0.00001418,0.00001416,0.00000154,-0.00003722,-
 0.00001550,0.00000893,-0.00000362,0.00000011,-0.00000840,-0.00000446,-
 0.00001444,-0.00001026,-0.00001437,-0.00000228,-0.00000045,0.00000119,
 0.00000013,-0.00000048,-0.00002734,0.00005272,-0.00000349,-0.00000022,
 -0.00000178,0.00000033,-0.00000302,-0.00000996,0.00000424,0.00000808,0
 .00000237,-0.00001092,0.00002857,-0.00003309,-0.00045626,-0.00031893,0
 .00030451,0.00013670,0.00005496,-0.00004671,0.00016091,0.00021903,0.00
 010999,0.00092013,0.00029304,-0.00091294,-0.00008686,-0.00002291,0.000
 09038,-0.00328768,-0.00049299,-0.00033545,0.00002913,0.00002147,-0.000
 04431,-0.00002085,-0.00002658,-0.00001372,-0.00000170,-0.00001111,-0.0
 0000975,1.99734118,-0.00037529,-0.00044040,0.00027311,0.00009587,0.000
 15497,-0.00002150,0.00024244,0.00006586,0.00007183,0.00030567,0.001016
 97,-0.00076207,-0.00004413,-0.00011351,0.00007481,-0.00071617,-0.00316
 037,-0.00056002,0.00003468,0.00003895,-0.00002493,-0.00003081,-0.00001
 122,-0.00001275,-0.00001104,0.00000524,-0.00001128,1.37213076,1.491743
 76,0.00083073,0.00069676,-0.00031166,-0.00042194,-0.00032479,-0.000087
 43,-0.00009408,-0.00009181,0.00003511,-0.00103904,-0.00086194,0.000895
 32,0.00028654,0.00023478,-0.00008336,0.00175069,0.00112170,0.00006708,
 -0.00016672,-0.00012497,-0.00009569,0.00003082,0.00002284,0.00002728,-
 0.00000749,-0.00001004,0.00004549,-0.35365732,-0.20503042,-0.44935372,
 0.00063293,0.00050711,-0.00018567,-0.00018790,-0.00016997,0.00002817,-
 0.00014132,-0.00011674,0.00003644,-0.00065095,-0.00059887,0.00029830,0
 .00010347,0.00006483,-0.00006954,0.00214246,0.00152352,0.00070887,-0.0
 0003994,-0.00004046,0.00003080,0.00003579,0.00002965,0.00004532,0.0000
 2198,0.00001615,0.00003956,-1.75049950,-2.00415782,0.14564997,1.736121
 25,0.00049112,0.00045098,-0.00017100,-0.00017274,-0.00012545,0.0000241
 0,-0.00012056,-0.00010340,0.00002338,-0.00055380,-0.00044571,0.0003897
 9,0.00006087,0.00008868,-0.00005345,0.00163763,0.00144619,0.00049535,-
 0.00003965,-0.00002891,0.00002371,0.00003704,0.00001928,0.00003728,0.0
 0002025,0.00000996,0.00003216,-2.00247071,-0.93601634,0.11709467,1.981
 03161,0.93098260,-0.00005559,-0.00006603,0.00021766,0.00005910,0.00004
 956,0.00000875,0.00007511,0.00005534,0.00005317,-0.00009633,0.00006932
 ,-0.00131220,-0.00003918,-0.00002908,0.00000769,-0.00037698,-0.0003830
 1,0.00088753,0.00002493,0.00001894,0.00001805,-0.00002355,-0.00001874,
 -0.00001284,0.00000068,0.00000078,-0.00000483,0.13011394,0.10449020,0.
 71060584,-0.13832744,-0.11037921,-0.70421814,-0.00009791,-0.00001396,-
 0.00013674,-0.00001115,0.00000181,0.00002252,-0.00007063,-0.00009051,-
 0.00004813,-0.00025349,-0.00006833,0.00007153,-0.00001946,-0.00004172,
 -0.00002555,0.00092510,-0.00001109,-0.00029717,0.00000815,0.00001497,0
 .00001712,-0.00001241,0.00000214,-0.00001831,-0.00000878,-0.00000022,-
 0.00000505,-0.26066768,0.30902755,0.39210279,0.00707964,0.01478051,0.0
 0717098,0.25142187,0.00003216,0.00005649,0.00012226,-0.00000003,-0.000
 02541,-0.00004817,0.00011606,0.00011817,0.00003153,0.00013227,-0.00030
 684,0.00007933,0.00006014,0.00007863,0.00001975,-0.00026582,0.00076414
 ,0.00066733,-0.00003501,-0.00003191,-0.00003398,-0.00000666,-0.0000014
 8,-0.00000319,0.00001486,0.00000371,-0.00000240,0.31598691,-0.05951871
 ,-0.29053721,0.00539540,0.00160929,0.00021638,-0.33065748,0.05897857,-
 0.00026396,-0.00027599,0.00007120,0.00014814,0.00010882,0.00002120,0.0
 0001557,0.00000974,-0.00004024,0.00041112,0.00036399,0.00021372,-0.000
 09996,-0.00005958,0.00003954,-0.00039448,-0.00036130,-0.00030121,0.000
 05377,0.00003878,0.00002303,0.00000035,-0.00000515,-0.00000233,0.00000
 646,0.00000193,-0.00001749,0.41492643,-0.29965891,-0.20714573,-0.00265
 645,-0.00633286,-0.00371590,-0.40653450,0.29888294,0.20227290,0.000029
 91,-0.00003344,0.00009214,-0.00001416,0.00002087,-0.00003687,0.0001166
 9,0.00007584,0.00001427,-0.00022988,0.00015390,0.00015975,0.00007134,0
 .00002829,0.00001443,0.00071947,-0.00031395,0.00044714,-0.00003183,-0.
 00001784,-0.00002658,-0.00000422,-0.00000751,-0.00000778,0.00000595,0.
 00001291,-0.00000424,0.01643248,0.32349828,-0.18526495,0.00538209,0.00
 529844,0.00147433,0.00170675,0.00922721,-0.00561248,-0.02418459,-0.000
 02024,-0.00004562,-0.00017320,-0.00001052,-0.00003176,0.00002579,-0.00
 013514,-0.00006353,-0.00004213,-0.00011856,-0.00031173,-0.00000393,-0.
 00005469,-0.00000338,-0.00002891,0.00005882,0.00105413,-0.00025721,0.0
 0001931,0.00000190,0.00001891,-0.00000102,-0.00000888,-0.00001803,-0.0
 0000397,-0.00001151,-0.00000329,0.31463707,-0.49376519,0.37781043,0.01
 651558,0.00211286,0.00597556,0.00705634,-0.00172463,0.00728759,-0.3379
 4298,0.49279734,-0.00032384,-0.00021606,0.00004673,0.00014074,0.000114
 73,0.00002955,-0.00002217,0.00000235,-0.00004682,0.00047651,0.00024547
 ,0.00018987,-0.00009013,-0.00009537,0.00003115,-0.00054217,-0.00010437
 ,-0.00037438,0.00005790,0.00004435,0.00002893,-0.00000503,0.00000150,-
 0.00000289,0.00000024,0.00000550,-0.00001692,-0.19052504,0.40117195,-0
 .05459852,-0.00559834,-0.00118392,-0.00253476,0.00768050,-0.00939455,0
 .00858132,0.18875083,-0.39059159,0.04866676,0.00026554,0.00028008,0.00
 033663,-0.00043561,-0.00036822,-0.00051077,-0.00001053,-0.00015815,0.0
 0025232,0.00004272,-0.00014873,-0.00000596,0.00028857,0.00024173,-0.00
 005366,-0.00000037,0.00005714,0.00028144,0.00013253,-0.00000697,-0.000
 03345,-0.00019171,0.00000110,0.00010233,-0.00000426,-0.00002549,-0.000
 03678,0.00013468,0.00000672,-0.00019774,0.00006194,-0.00004536,0.00000
 051,-0.00003780,-0.00008260,0.00019038,0.00016001,0.00010051,-0.000157
 24,-0.00010361,-0.00007153,0.00004143,-0.00007771,-0.00004355,0.000094
 70,-0.00014734,-0.00006047,0.00005374,0.00001812,0.00001414,-0.0000062
 8,0.00002690,-0.00002386,-0.00005626,0.00030182,-0.00006526,-0.0002426
 7,0.00002718,0.00000810,0.00005007,0.00001672,-0.00002740,0.00002221,-
 0.00003902,0.00006804,0.00037556,-0.00004397,-0.00004148,0.00004504,0.
 00000197,-0.00000426,-0.00010811,-0.00001957,0.00001342,0.00001601,0.0
 0014076,0.00003464,0.00074645,-0.00003648,0.00000138,-0.00006708,0.000
 08001,-0.00006251,-0.00002166,-0.00004986,0.00003028,0.00000524,0.0000
 4643,0.00004525,-0.00003004,0.00014081,-0.00004312,-0.00004511,-0.0000
 8108,-0.00002078,0.00013565,-0.00000995,0.00003173,-0.00004634,0.00000
 080,0.00005666,0.00003099,-0.00002513,-0.00001088,-0.00008376,0.000090
 42,0.00006982,0.00000533,-0.00013941,-0.00001343,0.00006625,-0.0000612
 8,-0.00005973,-0.00002958,0.00004373,0.00002875,0.00000618,0.00007188,
 -0.00001450,0.00008269,0.00015712,0.00006883,-0.00004292,-0.00006142,0
 .00000050,0.00006618,-0.00008420,0.00000577,-0.00002626,-0.00043834,-0
 .00013936,-0.00024499,-0.00001075,-0.00000040,-0.00000671,0.00071759,0
 .00010178,0.00014822,-0.00003091,0.00000154,-0.00006856,0.00004046,-0.
 00002017,-0.00007092,-0.00003232,-0.00017339,-0.00035701,-0.00015033,0
 .00000541,-0.00001377,-0.00000963,0.00018934,0.00058360,-0.00002252,-0
 .00001855,0.00011559,-0.00001006,-0.00002354,0.00001663,0.00005104,0.0
 0002715,0.00002441,-0.00004950,0.00000891,-0.00059673,0.00000811,0.000
 00535,0.00000791,0.00013415,0.00018603,-0.00035735,0.00005799,0.000045
 52,0.00006506,-0.00008086,-0.00007235,-0.00013536,0.00001968,-0.000006
 40,0.00000515,-0.00002137,-0.00000531,0.00000939,-0.00009257,0.0000020
 5,0.00000880,0.00000725,-0.00000820,-0.00000118,0.00008504,0.00006316,
 0.00003856,0.00005515,-0.00007865,-0.00005227,-0.00007080,-0.00000189,
 0.00001622,0.00000571,-0.00001609,-0.00002350,0.00000529,-0.00002331,0
 .00005741,0.00003358,-0.00000442,0.00001125,0.00000318,0.00003460,-0.0
 0004724,0.00008097,0.00005827,0.00004526,-0.00006625,-0.00010433,-0.00
 016047,0.00001039,0.00001004,0.00000513,-0.00001270,-0.00000810,0.0000
 1330,-0.00004261,0.00007078,0.00002827,-0.00001516,-0.00000963,-0.0000
 0009,0.00007513,-0.00000485,0.00005058,0.00005546,0.00003658,-0.000032
 68,-0.00001279,-0.00002122,0.00004735,0.00000167,0.00000004,0.00000321
 ,0.00001393,0.00000682,0.00001931,-0.00001330,0.00002132,-0.00002825,-
 0.00000777,-0.00000037,-0.00001254,0.00000590,0.00000883,0.00000156,-0
 .00002524,0.00001963,0.00004777,-0.00003839,-0.00001511,-0.00000749,0.
 00005626,0.00000353,0.00000580,0.00000655,0.00000134,0.00000432,0.0000
 1376,0.00003750,-0.00002840,-0.00002395,-0.00000214,-0.00000640,-0.000
 00885,0.00000799,0.00000288,0.00000083,-0.00003417,-0.00000842,0.00006
 132,0.00006084,0.00004825,-0.00001883,-0.00002068,-0.00006712,-0.00002
 365,-0.00001792,0.00000924,-0.00000092,-0.00000142,0.00000560,-0.00002
 854,-0.00001916,-0.00003174,0.00000795,0.00000780,-0.00000607,0.000004
 09,0.00000221,0.00000528,0.00000618,-0.00000514,0.00004038,-0.00000918
 ,-0.00002230,0.00003133,-0.00001634,0.00002802,-0.00000898,0.00001389,
 0.00000250,0.00001211,0.00001365,0.00000914,-0.00000506,-0.00009310,-0
 .00004017,-0.00000976,-0.00000662,-0.00000421,0.00000221,0.00002768,0.
 00002046,-0.00002590,-0.00000517,-0.00001346,0.00000243,0.00006363,-0.
 00001530,0.00000418,0.00002979,0.00002501,-0.00002868,-0.00002038,0.00
 000478,0.00000681,0.00001170,0.00000246,0.00000749,-0.00000363,-0.0000
 2261,-0.00002497,-0.00004023,-0.00000226,-0.00000473,0.00000296,0.0000
 0229,0.00000169,-0.00000952,-0.00001352,-0.00000113,0.00000151,-0.0000
 0054,0.00003646,-0.00002403,-0.00001948,-0.00000220,-0.00004777,-0.000
 04965,0.00002186,0.00001210,0.00001067,-0.00000738,0.00001166,0.000010
 47,0.00000322,0.00004401,0.00001909,-0.00011729,-0.00000572,-0.0000042
 5,-0.00000273,-0.00000515,-0.00000864,0.00002641,0.00000792,0.00000927
 ,0.00000334,0.00000264,0.00003116,0.00006790,0.00049465,0.00045617,0.0
 0016581,-0.00008033,-0.00015866,0.00002183,0.00020257,0.00022396,0.000
 17599,0.00076523,-0.00058887,0.00048423,0.00014239,0.00031384,-0.00005
 946,-0.00302734,0.00088957,0.00126485,-0.00007489,-0.00009725,-0.00006
 632,-0.00000125,-0.00003429,0.00001845,0.00002223,-0.00003217,0.000044
 05,0.61868588,0.00043386,0.00024639,0.00012896,-0.00014753,-0.00001129
 ,0.00003397,0.00025270,0.00009682,0.00012977,-0.00051941,0.00094787,0.
 00053152,0.00030284,0.00001983,-0.00007434,0.00099868,-0.00354814,0.00
 062925,-0.00010041,-0.00002349,-0.00004477,-0.00003117,0.00000936,0.00
 001968,-0.00002565,0.00002987,0.00004398,-1.70604572,1.48713381,0.0003
 4883,0.00027411,-0.00002510,-0.00007464,-0.00004330,-0.00004225,-0.000
 09504,-0.00008771,0.00002145,-0.00016002,0.00001429,0.00012313,0.00002
 552,-0.00000445,0.00000407,0.00027795,-0.00016487,-0.00069337,-0.00003
 120,-0.00001721,-0.00002873,-0.00000367,0.00000103,-0.00000609,-0.0000
 1383,-0.00000341,-0.00002074,-0.79013374,-0.42961670,0.93600655,-0.000
 09460,-0.00010020,0.00002567,-0.00001471,0.00003567,-0.00006447,0.0000
 0165,-0.00003307,-0.00002769,0.00000355,0.00020921,0.00029048,-0.00001
 535,-0.00006077,0.00005222,0.00029653,-0.00018908,-0.00031693,0.000001
 83,0.00001063,0.00001705,0.00001305,0.00001160,-0.00000715,0.00000269,
 0.00002073,-0.00000499,0.00550448,0.01825953,0.01245357,-0.00067846,-0
 .00005550,-0.00002262,0.00001939,0.00001388,-0.00003220,-0.00006008,-0
 .00003993,0.00001466,-0.00001530,0.00019344,-0.00014994,0.00013752,-0.
 00004599,0.00001062,0.00004483,-0.00020059,0.00042260,-0.00011872,0.00
 000710,-0.00000889,0.00001003,0.00001190,0.00000986,-0.00000453,0.0000
 1981,-0.00000536,-0.00000535,0.02049640,-0.00346721,0.01034178,0.00152
 980,0.00005928,-0.00037101,-0.00030264,0.00003507,0.00012939,0.0000978
 1,0.00002384,0.00003695,0.00003755,-0.00002008,0.00041723,0.00024076,0
 .00061427,-0.00008175,-0.00006408,0.00002973,-0.00018779,-0.00001839,-
 0.00068585,0.00004810,0.00003533,0.00002104,-0.00000976,-0.00000685,-0
 .00001257,0.00000306,0.00000110,-0.00000907,-0.00809379,-0.00632564,-0
 .02103118,-0.00430640,-0.00417837,0.00413248,-0.00031417,-0.00019807,-
 0.00009104,0.00006203,0.00004060,0.00001353,-0.00007017,-0.00011308,-0
 .00004248,-0.00071869,0.00030314,-0.00055291,-0.00005709,-0.00014880,0
 .00000288,0.00225656,-0.00071491,-0.00101915,0.00003807,0.00004943,0.0
 0003183,-0.00002399,0.00001075,-0.00001046,-0.00000724,0.00000930,-0.0
 0002051,-0.81335484,0.85153696,1.28244923,-0.00404394,-0.00375449,0.00
 531369,0.81529868,-0.00034100,-0.00011850,0.00000803,0.00013153,0.0000
 4883,-0.00001669,0.00004728,0.00000918,-0.00002480,0.00036714,0.000066
 50,0.00010434,-0.00009790,-0.00000189,0.00004668,-0.00049581,0.0003353
 6,0.00010157,0.00003463,0.00000995,0.00000387,0.00001048,-0.00000250,-
 0.00001055,0.00001978,-0.00001014,-0.00001554,0.86041780,-0.00862642,-
 0.81051948,-0.01588967,0.00245039,0.00738535,-0.83857948,0.00201798,0.
 00005639,0.00008705,0.00006706,-0.00000878,-0.00004068,-0.00002358,0.0
 0001198,0.00010682,0.00000785,-0.00008727,-0.00023298,-0.00040827,0.00
 004596,0.00008131,-0.00002185,-0.00031229,0.00037912,0.00118331,-0.000
 01519,-0.00002916,-0.00000526,0.00000137,-0.00000145,0.00000578,0.0000
 0856,-0.00000410,0.00001831,1.30244811,-0.81465676,-0.68962992,-0.0079
 2944,0.00096379,0.00911380,-1.28973446,0.80715482,0.68179491,-0.000226
 63,-0.00035036,-0.00002696,0.00007809,0.00012811,-0.00000763,-0.000000
 81,0.00003513,-0.00002772,0.00013610,0.00017650,-0.00004961,-0.0000410
 5,-0.00010066,0.00003507,0.00020140,-0.00007730,-0.00002848,0.00002625
 ,0.00003451,0.00001201,-0.00000049,0.00000683,-0.00001086,-0.00000609,
 0.00002186,-0.00001418,0.19072121,0.83508533,-0.50504297,-0.00097670,-
 0.01817584,0.00710209,0.00093480,-0.00562479,-0.00448495,-0.19084606,-
 0.00023619,-0.00018907,-0.00010044,0.00004358,0.00002488,0.00001805,-0
 .00014363,-0.00004758,-0.00002853,0.00009000,-0.00073189,-0.00061565,-
 0.00015944,-0.00001022,0.00001225,-0.00041812,0.00256850,-0.00079475,0
 .00005849,0.00001743,0.00002736,0.00000448,-0.00002564,-0.00001263,0.0
 0000663,-0.00001147,-0.00002172,0.82415924,-1.47280739,1.22982592,-0.0
 0380438,0.00071881,0.00309807,-0.00844136,0.00382126,0.00619221,-0.811
 15931,1.46667241,0.00009952,0.00004257,0.00005229,-0.00004694,-0.00000
 805,-0.00001659,0.00008922,-0.00002089,-0.00000599,-0.00029418,-0.0001
 0020,-0.00046014,0.00007108,0.00004110,-0.00002982,0.00035563,-0.00019
 307,0.00099433,-0.00002765,-0.00000978,-0.00000074,-0.00000001,-0.0000
 0309,0.00000574,0.00000121,0.00000308,0.00001840,-0.50627000,1.2492010
 8,-0.22467781,-0.00018193,-0.00713501,0.00778854,0.00365986,-0.0042176
 1,-0.00210215,0.50254419,-1.23760013,0.21843394\\@
 The archive entry for this job was punched.


 TERENCE, THIS IS STUPID STUFF:
 YOU EAT YOUR VICTUALS FAST ENOUGH;
 THERE CAN'T BE MUCH AMISS, 'TIS CLEAR
 TO SEE THE RATE YOU DRINK YOUR BEER.
 BUT OH, GOOD LORD, THE VERSE YOU MAKE,
 IT GIVES A CHAP THE BELLY-ACHE.
 THE COW, THE OLD COW, SHE IS DEAD;
 IT SLEEPS WELL, THE HORNED HEAD:
 WE POOR LADS, 'TIS OUR TURN NOW
 TO HEAR SUCH TUNES AS KILLED THE COW.
 PRETTY FRIENDSHIP 'TIS TO RHYME
 YOUR FRIENDS TO DEATH BEFORE THEIR TIME.
 MOPING, MELANCHOLY MAD:
 COME PIPE A TUNE TO DANCE TO, LAD.

     -- A. E. HOUSMAN
 Job cpu time:       9 days  1 hours 49 minutes 25.1 seconds.
 Elapsed time:       0 days  5 hours 29 minutes 17.7 seconds.
 File lengths (MBytes):  RWF=   7420 Int=      0 D2E=      0 Chk=     49 Scr=      1
 Normal termination of Gaussian 16 at Sat Mar 22 23:11:16 2025.
