 Entering Gaussian System, Link 0=g16
 Input=enoloneco2_h2o_mp2_avdz_opt_anharm.gjf
 Output=enoloneco2_h2o_mp2_avdz_opt_anharm.log
 Initial command:
 /sw/contrib/chem-src/g16/c01/g16/l1.exe "/scr/Gau-26088.inp" -scrdir="/scr/"
 Entering Link 1 = /sw/contrib/chem-src/g16/c01/g16/l1.exe PID=     26089.
  
 Copyright (c) 1988-2019, Gaussian, Inc.  All Rights Reserved.
  
 This is part of the Gaussian(R) 16 program.  It is based on
 the Gaussian(R) 09 system (copyright 2009, Gaussian, Inc.),
 the Gaussian(R) 03 system (copyright 2003, Gaussian, Inc.),
 the Gaussian(R) 98 system (copyright 1998, Gaussian, Inc.),
 the Gaussian(R) 94 system (copyright 1995, Gaussian, Inc.),
 the Gaussian 92(TM) system (copyright 1992, Gaussian, Inc.),
 the Gaussian 90(TM) system (copyright 1990, Gaussian, Inc.),
 the Gaussian 88(TM) system (copyright 1988, Gaussian, Inc.),
 the Gaussian 86(TM) system (copyright 1986, Carnegie Mellon
 University), and the Gaussian 82(TM) system (copyright 1983,
 Carnegie Mellon University). Gaussian is a federally registered
 trademark of Gaussian, Inc.
  
 This software contains proprietary and confidential information,
 including trade secrets, belonging to Gaussian, Inc.
  
 This software is provided under written license and may be
 used, copied, transmitted, or stored only in accord with that
 written license.
  
 The following legend is applicable only to US Government
 contracts under FAR:
  
                    RESTRICTED RIGHTS LEGEND
  
 Use, reproduction and disclosure by the US Government is
 subject to restrictions as set forth in subparagraphs (a)
 and (c) of the Commercial Computer Software - Restricted
 Rights clause in FAR 52.227-19.
  
 Gaussian, Inc.
 340 Quinnipiac St., Bldg. 40, Wallingford CT 06492
  
  
 ---------------------------------------------------------------
 Warning -- This program may not be used in any manner that
 competes with the business of Gaussian, Inc. or will provide
 assistance to any competitor of Gaussian, Inc.  The licensee
 of this program is prohibited from giving any competitor of
 Gaussian, Inc. access to this program.  By using this program,
 the user acknowledges that Gaussian, Inc. is engaged in the
 business of creating and licensing software in the field of
 computational chemistry and represents and warrants to the
 licensee that it is not a competitor of Gaussian, Inc. and that
 it will not use this program in any manner prohibited above.
 ---------------------------------------------------------------
  

 Cite this work as:
 Gaussian 16, Revision C.01,
 M. J. Frisch, G. W. Trucks, H. B. Schlegel, G. E. Scuseria, 
 M. A. Robb, J. R. Cheeseman, G. Scalmani, V. Barone, 
 G. A. Petersson, H. Nakatsuji, X. Li, M. Caricato, A. V. Marenich, 
 J. Bloino, B. G. Janesko, R. Gomperts, B. Mennucci, H. P. Hratchian, 
 J. V. Ortiz, A. F. Izmaylov, J. L. Sonnenberg, D. Williams-Young, 
 F. Ding, F. Lipparini, F. Egidi, J. Goings, B. Peng, A. Petrone, 
 T. Henderson, D. Ranasinghe, V. G. Zakrzewski, J. Gao, N. Rega, 
 G. Zheng, W. Liang, M. Hada, M. Ehara, K. Toyota, R. Fukuda, 
 J. Hasegawa, M. Ishida, T. Nakajima, Y. Honda, O. Kitao, H. Nakai, 
 T. Vreven, K. Throssell, J. A. Montgomery, Jr., J. E. Peralta, 
 F. Ogliaro, M. J. Bearpark, J. J. Heyd, E. N. Brothers, K. N. Kudin, 
 V. N. Staroverov, T. A. Keith, R. Kobayashi, J. Normand, 
 K. Raghavachari, A. P. Rendell, J. C. Burant, S. S. Iyengar, 
 J. Tomasi, M. Cossi, J. M. Millam, M. Klene, C. Adamo, R. Cammi, 
 J. W. Ochterski, R. L. Martin, K. Morokuma, O. Farkas, 
 J. B. Foresman, and D. J. Fox, Gaussian, Inc., Wallingford CT, 2019.
 
 ******************************************
 Gaussian 16:  EM64L-G16RevC.01  3-Jul-2019
                22-Mar-2025 
 ******************************************
 %nprocshared=40
 Will use up to   40 processors via shared memory.
 %mem=50gb
 ----------------------------------------------
 # MP2/aug-cc-pVDZ opt freq=(vibrot,anharmonic)
 ----------------------------------------------
 1/18=20,19=15,38=1,80=1/1,3;
 2/9=110,12=2,17=6,18=5,40=1/2;
 3/5=16,7=10,11=9,25=1,30=1,71=1/1,2,3;
 4//1;
 5/5=2,38=5/2;
 8/6=4,10=1/1;
 9/15=2,16=-3/6;
 10/5=1/2;
 6/7=2,8=2,9=2,10=2/1;
 7/12=2/1,2,3,16;
 1/18=20,19=15,80=1/3(2);
 2/9=110/2;
 99//99;
 2/9=110/2;
 3/5=16,7=10,11=9,25=1,30=1,71=1/1,2,3;
 4/5=5,16=3,69=1/1;
 5/5=2,38=5/2;
 8/6=4,10=1/1;
 9/15=2,16=-3/6;
 10/5=1/2;
 7/12=2/1,2,3,16;
 1/18=20,19=15,80=1/3(-8);
 2/9=110/2;
 6/7=2,8=2,9=2,10=2/1;
 99/9=10/99;
 ----
 blah
 ----
 Symbolic Z-matrix:
 Charge =  0 Multiplicity = 1
 C                    -0.3945    0.93162   0.0444 
 C                    -1.09038   0.44142  -0.98305 
 H                    -0.15225   0.34693   0.92373 
 O                     0.08466   2.21069   0.10163 
 C                    -1.40287   1.26462  -2.16495 
 H                     0.56265   2.32441   0.96144 
 O                    -2.04327   0.80355  -3.1036 
 H                    -1.45569  -0.57739  -0.99653 
 H                    -1.03419   2.30336  -2.15862 
 O                     1.38625   2.59504   2.39168 
 H                     2.34951   2.58623   2.53719 
 H                     1.05956   3.04222   3.1932 
 
 Add virtual bond connecting atoms O10        and H6         Dist= 3.16D+00.

 GradGradGradGradGradGradGradGradGradGradGradGradGradGradGradGradGradGrad
 Berny optimization.
 Initialization pass.
                           ----------------------------
                           !    Initial Parameters    !
                           ! (Angstroms and Degrees)  !
 --------------------------                            --------------------------
 ! Name  Definition              Value          Derivative Info.                !
 --------------------------------------------------------------------------------
 ! R1    R(1,2)                  1.3342         estimate D2E/DX2                !
 ! R2    R(1,3)                  1.0834         estimate D2E/DX2                !
 ! R3    R(1,4)                  1.3671         estimate D2E/DX2                !
 ! R4    R(2,5)                  1.4738         estimate D2E/DX2                !
 ! R5    R(2,8)                  1.0824         estimate D2E/DX2                !
 ! R6    R(4,6)                  0.9903         estimate D2E/DX2                !
 ! R7    R(5,7)                  1.2263         estimate D2E/DX2                !
 ! R8    R(5,9)                  1.1023         estimate D2E/DX2                !
 ! R9    R(6,10)                 1.6725         estimate D2E/DX2                !
 ! R10   R(10,11)                0.9742         estimate D2E/DX2                !
 ! R11   R(10,12)                0.9742         estimate D2E/DX2                !
 ! A1    A(2,1,3)              122.9125         estimate D2E/DX2                !
 ! A2    A(2,1,4)              123.9724         estimate D2E/DX2                !
 ! A3    A(3,1,4)              113.1152         estimate D2E/DX2                !
 ! A4    A(1,2,5)              121.5274         estimate D2E/DX2                !
 ! A5    A(1,2,8)              122.1013         estimate D2E/DX2                !
 ! A6    A(5,2,8)              116.3712         estimate D2E/DX2                !
 ! A7    A(1,4,6)              108.2386         estimate D2E/DX2                !
 ! A8    A(2,5,7)              120.9674         estimate D2E/DX2                !
 ! A9    A(2,5,9)              116.7974         estimate D2E/DX2                !
 ! A10   A(7,5,9)              122.2353         estimate D2E/DX2                !
 ! A11   A(6,10,11)            127.8186         estimate D2E/DX2                !
 ! A12   A(6,10,12)            127.7856         estimate D2E/DX2                !
 ! A13   A(11,10,12)           102.2878         estimate D2E/DX2                !
 ! A14   L(4,6,10,3,-1)        182.8495         estimate D2E/DX2                !
 ! A15   L(4,6,10,3,-2)        180.0052         estimate D2E/DX2                !
 ! D1    D(3,1,2,5)            179.9996         estimate D2E/DX2                !
 ! D2    D(3,1,2,8)             -0.0002         estimate D2E/DX2                !
 ! D3    D(4,1,2,5)             -0.0002         estimate D2E/DX2                !
 ! D4    D(4,1,2,8)            180.0            estimate D2E/DX2                !
 ! D5    D(2,1,4,6)            179.9982         estimate D2E/DX2                !
 ! D6    D(3,1,4,6)             -0.0017         estimate D2E/DX2                !
 ! D7    D(1,2,5,7)           -179.9998         estimate D2E/DX2                !
 ! D8    D(1,2,5,9)              0.0            estimate D2E/DX2                !
 ! D9    D(8,2,5,7)              0.0            estimate D2E/DX2                !
 ! D10   D(8,2,5,9)            179.9999         estimate D2E/DX2                !
 ! D11   D(1,4,10,11)          100.4709         estimate D2E/DX2                !
 ! D12   D(1,4,10,12)         -100.6388         estimate D2E/DX2                !
 ! D13   D(6,10,11,12)         164.3385         estimate D2E/DX2                !
 --------------------------------------------------------------------------------
 Trust Radius=3.00D-01 FncErr=1.00D-07 GrdErr=1.00D-07 EigMax=2.50D+02 EigMin=1.00D-04
 Number of steps in this run=     49 maximum allowed number of steps=    100.
 GradGradGradGradGradGradGradGradGradGradGradGradGradGradGradGradGradGrad

                          Input orientation:                          
 ---------------------------------------------------------------------
 Center     Atomic      Atomic             Coordinates (Angstroms)
 Number     Number       Type             X           Y           Z
 ---------------------------------------------------------------------
      1          6           0       -0.394502    0.931621    0.044398
      2          6           0       -1.090383    0.441423   -0.983053
      3          1           0       -0.152250    0.346935    0.923729
      4          8           0        0.084660    2.210688    0.101632
      5          6           0       -1.402870    1.264616   -2.164951
      6          1           0        0.562649    2.324411    0.961440
      7          8           0       -2.043267    0.803550   -3.103600
      8          1           0       -1.455689   -0.577394   -0.996526
      9          1           0       -1.034193    2.303364   -2.158619
     10          8           0        1.386247    2.595039    2.391684
     11          1           0        2.349508    2.586228    2.537193
     12          1           0        1.059564    3.042224    3.193200
 ---------------------------------------------------------------------
                    Distance matrix (angstroms):
                    1          2          3          4          5
     1  C    0.000000
     2  C    1.334241   0.000000
     3  H    1.083405   2.127167   0.000000
     4  O    1.367072   2.384862   2.050743   0.000000
     5  C    2.451309   1.473831   3.456317   2.871445   0.000000
     6  H    1.922751   3.171627   2.103074   0.990291   3.841972
     7  O    3.555941   2.352837   4.472563   4.096537   1.226275
     8  H    2.118199   1.082413   2.498142   3.369277   2.181973
     9  H    2.672858   2.202712   3.755836   2.523718   1.102253
    10  O    3.383457   4.707506   3.094486   2.661991   5.505645
    11  H    4.059722   5.368908   3.725117   3.347018   6.159315
    12  H    4.060038   5.369127   3.726067   3.346593   6.158998
                    6          7          8          9         10
     6  H    0.000000
     7  O    5.062447   0.000000
     8  H    4.040767   2.586893   0.000000
     9  H    3.505013   2.039770   3.134787   0.000000
    10  O    1.672469   6.720800   5.442509   5.162254   0.000000
    11  H    2.396750   7.368375   6.080724   5.794833   0.974228
    12  H    2.396441   7.368100   6.081277   5.794108   0.974230
                   11         12
    11  H    0.000000
    12  H    1.517311   0.000000
 Stoichiometry    C3H6O3
 Framework group  C1[X(C3H6O3)]
 Deg. of freedom    30
 Full point group                 C1      NOp   1
 Largest Abelian subgroup         C1      NOp   1
 Largest concise Abelian subgroup C1      NOp   1
                         Standard orientation:                         
 ---------------------------------------------------------------------
 Center     Atomic      Atomic             Coordinates (Angstroms)
 Number     Number       Type             X           Y           Z
 ---------------------------------------------------------------------
      1          6           0       -0.215483    0.665525    0.000028
      2          6           0        1.113983    0.778316    0.000084
      3          1           0       -0.878938    1.522025    0.000122
      4          8           0       -0.880819   -0.528717   -0.000148
      5          6           0        1.988101   -0.408316   -0.000038
      6          1           0       -1.853295   -0.341720   -0.000124
      7          8           0        3.208915   -0.292713    0.000019
      8          1           0        1.609625    1.740582    0.000225
      9          1           0        1.490675   -1.391948   -0.000179
     10          8           0       -3.509345   -0.107946    0.000051
     11          1           0       -4.118959   -0.152228   -0.758586
     12          1           0       -4.118722   -0.154848    0.758723
 ---------------------------------------------------------------------
 Rotational constants (GHZ):          17.2720546           1.0512372           0.9954548
 Standard basis: Aug-CC-pVDZ (5D, 7F)
 There are   204 symmetry adapted cartesian basis functions of A   symmetry.
 There are   192 symmetry adapted basis functions of A   symmetry.
   192 basis functions,   324 primitive gaussians,   204 cartesian basis functions
    24 alpha electrons       24 beta electrons
       nuclear repulsion energy       214.3669660398 Hartrees.
 NAtoms=   12 NActive=   12 NUniq=   12 SFac= 1.00D+00 NAtFMM=   60 NAOKFM=F Big=F
 Integral buffers will be    131072 words long.
 Raffenetti 1 integral format.
 Two-electron integral symmetry is turned on.
 One-electron integrals computed using PRISM.
 NBasis=   192 RedAO= T EigKep=  2.64D-05  NBF=   192
 NBsUse=   192 1.00D-06 EigRej= -1.00D+00 NBFU=   192
 ExpMin= 2.97D-02 ExpMax= 1.17D+04 ExpMxC= 4.01D+02 IAcc=3 IRadAn=         5 AccDes= 0.00D+00
 Harris functional with IExCor=  205 and IRadAn=       5 diagonalized for initial guess.
 HarFok:  IExCor=  205 AccDes= 0.00D+00 IRadAn=         5 IDoV= 1 UseB2=F ITyADJ=14
 ICtDFT=  3500011 ScaDFX=  1.000000  1.000000  1.000000  1.000000
 FoFCou: FMM=F IPFlag=           0 FMFlag=      100000 FMFlg1=           0
         NFxFlg=           0 DoJE=T BraDBF=F KetDBF=T FulRan=T
         wScrn=  0.000000 ICntrl=       500 IOpCl=  0 I1Cent=   200000004 NGrid=           0
         NMat0=    1 NMatS0=      1 NMatT0=    0 NMatD0=    1 NMtDS0=    0 NMtDT0=    0
 Petite list used in FoFCou.
 Keep R1 ints in memory in canonical form, NReq=180598029.
 Requested convergence on RMS density matrix=1.00D-08 within 128 cycles.
 Requested convergence on MAX density matrix=1.00D-06.
 Requested convergence on             energy=1.00D-06.
 No special actions if energy rises.
 SCF Done:  E(RHF) =  -341.709926753     A.U. after   15 cycles
            NFock= 15  Conv=0.33D-08     -V/T= 2.0017
 ExpMin= 2.97D-02 ExpMax= 1.17D+04 ExpMxC= 4.01D+02 IAcc=3 IRadAn=         5 AccDes= 0.00D+00
 HarFok:  IExCor=  205 AccDes= 0.00D+00 IRadAn=         5 IDoV=-2 UseB2=F ITyADJ=14
 ICtDFT= 12500011 ScaDFX=  1.000000  1.000000  1.000000  1.000000
 Range of M.O.s used for correlation:     7   192
 NBasis=   192 NAE=    24 NBE=    24 NFC=     6 NFV=     0
 NROrb=    186 NOA=    18 NOB=    18 NVA=   168 NVB=   168

 **** Warning!!: The largest alpha MO coefficient is  0.45695733D+02

 Fully direct method using O(ONN) memory.
 JobTyp=1 Pass  1:  I=   7 to  24 NPSUse= 40 ParTrn=T ParDer=T DoDerP=T.
 Spin components of T(2) and E(2):
     alpha-alpha T2 =       0.4211347176D-01 E2=     -0.1334381446D+00
     alpha-beta  T2 =       0.2334357978D+00 E2=     -0.7556824692D+00
     beta-beta   T2 =       0.4211347176D-01 E2=     -0.1334381446D+00
 ANorm=    0.1147894917D+01
 E2 =    -0.1022558758D+01 EUMP2 =    -0.34273248551182D+03
          IDoAtm=111111111111
          Differentiating once with respect to electric field.
                with respect to dipole field.
          Differentiating once with respect to nuclear coordinates.
 Keep R1 ints in memory in canonical form, NReq=180612316.
          There are     1 degrees of freedom in the 1st order CPHF.  IDoFFX=0 NUNeed=     1.
 LinEq1:  Iter=  0 NonCon=     1 RMS=4.71D-03 Max=1.23D-01 NDo=     1
 AX will form     1 AO Fock derivatives at one time.
 LinEq1:  Iter=  1 NonCon=     1 RMS=1.39D-03 Max=1.90D-02 NDo=     1
 LinEq1:  Iter=  2 NonCon=     1 RMS=5.07D-04 Max=1.05D-02 NDo=     1
 LinEq1:  Iter=  3 NonCon=     1 RMS=1.67D-04 Max=2.94D-03 NDo=     1
 LinEq1:  Iter=  4 NonCon=     1 RMS=6.06D-05 Max=1.10D-03 NDo=     1
 LinEq1:  Iter=  5 NonCon=     1 RMS=2.09D-05 Max=2.89D-04 NDo=     1
 LinEq1:  Iter=  6 NonCon=     1 RMS=7.14D-06 Max=1.63D-04 NDo=     1
 LinEq1:  Iter=  7 NonCon=     1 RMS=2.22D-06 Max=3.52D-05 NDo=     1
 LinEq1:  Iter=  8 NonCon=     1 RMS=9.31D-07 Max=2.84D-05 NDo=     1
 LinEq1:  Iter=  9 NonCon=     1 RMS=2.42D-07 Max=2.34D-06 NDo=     1
 LinEq1:  Iter= 10 NonCon=     1 RMS=6.04D-08 Max=5.39D-07 NDo=     1
 LinEq1:  Iter= 11 NonCon=     1 RMS=2.52D-08 Max=5.23D-07 NDo=     1
 LinEq1:  Iter= 12 NonCon=     1 RMS=7.34D-09 Max=8.60D-08 NDo=     1
 LinEq1:  Iter= 13 NonCon=     1 RMS=1.88D-09 Max=3.04D-08 NDo=     1
 LinEq1:  Iter= 14 NonCon=     1 RMS=4.72D-10 Max=5.17D-09 NDo=     1
 LinEq1:  Iter= 15 NonCon=     1 RMS=1.47D-10 Max=2.36D-09 NDo=     1
 LinEq1:  Iter= 16 NonCon=     0 RMS=2.65D-11 Max=2.64D-10 NDo=     1
 Linear equations converged to 1.000D-10 1.000D-09 after    16 iterations.
 End of Minotr F.D. properties file   721 does not exist.
 End of Minotr F.D. properties file   722 does not exist.
 End of Minotr F.D. properties file   788 does not exist.

 **********************************************************************

            Population analysis using the SCF Density.

 **********************************************************************

 Orbital symmetries:
       Occupied  (A) (A) (A) (A) (A) (A) (A) (A) (A) (A) (A) (A)
                 (A) (A) (A) (A) (A) (A) (A) (A) (A) (A) (A) (A)
       Virtual   (A) (A) (A) (A) (A) (A) (A) (A) (A) (A) (A) (A)
                 (A) (A) (A) (A) (A) (A) (A) (A) (A) (A) (A) (A)
                 (A) (A) (A) (A) (A) (A) (A) (A) (A) (A) (A) (A)
                 (A) (A) (A) (A) (A) (A) (A) (A) (A) (A) (A) (A)
                 (A) (A) (A) (A) (A) (A) (A) (A) (A) (A) (A) (A)
                 (A) (A) (A) (A) (A) (A) (A) (A) (A) (A) (A) (A)
                 (A) (A) (A) (A) (A) (A) (A) (A) (A) (A) (A) (A)
                 (A) (A) (A) (A) (A) (A) (A) (A) (A) (A) (A) (A)
                 (A) (A) (A) (A) (A) (A) (A) (A) (A) (A) (A) (A)
                 (A) (A) (A) (A) (A) (A) (A) (A) (A) (A) (A) (A)
                 (A) (A) (A) (A) (A) (A) (A) (A) (A) (A) (A) (A)
                 (A) (A) (A) (A) (A) (A) (A) (A) (A) (A) (A) (A)
                 (A) (A) (A) (A) (A) (A) (A) (A) (A) (A) (A) (A)
                 (A) (A) (A) (A) (A) (A) (A) (A) (A) (A) (A) (A)
 The electronic state is 1-A.
 Alpha  occ. eigenvalues --  -20.63880 -20.59440 -20.53862 -11.32357 -11.31966
 Alpha  occ. eigenvalues --  -11.22343  -1.41692  -1.39655  -1.36033  -1.05550
 Alpha  occ. eigenvalues --   -0.86447  -0.77837  -0.76577  -0.73656  -0.67438
 Alpha  occ. eigenvalues --   -0.65136  -0.60076  -0.57646  -0.57488  -0.56640
 Alpha  occ. eigenvalues --   -0.53701  -0.50763  -0.40341  -0.34895
 Alpha virt. eigenvalues --    0.01021   0.04066   0.04368   0.05408   0.06656
 Alpha virt. eigenvalues --    0.08040   0.09694   0.11542   0.12705   0.13500
 Alpha virt. eigenvalues --    0.14608   0.14858   0.16002   0.16178   0.16668
 Alpha virt. eigenvalues --    0.17493   0.18262   0.19418   0.20238   0.22047
 Alpha virt. eigenvalues --    0.23117   0.24644   0.25077   0.26381   0.27355
 Alpha virt. eigenvalues --    0.28792   0.29511   0.31421   0.31880   0.33369
 Alpha virt. eigenvalues --    0.33539   0.34596   0.36232   0.36592   0.37378
 Alpha virt. eigenvalues --    0.39032   0.40102   0.40244   0.41496   0.44195
 Alpha virt. eigenvalues --    0.44708   0.46235   0.48121   0.49743   0.50337
 Alpha virt. eigenvalues --    0.52111   0.53045   0.53626   0.54129   0.56089
 Alpha virt. eigenvalues --    0.57397   0.58961   0.60388   0.60531   0.62393
 Alpha virt. eigenvalues --    0.63949   0.65118   0.65771   0.67150   0.67933
 Alpha virt. eigenvalues --    0.69011   0.70484   0.72335   0.73228   0.75917
 Alpha virt. eigenvalues --    0.79379   0.80706   0.81437   0.84627   0.84673
 Alpha virt. eigenvalues --    0.85708   0.88053   0.88443   0.91491   0.92386
 Alpha virt. eigenvalues --    0.95447   0.97558   0.97759   1.00009   1.03688
 Alpha virt. eigenvalues --    1.04451   1.09619   1.10214   1.12110   1.17398
 Alpha virt. eigenvalues --    1.18368   1.20452   1.21018   1.26985   1.28017
 Alpha virt. eigenvalues --    1.29048   1.31012   1.31833   1.33549   1.37629
 Alpha virt. eigenvalues --    1.40981   1.47128   1.47561   1.49388   1.51427
 Alpha virt. eigenvalues --    1.54467   1.59235   1.60518   1.62659   1.63193
 Alpha virt. eigenvalues --    1.64702   1.69382   1.72015   1.72519   1.75961
 Alpha virt. eigenvalues --    1.79062   1.82393   1.86512   1.87372   1.89187
 Alpha virt. eigenvalues --    1.94962   1.95159   1.97781   1.98152   2.00294
 Alpha virt. eigenvalues --    2.02318   2.06990   2.09607   2.11283   2.12401
 Alpha virt. eigenvalues --    2.13798   2.18039   2.22063   2.25776   2.26676
 Alpha virt. eigenvalues --    2.32495   2.37601   2.38573   2.38999   2.42156
 Alpha virt. eigenvalues --    2.49554   2.50932   2.56948   2.60140   2.63508
 Alpha virt. eigenvalues --    2.71760   2.74401   2.80582   2.84222   2.95371
 Alpha virt. eigenvalues --    2.96463   3.04073   3.08202   3.11917   3.22683
 Alpha virt. eigenvalues --    3.27828   3.41440   3.64461   3.69487   3.71103
 Alpha virt. eigenvalues --    3.73465   3.75643   3.77177   3.79829   3.79952
 Alpha virt. eigenvalues --    3.81410   3.86979   3.99219   4.02502   4.03685
 Alpha virt. eigenvalues --    4.13724   4.27428   4.50185
          Condensed to atoms (all electrons):
               1          2          3          4          5          6
     1  C    5.415228  -0.299178  -0.262661  -0.007827  -0.008395   0.069835
     2  C   -0.299178   5.742235   0.177870  -0.032651   0.133259  -0.104825
     3  H   -0.262661   0.177870   1.704967  -0.003077  -0.003840  -0.117001
     4  O   -0.007827  -0.032651  -0.003077   8.630219  -0.038205   0.324750
     5  C   -0.008395   0.133259  -0.003840  -0.038205   4.792029   0.013611
     6  H    0.069835  -0.104825  -0.117001   0.324750   0.013611   0.518533
     7  O    0.005198  -0.061023  -0.000645   0.001960   0.270034   0.000487
     8  H    0.109825   0.000380  -0.087445   0.015532  -0.158820   0.003014
     9  H   -0.064390   0.016315   0.007358  -0.018060   0.298166  -0.005123
    10  O    0.028631  -0.035919   0.001152  -0.084305   0.000194  -0.101930
    11  H    0.002002   0.000891   0.000050  -0.000168  -0.000001  -0.000614
    12  H    0.002010   0.000891   0.000047  -0.000169   0.000000  -0.000621
               7          8          9         10         11         12
     1  C    0.005198   0.109825  -0.064390   0.028631   0.002002   0.002010
     2  C   -0.061023   0.000380   0.016315  -0.035919   0.000891   0.000891
     3  H   -0.000645  -0.087445   0.007358   0.001152   0.000050   0.000047
     4  O    0.001960   0.015532  -0.018060  -0.084305  -0.000168  -0.000169
     5  C    0.270034  -0.158820   0.298166   0.000194  -0.000001   0.000000
     6  H    0.000487   0.003014  -0.005123  -0.101930  -0.000614  -0.000621
     7  O    8.568801   0.016237  -0.059093   0.000094   0.000004   0.000004
     8  H    0.016237   1.490807   0.020612  -0.001506   0.000023   0.000023
     9  H   -0.059093   0.020612   0.934198   0.002295   0.000123   0.000123
    10  O    0.000094  -0.001506   0.002295   7.989888   0.351369   0.351395
    11  H    0.000004   0.000023   0.000123   0.351369   0.478758  -0.040506
    12  H    0.000004   0.000023   0.000123   0.351395  -0.040506   0.478799
 Mulliken charges:
               1
     1  C    1.009720
     2  C    0.461755
     3  H   -0.416775
     4  O   -0.787999
     5  C    0.701967
     6  H    0.399883
     7  O   -0.742059
     8  H   -0.408684
     9  H   -0.132525
    10  O   -0.501358
    11  H    0.208068
    12  H    0.208005
 Sum of Mulliken charges =  -0.00000
 Mulliken charges with hydrogens summed into heavy atoms:
               1
     1  C    0.592946
     2  C    0.053071
     4  O   -0.388115
     5  C    0.569442
     7  O   -0.742059
    10  O   -0.085284
 Electronic spatial extent (au):  <R**2>=           1074.8355
 Charge=             -0.0000 electrons
 Dipole moment (field-independent basis, Debye):
    X=             -9.2712    Y=              1.1145    Z=              0.0001  Tot=              9.3380
 Quadrupole moment (field-independent basis, Debye-Ang):
   XX=            -28.4034   YY=            -35.3261   ZZ=            -35.1250
   XY=              1.1811   XZ=             -0.0001   YZ=             -0.0054
 Traceless Quadrupole moment (field-independent basis, Debye-Ang):
   XX=              4.5481   YY=             -2.3746   ZZ=             -2.1735
   XY=              1.1811   XZ=             -0.0001   YZ=             -0.0054
 Octapole moment (field-independent basis, Debye-Ang**2):
  XXX=           -204.7278  YYY=             -1.0080  ZZZ=             -0.0001  XYY=             -1.6836
  XXY=             -1.0812  XXZ=             -0.0030  XZZ=            -16.2109  YZZ=             -3.2279
  YYZ=              0.0023  XYZ=              0.0236
 Hexadecapole moment (field-independent basis, Debye-Ang**3):
 XXXX=           -809.1489 YYYY=           -109.1436 ZZZZ=            -38.2129 XXXY=             53.6091
 XXXZ=              0.0134 YYYX=              1.2242 YYYZ=             -0.0016 ZZZX=             -0.0025
 ZZZY=             -0.0073 XXYY=           -213.7021 XXZZ=           -150.1745 YYZZ=            -28.4171
 XXYZ=             -0.0932 YYXZ=             -0.0061 ZZXY=              0.4239
 N-N= 2.143669660398D+02 E-N=-1.234378603410D+03  KE= 3.411331808595D+02
 Calling FoFJK, ICntrl=  10002127 FMM=F ISym2X=0 I1Cent= 0 IOpClX= 0 NMat=1 NMatS=1 NMatT=0.
 ***** Axes restored to original set *****
 -------------------------------------------------------------------
 Center     Atomic                   Forces (Hartrees/Bohr)
 Number     Number              X              Y              Z
 -------------------------------------------------------------------
      1        6           0.018391313    0.018427574    0.023377933
      2        6          -0.011232191    0.005146757   -0.025603489
      3        1           0.000018628   -0.009170924    0.006371778
      4        8           0.000196472   -0.003596421    0.002871494
      5        6           0.003246571   -0.010877687    0.013885575
      6        1          -0.005695881    0.000427990   -0.011488222
      7        8          -0.007822852    0.000357629   -0.015602991
      8        1          -0.000602264   -0.006361568    0.003210728
      9        1           0.001284865    0.005811713   -0.001491735
     10        8           0.010389177    0.004680027    0.017175212
     11        1          -0.006008132   -0.001742090   -0.005376867
     12        1          -0.002165706   -0.003102999   -0.007329414
 -------------------------------------------------------------------
 Cartesian Forces:  Max     0.025603489 RMS     0.010026653

 GradGradGradGradGradGradGradGradGradGradGradGradGradGradGradGradGradGrad
 Berny optimization.
 FormGI is forming the generalized inverse of G from B-inverse, IUseBI=4.
 Internal  Forces:  Max     0.029780246 RMS     0.006934363
 Search for a local minimum.
 Step number   1 out of a maximum of   49
 All quantities printed in internal units (Hartrees-Bohrs-Radians)
 Mixed Optimization -- RFO/linear search
 Second derivative matrix not updated -- first step.
 ITU=  0
     Eigenvalues ---    0.00230   0.00230   0.00230   0.01112   0.01112
     Eigenvalues ---    0.01137   0.02087   0.02127   0.02714   0.02959
     Eigenvalues ---    0.07827   0.15707   0.16000   0.16000   0.16000
     Eigenvalues ---    0.16000   0.16000   0.22000   0.22000   0.22000
     Eigenvalues ---    0.33434   0.35286   0.35586   0.35704   0.49436
     Eigenvalues ---    0.51543   0.52522   0.52522   0.58515   0.92656
 RFO step:  Lambda=-5.23444844D-03 EMin= 2.30000000D-03
 Linear search not attempted -- first point.
 Iteration  1 RMS(Cart)=  0.11202712 RMS(Int)=  0.01058303
 Iteration  2 RMS(Cart)=  0.03825807 RMS(Int)=  0.00061177
 Iteration  3 RMS(Cart)=  0.00080445 RMS(Int)=  0.00038038
 Iteration  4 RMS(Cart)=  0.00000024 RMS(Int)=  0.00038038
 Variable       Old X    -DE/DX   Delta X   Delta X   Delta X     New X
                                 (Linear)    (Quad)   (Total)
    R1        2.52135   0.02978   0.00000   0.05044   0.05044   2.57179
    R2        2.04734   0.01013   0.00000   0.02804   0.02804   2.07538
    R3        2.58339  -0.00444   0.00000  -0.00853  -0.00853   2.57486
    R4        2.78514   0.00064   0.00000   0.00179   0.00179   2.78693
    R5        2.04546   0.00615   0.00000   0.01698   0.01698   2.06244
    R6        1.87138  -0.00774   0.00000  -0.01549  -0.01545   1.85593
    R7        2.31732   0.01589   0.00000   0.01706   0.01706   2.33438
    R8        2.08296   0.00590   0.00000   0.01737   0.01737   2.10033
    R9        3.16051   0.00488   0.00000   0.05848   0.05845   3.21896
   R10        1.84102  -0.00673   0.00000  -0.01268  -0.01268   1.82834
   R11        1.84103  -0.00673   0.00000  -0.01268  -0.01268   1.82834
    A1        2.14523  -0.00259   0.00000  -0.01927  -0.01927   2.12596
    A2        2.16373  -0.00447   0.00000  -0.01983  -0.01983   2.14390
    A3        1.97423   0.00705   0.00000   0.03910   0.03910   2.01333
    A4        2.12105   0.00584   0.00000   0.02593   0.02593   2.14698
    A5        2.13107  -0.00665   0.00000  -0.03554  -0.03554   2.09553
    A6        2.03106   0.00081   0.00000   0.00961   0.00961   2.04067
    A7        1.88912   0.00015   0.00000   0.00094   0.00094   1.89006
    A8        2.11128   0.00998   0.00000   0.04432   0.04432   2.15560
    A9        2.03850  -0.00323   0.00000  -0.01149  -0.01149   2.02701
   A10        2.13341  -0.00675   0.00000  -0.03283  -0.03283   2.10058
   A11        2.23086  -0.00306   0.00000  -0.02035  -0.02017   2.21068
   A12        2.23028  -0.00287   0.00000  -0.01967  -0.01983   2.21045
   A13        1.78526   0.00573   0.00000   0.03299   0.03315   1.81841
   A14        3.19133  -0.00174   0.00000  -0.24907  -0.24973   2.94159
   A15        3.14168   0.00000   0.00000   0.00021   0.00021   3.14189
    D1        3.14159   0.00000   0.00000   0.00000   0.00000   3.14159
    D2       -0.00000  -0.00000   0.00000  -0.00000  -0.00000  -0.00001
    D3       -0.00000  -0.00000   0.00000   0.00000  -0.00000  -0.00000
    D4        3.14159  -0.00000   0.00000  -0.00000  -0.00000   3.14159
    D5        3.14156   0.00000   0.00000   0.00004   0.00004  -3.14158
    D6       -0.00003   0.00000   0.00000   0.00004   0.00004   0.00001
    D7       -3.14159  -0.00000   0.00000  -0.00001  -0.00001   3.14159
    D8        0.00000   0.00000   0.00000   0.00001   0.00001   0.00001
    D9        0.00000  -0.00000   0.00000  -0.00000  -0.00000  -0.00000
   D10        3.14159   0.00000   0.00000   0.00001   0.00001  -3.14159
   D11        1.75355  -0.00068   0.00000  -0.05778  -0.05657   1.69697
   D12       -1.75648   0.00068   0.00000   0.05827   0.05707  -1.69941
   D13        2.86825  -0.00089   0.00000  -0.02685  -0.02536   2.84289
         Item               Value     Threshold  Converged?
 Maximum Force            0.029780     0.000450     NO 
 RMS     Force            0.006934     0.000300     NO 
 Maximum Displacement     0.360184     0.001800     NO 
 RMS     Displacement     0.145714     0.001200     NO 
 Predicted change in Energy=-2.844011D-03
 GradGradGradGradGradGradGradGradGradGradGradGradGradGradGradGradGradGrad

                          Input orientation:                          
 ---------------------------------------------------------------------
 Center     Atomic      Atomic             Coordinates (Angstroms)
 Number     Number       Type             X           Y           Z
 ---------------------------------------------------------------------
      1          6           0       -0.344534    1.044285    0.064621
      2          6           0       -1.058513    0.481839   -0.948310
      3          1           0       -0.081626    0.480837    0.969907
      4          8           0        0.093096    2.334250    0.032547
      5          6           0       -1.426027    1.213356   -2.175009
      6          1           0        0.581058    2.515012    0.865476
      7          8           0       -2.073605    0.711997   -3.099808
      8          1           0       -1.386626   -0.556492   -0.875102
      9          1           0       -1.085350    2.269547   -2.235908
     10          8           0        1.351185    2.505585    2.384815
     11          1           0        2.299133    2.406927    2.551399
     12          1           0        1.001281    2.865563    3.211902
 ---------------------------------------------------------------------
                    Distance matrix (angstroms):
                    1          2          3          4          5
     1  C    0.000000
     2  C    1.360934   0.000000
     3  H    1.098243   2.152642   0.000000
     4  O    1.362556   2.391592   2.084301   0.000000
     5  C    2.492820   1.474779   3.497784   2.904727   0.000000
     6  H    1.913408   3.179908   2.141945   0.982117   3.868753
     7  O    3.621285   2.390047   4.536958   4.139800   1.235302
     8  H    2.128738   1.091398   2.486591   3.371913   2.196286
     9  H    2.709706   2.203300   3.805810   2.557109   1.111445
    10  O    3.223997   4.583876   2.855611   2.673071   5.493155
    11  H    3.876832   5.218018   3.446586   3.349104   6.135173
    12  H    3.877325   5.218454   3.447630   3.348939   6.135179
                    6          7          8          9         10
     6  H    0.000000
     7  O    5.101135   0.000000
     8  H    4.041725   2.651475   0.000000
     9  H    3.529271   2.036893   3.151041   0.000000
    10  O    1.703400   6.710233   5.243947   5.229100   0.000000
    11  H    2.409522   7.343688   5.840170   5.864461   0.967517
    12  H    2.409395   7.343735   5.840905   5.864119   0.967518
                   11         12
    11  H    0.000000
    12  H    1.526772   0.000000
 Stoichiometry    C3H6O3
 Framework group  C1[X(C3H6O3)]
 Deg. of freedom    30
 Full point group                 C1      NOp   1
 Largest Abelian subgroup         C1      NOp   1
 Largest concise Abelian subgroup C1      NOp   1
                         Standard orientation:                         
 ---------------------------------------------------------------------
 Center     Atomic      Atomic             Coordinates (Angstroms)
 Number     Number       Type             X           Y           Z
 ---------------------------------------------------------------------
      1          6           0       -0.297288    0.568735   -0.000068
      2          6           0        1.050243    0.759270    0.000045
      3          1           0       -1.001114    1.411805   -0.000030
      4          8           0       -0.868564   -0.668278   -0.000235
      5          6           0        2.018972   -0.352727    0.000004
      6          1           0       -1.844376   -0.557164   -0.000299
      7          8           0        3.243552   -0.190320    0.000102
      8          1           0        1.459386    1.771075    0.000173
      9          1           0        1.588274   -1.377328   -0.000133
     10          8           0       -3.464814   -0.032043    0.000141
     11          1           0       -4.057511    0.013614   -0.763216
     12          1           0       -4.057604    0.011462    0.763554
 ---------------------------------------------------------------------
 Rotational constants (GHZ):          17.6808055           1.0564509           1.0015269
 Standard basis: Aug-CC-pVDZ (5D, 7F)
 There are   204 symmetry adapted cartesian basis functions of A   symmetry.
 There are   192 symmetry adapted basis functions of A   symmetry.
   192 basis functions,   324 primitive gaussians,   204 cartesian basis functions
    24 alpha electrons       24 beta electrons
       nuclear repulsion energy       213.8780926320 Hartrees.
 NAtoms=   12 NActive=   12 NUniq=   12 SFac= 1.00D+00 NAtFMM=   60 NAOKFM=F Big=F
 Integral buffers will be    131072 words long.
 Raffenetti 1 integral format.
 Two-electron integral symmetry is turned on.
 One-electron integrals computed using PRISM.
 NBasis=   192 RedAO= T EigKep=  2.75D-05  NBF=   192
 NBsUse=   192 1.00D-06 EigRej= -1.00D+00 NBFU=   192
 Initial guess from the checkpoint file:  "/scr/Gau-26089.chk"
 B after Tr=    -0.000000    0.000000   -0.000000
         Rot=    0.999987    0.000041    0.000001   -0.005069 Ang=   0.58 deg.
 ExpMin= 2.97D-02 ExpMax= 1.17D+04 ExpMxC= 4.01D+02 IAcc=3 IRadAn=         5 AccDes= 0.00D+00
 Harris functional with IExCor=  205 and IRadAn=       5 diagonalized for initial guess.
 HarFok:  IExCor=  205 AccDes= 0.00D+00 IRadAn=         5 IDoV= 1 UseB2=F ITyADJ=14
 ICtDFT=  3500011 ScaDFX=  1.000000  1.000000  1.000000  1.000000
 FoFCou: FMM=F IPFlag=           0 FMFlag=      100000 FMFlg1=           0
         NFxFlg=           0 DoJE=T BraDBF=F KetDBF=T FulRan=T
         wScrn=  0.000000 ICntrl=       500 IOpCl=  0 I1Cent=   200000004 NGrid=           0
         NMat0=    1 NMatS0=      1 NMatT0=    0 NMatD0=    1 NMtDS0=    0 NMtDT0=    0
 Petite list used in FoFCou.
 Keep R1 ints in memory in canonical form, NReq=180598848.
 Requested convergence on RMS density matrix=1.00D-08 within 128 cycles.
 Requested convergence on MAX density matrix=1.00D-06.
 Requested convergence on             energy=1.00D-06.
 No special actions if energy rises.
 SCF Done:  E(RHF) =  -341.710344956     A.U. after   13 cycles
            NFock= 13  Conv=0.31D-08     -V/T= 2.0021
 ExpMin= 2.97D-02 ExpMax= 1.17D+04 ExpMxC= 4.01D+02 IAcc=3 IRadAn=         5 AccDes= 0.00D+00
 HarFok:  IExCor=  205 AccDes= 0.00D+00 IRadAn=         5 IDoV=-2 UseB2=F ITyADJ=14
 ICtDFT= 12500011 ScaDFX=  1.000000  1.000000  1.000000  1.000000
 Range of M.O.s used for correlation:     7   192
 NBasis=   192 NAE=    24 NBE=    24 NFC=     6 NFV=     0
 NROrb=    186 NOA=    18 NOB=    18 NVA=   168 NVB=   168

 **** Warning!!: The largest alpha MO coefficient is  0.51770766D+02

 Fully direct method using O(ONN) memory.
 JobTyp=1 Pass  1:  I=   7 to  24 NPSUse= 40 ParTrn=T ParDer=T DoDerP=T.
 Spin components of T(2) and E(2):
     alpha-alpha T2 =       0.4244775718D-01 E2=     -0.1336906804D+00
     alpha-beta  T2 =       0.2355156296D+00 E2=     -0.7573581646D+00
     beta-beta   T2 =       0.4244775718D-01 E2=     -0.1336906804D+00
 ANorm=    0.1149091443D+01
 E2 =    -0.1024739525D+01 EUMP2 =    -0.34273508448197D+03
          IDoAtm=111111111111
          Differentiating once with respect to electric field.
                with respect to dipole field.
          Differentiating once with respect to nuclear coordinates.
 Keep R1 ints in memory in canonical form, NReq=180613777.
          There are     1 degrees of freedom in the 1st order CPHF.  IDoFFX=0 NUNeed=     1.
 LinEq1:  Iter=  0 NonCon=     1 RMS=4.79D-03 Max=1.27D-01 NDo=     1
 AX will form     1 AO Fock derivatives at one time.
 LinEq1:  Iter=  1 NonCon=     1 RMS=1.43D-03 Max=1.83D-02 NDo=     1
 LinEq1:  Iter=  2 NonCon=     1 RMS=5.28D-04 Max=1.11D-02 NDo=     1
 LinEq1:  Iter=  3 NonCon=     1 RMS=1.82D-04 Max=3.43D-03 NDo=     1
 LinEq1:  Iter=  4 NonCon=     1 RMS=6.54D-05 Max=1.17D-03 NDo=     1
 LinEq1:  Iter=  5 NonCon=     1 RMS=2.34D-05 Max=3.26D-04 NDo=     1
 LinEq1:  Iter=  6 NonCon=     1 RMS=8.35D-06 Max=2.23D-04 NDo=     1
 LinEq1:  Iter=  7 NonCon=     1 RMS=2.48D-06 Max=3.95D-05 NDo=     1
 LinEq1:  Iter=  8 NonCon=     1 RMS=1.06D-06 Max=3.14D-05 NDo=     1
 LinEq1:  Iter=  9 NonCon=     1 RMS=2.66D-07 Max=2.43D-06 NDo=     1
 LinEq1:  Iter= 10 NonCon=     1 RMS=6.21D-08 Max=7.36D-07 NDo=     1
 LinEq1:  Iter= 11 NonCon=     1 RMS=2.10D-08 Max=4.74D-07 NDo=     1
 LinEq1:  Iter= 12 NonCon=     1 RMS=6.77D-09 Max=6.53D-08 NDo=     1
 LinEq1:  Iter= 13 NonCon=     1 RMS=2.09D-09 Max=3.75D-08 NDo=     1
 LinEq1:  Iter= 14 NonCon=     1 RMS=5.40D-10 Max=5.69D-09 NDo=     1
 LinEq1:  Iter= 15 NonCon=     1 RMS=1.70D-10 Max=2.80D-09 NDo=     1
 LinEq1:  Iter= 16 NonCon=     0 RMS=3.05D-11 Max=3.26D-10 NDo=     1
 Linear equations converged to 1.000D-10 1.000D-09 after    16 iterations.
 End of Minotr F.D. properties file   721 does not exist.
 End of Minotr F.D. properties file   722 does not exist.
 End of Minotr F.D. properties file   788 does not exist.
 Calling FoFJK, ICntrl=  10002127 FMM=F ISym2X=0 I1Cent= 0 IOpClX= 0 NMat=1 NMatS=1 NMatT=0.
 ***** Axes restored to original set *****
 -------------------------------------------------------------------
 Center     Atomic                   Forces (Hartrees/Bohr)
 Number     Number              X              Y              Z
 -------------------------------------------------------------------
      1        6           0.002793348    0.005022447    0.002013797
      2        6          -0.002737628    0.002167548   -0.006870467
      3        1          -0.000874003   -0.000412578   -0.001428189
      4        8          -0.001019727   -0.002914766    0.000006221
      5        6           0.002058723   -0.001073811    0.004780099
      6        1          -0.002831058   -0.002099580   -0.004103290
      7        8          -0.000572367   -0.000865964   -0.000524412
      8        1           0.000897535   -0.000655214    0.002214763
      9        1           0.000225949    0.000498109    0.000100216
     10        8           0.004020360    0.000271771    0.007707717
     11        1          -0.000739233   -0.000052452   -0.002070527
     12        1          -0.001221898    0.000114489   -0.001825928
 -------------------------------------------------------------------
 Cartesian Forces:  Max     0.007707717 RMS     0.002685424

 GradGradGradGradGradGradGradGradGradGradGradGradGradGradGradGradGradGrad
 Berny optimization.
 Using GEDIIS/GDIIS optimizer.
 FormGI is forming the generalized inverse of G from B-inverse, IUseBI=4.
 Internal  Forces:  Max     0.004999869 RMS     0.001632570
 Search for a local minimum.
 Step number   2 out of a maximum of   49
 All quantities printed in internal units (Hartrees-Bohrs-Radians)
 Mixed Optimization -- RFO/linear search
 Update second derivatives using D2CorX and points    1    2
 DE= -2.60D-03 DEPred=-2.84D-03 R= 9.14D-01
 TightC=F SS=  1.41D+00  RLast= 2.95D-01 DXNew= 5.0454D-01 8.8552D-01
 Trust test= 9.14D-01 RLast= 2.95D-01 DXMaxT set to 5.05D-01
 ITU=  1  0
 Use linear search instead of GDIIS.
     Eigenvalues ---    0.00230   0.00230   0.00336   0.01112   0.01112
     Eigenvalues ---    0.01174   0.02063   0.02127   0.02704   0.02959
     Eigenvalues ---    0.06779   0.13856   0.15817   0.16000   0.16000
     Eigenvalues ---    0.16000   0.16100   0.21933   0.22000   0.22561
     Eigenvalues ---    0.33110   0.34689   0.35662   0.36934   0.48351
     Eigenvalues ---    0.50374   0.52522   0.52530   0.58954   0.91871
 RFO step:  Lambda=-1.95112550D-03 EMin= 2.29999915D-03
 Quartic linear search produced a step of  0.00166.
 Iteration  1 RMS(Cart)=  0.14390672 RMS(Int)=  0.04259336
 Iteration  2 RMS(Cart)=  0.12557681 RMS(Int)=  0.01043309
 Iteration  3 RMS(Cart)=  0.03012921 RMS(Int)=  0.00196573
 Iteration  4 RMS(Cart)=  0.00070414 RMS(Int)=  0.00193380
 Iteration  5 RMS(Cart)=  0.00000053 RMS(Int)=  0.00193380
 Variable       Old X    -DE/DX   Delta X   Delta X   Delta X     New X
                                 (Linear)    (Quad)   (Total)
    R1        2.57179   0.00026   0.00008   0.02735   0.02743   2.59922
    R2        2.07538  -0.00117   0.00005   0.01148   0.01152   2.08690
    R3        2.57486  -0.00500  -0.00001  -0.01463  -0.01465   2.56021
    R4        2.78693  -0.00476   0.00000  -0.01307  -0.01306   2.77386
    R5        2.06244   0.00050   0.00003   0.01049   0.01051   2.07296
    R6        1.85593  -0.00094  -0.00003  -0.01019  -0.00994   1.84599
    R7        2.33438   0.00104   0.00003   0.01028   0.01031   2.34469
    R8        2.10033   0.00054   0.00003   0.01090   0.01093   2.11125
    R9        3.21896   0.00432   0.00010   0.08652   0.08646   3.30542
   R10        1.82834  -0.00108  -0.00002  -0.00889  -0.00891   1.81943
   R11        1.82834  -0.00108  -0.00002  -0.00889  -0.00891   1.81943
    A1        2.12596  -0.00161  -0.00003  -0.02000  -0.02003   2.10593
    A2        2.14390   0.00060  -0.00003  -0.00767  -0.00770   2.13620
    A3        2.01333   0.00101   0.00007   0.02767   0.02773   2.04106
    A4        2.14698   0.00016   0.00004   0.01449   0.01453   2.16152
    A5        2.09553  -0.00258  -0.00006  -0.03528  -0.03534   2.06019
    A6        2.04067   0.00242   0.00002   0.02079   0.02080   2.06148
    A7        1.89006  -0.00074   0.00000  -0.00430  -0.00430   1.88576
    A8        2.15560  -0.00070   0.00007   0.02019   0.02026   2.17586
    A9        2.02701   0.00020  -0.00002  -0.00544  -0.00546   2.02155
   A10        2.10058   0.00050  -0.00005  -0.01474  -0.01480   2.08578
   A11        2.21068  -0.00118  -0.00003  -0.01765  -0.01844   2.19224
   A12        2.21045  -0.00118  -0.00003  -0.01758  -0.01673   2.19372
   A13        1.81841   0.00238   0.00006   0.03338   0.03111   1.84952
   A14        2.94159   0.00213  -0.00042   0.45417   0.45677   3.39836
   A15        3.14189  -0.00000   0.00000  -0.00103  -0.00103   3.14087
    D1        3.14159  -0.00000   0.00000  -0.00001  -0.00001   3.14158
    D2       -0.00001  -0.00000  -0.00000  -0.00001  -0.00001  -0.00001
    D3       -0.00000   0.00000  -0.00000   0.00002   0.00002   0.00001
    D4        3.14159   0.00000  -0.00000   0.00002   0.00002  -3.14158
    D5       -3.14158   0.00000   0.00000   0.00006   0.00006  -3.14152
    D6        0.00001   0.00000   0.00000   0.00008   0.00008   0.00009
    D7        3.14159   0.00000  -0.00000   0.00003   0.00003  -3.14157
    D8        0.00001  -0.00000   0.00000  -0.00002  -0.00002  -0.00002
    D9       -0.00000   0.00000  -0.00000   0.00003   0.00003   0.00003
   D10       -3.14159  -0.00000   0.00000  -0.00002  -0.00002   3.14158
   D11        1.69697   0.00051  -0.00009   0.12945   0.12301   1.81998
   D12       -1.69941  -0.00050   0.00009  -0.12820  -0.12175  -1.82117
   D13        2.84289  -0.00001  -0.00004  -0.00760  -0.01467   2.82822
         Item               Value     Threshold  Converged?
 Maximum Force            0.005000     0.000450     NO 
 RMS     Force            0.001633     0.000300     NO 
 Maximum Displacement     0.680495     0.001800     NO 
 RMS     Displacement     0.286955     0.001200     NO 
 Predicted change in Energy=-1.223954D-03
 GradGradGradGradGradGradGradGradGradGradGradGradGradGradGradGradGradGrad

                          Input orientation:                          
 ---------------------------------------------------------------------
 Center     Atomic      Atomic             Coordinates (Angstroms)
 Number     Number       Type             X           Y           Z
 ---------------------------------------------------------------------
      1          6           0       -0.414307    0.838418    0.071420
      2          6           0       -1.121612    0.427802   -1.034463
      3          1           0       -0.230666    0.145669    0.911624
      4          8           0        0.086520    2.091798    0.188490
      5          6           0       -1.406054    1.288538   -2.188957
      6          1           0        0.546238    2.154910    1.048096
      7          8           0       -2.042066    0.934298   -3.193685
      8          1           0       -1.494770   -0.603550   -1.054224
      9          1           0       -1.008415    2.330862   -2.128641
     10          8           0        1.447957    2.686746    2.449379
     11          1           0        2.406489    2.758082    2.505206
     12          1           0        1.100158    3.219132    3.172284
 ---------------------------------------------------------------------
                    Distance matrix (angstroms):
                    1          2          3          4          5
     1  C    0.000000
     2  C    1.375450   0.000000
     3  H    1.104341   2.158852   0.000000
     4  O    1.354804   2.392505   2.100226   0.000000
     5  C    2.509078   1.467866   3.507319   2.919805   0.000000
     6  H    1.899919   3.178314   2.158530   0.976855   3.878215
     7  O    3.649616   2.401252   4.555948   4.160504   1.240756
     8  H    2.124558   1.096961   2.454353   3.362993   2.208050
     9  H    2.724081   2.198107   3.824026   2.573933   1.117226
    10  O    3.541049   4.882895   3.411677   2.705382   5.622679
    11  H    4.191100   5.514251   4.039653   3.345649   6.223360
    12  H    4.192464   5.515841   4.040773   3.346844   6.225046
                    6          7          8          9         10
     6  H    0.000000
     7  O    5.116827   0.000000
     8  H    4.024247   2.691060   0.000000
     9  H    3.541124   2.037926   3.162544   0.000000
    10  O    1.749154   6.862616   5.635683   5.207560   0.000000
    11  H    2.438754   7.456084   6.260187   5.772056   0.962803
    12  H    2.439584   7.457854   6.261782   5.773639   0.962803
                   11         12
    11  H    0.000000
    12  H    1.537550   0.000000
 Stoichiometry    C3H6O3
 Framework group  C1[X(C3H6O3)]
 Deg. of freedom    30
 Full point group                 C1      NOp   1
 Largest Abelian subgroup         C1      NOp   1
 Largest concise Abelian subgroup C1      NOp   1
                         Standard orientation:                         
 ---------------------------------------------------------------------
 Center     Atomic      Atomic             Coordinates (Angstroms)
 Number     Number       Type             X           Y           Z
 ---------------------------------------------------------------------
      1          6           0       -0.199377    0.767043    0.000193
      2          6           0        1.175922    0.787418   -0.000077
      3          1           0       -0.776551    1.708552    0.000149
      4          8           0       -0.908195   -0.387544    0.000549
      5          6           0        2.011435   -0.419456   -0.000026
      6          1           0       -1.858057   -0.159495    0.000627
      7          8           0        3.252191   -0.418864   -0.000242
      8          1           0        1.677194    1.763149   -0.000348
      9          1           0        1.461640   -1.392040    0.000269
     10          8           0       -3.606821   -0.196472   -0.000233
     11          1           0       -4.163798   -0.353658   -0.769687
     12          1           0       -4.165715   -0.353494    0.767862
 ---------------------------------------------------------------------
 Rotational constants (GHZ):          15.8410479           1.0094623           0.9532533
 Standard basis: Aug-CC-pVDZ (5D, 7F)
 There are   204 symmetry adapted cartesian basis functions of A   symmetry.
 There are   192 symmetry adapted basis functions of A   symmetry.
   192 basis functions,   324 primitive gaussians,   204 cartesian basis functions
    24 alpha electrons       24 beta electrons
       nuclear repulsion energy       211.4715038676 Hartrees.
 NAtoms=   12 NActive=   12 NUniq=   12 SFac= 1.00D+00 NAtFMM=   60 NAOKFM=F Big=F
 Integral buffers will be    131072 words long.
 Raffenetti 1 integral format.
 Two-electron integral symmetry is turned on.
 One-electron integrals computed using PRISM.
 NBasis=   192 RedAO= T EigKep=  3.18D-05  NBF=   192
 NBsUse=   192 1.00D-06 EigRej= -1.00D+00 NBFU=   192
 Initial guess from the checkpoint file:  "/scr/Gau-26089.chk"
 B after Tr=    -0.000000   -0.000000    0.000000
         Rot=    0.999969    0.000148    0.000005    0.007849 Ang=   0.90 deg.
 ExpMin= 2.97D-02 ExpMax= 1.17D+04 ExpMxC= 4.01D+02 IAcc=3 IRadAn=         5 AccDes= 0.00D+00
 Harris functional with IExCor=  205 and IRadAn=       5 diagonalized for initial guess.
 HarFok:  IExCor=  205 AccDes= 0.00D+00 IRadAn=         5 IDoV= 1 UseB2=F ITyADJ=14
 ICtDFT=  3500011 ScaDFX=  1.000000  1.000000  1.000000  1.000000
 FoFCou: FMM=F IPFlag=           0 FMFlag=      100000 FMFlg1=           0
         NFxFlg=           0 DoJE=T BraDBF=F KetDBF=T FulRan=T
         wScrn=  0.000000 ICntrl=       500 IOpCl=  0 I1Cent=   200000004 NGrid=           0
         NMat0=    1 NMatS0=      1 NMatT0=    0 NMatD0=    1 NMtDS0=    0 NMtDT0=    0
 Petite list used in FoFCou.
 Keep R1 ints in memory in canonical form, NReq=180594399.
 Requested convergence on RMS density matrix=1.00D-08 within 128 cycles.
 Requested convergence on MAX density matrix=1.00D-06.
 Requested convergence on             energy=1.00D-06.
 No special actions if energy rises.
 SCF Done:  E(RHF) =  -341.709019396     A.U. after   13 cycles
            NFock= 13  Conv=0.64D-08     -V/T= 2.0023
 ExpMin= 2.97D-02 ExpMax= 1.17D+04 ExpMxC= 4.01D+02 IAcc=3 IRadAn=         5 AccDes= 0.00D+00
 HarFok:  IExCor=  205 AccDes= 0.00D+00 IRadAn=         5 IDoV=-2 UseB2=F ITyADJ=14
 ICtDFT= 12500011 ScaDFX=  1.000000  1.000000  1.000000  1.000000
 Range of M.O.s used for correlation:     7   192
 NBasis=   192 NAE=    24 NBE=    24 NFC=     6 NFV=     0
 NROrb=    186 NOA=    18 NOB=    18 NVA=   168 NVB=   168

 **** Warning!!: The largest alpha MO coefficient is  0.37199112D+02

 Fully direct method using O(ONN) memory.
 JobTyp=1 Pass  1:  I=   7 to  24 NPSUse= 40 ParTrn=T ParDer=T DoDerP=T.
 Spin components of T(2) and E(2):
     alpha-alpha T2 =       0.4257507010D-01 E2=     -0.1337139086D+00
     alpha-beta  T2 =       0.2364946107D+00 E2=     -0.7579241478D+00
     beta-beta   T2 =       0.4257507010D-01 E2=     -0.1337139086D+00
 ANorm=    0.1149628092D+01
 E2 =    -0.1025351965D+01 EUMP2 =    -0.34273437136117D+03
          IDoAtm=111111111111
          Differentiating once with respect to electric field.
                with respect to dipole field.
          Differentiating once with respect to nuclear coordinates.
 Keep R1 ints in memory in canonical form, NReq=180609189.
          There are     1 degrees of freedom in the 1st order CPHF.  IDoFFX=0 NUNeed=     1.
 LinEq1:  Iter=  0 NonCon=     1 RMS=4.83D-03 Max=1.27D-01 NDo=     1
 AX will form     1 AO Fock derivatives at one time.
 LinEq1:  Iter=  1 NonCon=     1 RMS=1.45D-03 Max=1.91D-02 NDo=     1
 LinEq1:  Iter=  2 NonCon=     1 RMS=5.41D-04 Max=1.14D-02 NDo=     1
 LinEq1:  Iter=  3 NonCon=     1 RMS=1.90D-04 Max=3.62D-03 NDo=     1
 LinEq1:  Iter=  4 NonCon=     1 RMS=6.91D-05 Max=1.18D-03 NDo=     1
 LinEq1:  Iter=  5 NonCon=     1 RMS=2.53D-05 Max=4.61D-04 NDo=     1
 LinEq1:  Iter=  6 NonCon=     1 RMS=9.04D-06 Max=2.39D-04 NDo=     1
 LinEq1:  Iter=  7 NonCon=     1 RMS=2.58D-06 Max=3.43D-05 NDo=     1
 LinEq1:  Iter=  8 NonCon=     1 RMS=1.11D-06 Max=3.16D-05 NDo=     1
 LinEq1:  Iter=  9 NonCon=     1 RMS=2.82D-07 Max=2.59D-06 NDo=     1
 LinEq1:  Iter= 10 NonCon=     1 RMS=6.53D-08 Max=8.28D-07 NDo=     1
 LinEq1:  Iter= 11 NonCon=     1 RMS=1.80D-08 Max=3.39D-07 NDo=     1
 LinEq1:  Iter= 12 NonCon=     1 RMS=5.19D-09 Max=3.70D-08 NDo=     1
 LinEq1:  Iter= 13 NonCon=     1 RMS=1.92D-09 Max=3.64D-08 NDo=     1
 LinEq1:  Iter= 14 NonCon=     1 RMS=5.19D-10 Max=4.32D-09 NDo=     1
 LinEq1:  Iter= 15 NonCon=     1 RMS=1.79D-10 Max=3.09D-09 NDo=     1
 LinEq1:  Iter= 16 NonCon=     0 RMS=3.21D-11 Max=3.69D-10 NDo=     1
 Linear equations converged to 1.000D-10 1.000D-09 after    16 iterations.
 End of Minotr F.D. properties file   721 does not exist.
 End of Minotr F.D. properties file   722 does not exist.
 End of Minotr F.D. properties file   788 does not exist.
 Calling FoFJK, ICntrl=  10002127 FMM=F ISym2X=0 I1Cent= 0 IOpClX= 0 NMat=1 NMatS=1 NMatT=0.
 ***** Axes restored to original set *****
 -------------------------------------------------------------------
 Center     Atomic                   Forces (Hartrees/Bohr)
 Number     Number              X              Y              Z
 -------------------------------------------------------------------
      1        6          -0.007657719   -0.004672527   -0.011810774
      2        6           0.002681961   -0.003019821    0.007355785
      3        1          -0.000673286    0.003559509   -0.003787165
      4        8          -0.000471547   -0.004835479    0.002420632
      5        6           0.000238133    0.004837455   -0.002867757
      6        1           0.001706708    0.006209894   -0.000942033
      7        8           0.002916963   -0.001222806    0.006574095
      8        1           0.001045928    0.002738249    0.000161017
      9        1          -0.000646259   -0.002633747    0.000548657
     10        8          -0.001208913   -0.003586419    0.000111779
     11        1           0.002426560    0.000823577    0.000409438
     12        1          -0.000358529    0.001802114    0.001826324
 -------------------------------------------------------------------
 Cartesian Forces:  Max     0.011810774 RMS     0.003795611

 GradGradGradGradGradGradGradGradGradGradGradGradGradGradGradGradGradGrad
 Berny optimization.
 Using GEDIIS/GDIIS optimizer.
 FormGI is forming the generalized inverse of G from B-inverse, IUseBI=4.
 Internal  Forces:  Max     0.012880623 RMS     0.003215112
 Search for a local minimum.
 Step number   3 out of a maximum of   49
 All quantities printed in internal units (Hartrees-Bohrs-Radians)
 Mixed Optimization -- RFO/linear search
 Update second derivatives using D2CorX and points    1    3    2
 DE=  7.13D-04 DEPred=-1.22D-03 R=-5.83D-01
 Trust test=-5.83D-01 RLast= 5.04D-01 DXMaxT set to 2.52D-01
 ITU= -1  1  0
 Use linear search instead of GDIIS.
     Eigenvalues ---    0.00230   0.00230   0.01075   0.01112   0.01112
     Eigenvalues ---    0.01573   0.02035   0.02127   0.02695   0.02959
     Eigenvalues ---    0.05289   0.13613   0.15593   0.16000   0.16000
     Eigenvalues ---    0.16050   0.16613   0.21948   0.22019   0.23159
     Eigenvalues ---    0.33229   0.34240   0.35662   0.36501   0.49221
     Eigenvalues ---    0.50398   0.52522   0.52536   0.61109   0.92845
 RFO step:  Lambda=-5.66272401D-04 EMin= 2.29999587D-03
 Quartic linear search produced a step of -0.65695.
 Iteration  1 RMS(Cart)=  0.12559057 RMS(Int)=  0.02438915
 Iteration  2 RMS(Cart)=  0.08965705 RMS(Int)=  0.00322971
 Iteration  3 RMS(Cart)=  0.00566911 RMS(Int)=  0.00089719
 Iteration  4 RMS(Cart)=  0.00000232 RMS(Int)=  0.00089719
 Iteration  5 RMS(Cart)=  0.00000000 RMS(Int)=  0.00089719
 Variable       Old X    -DE/DX   Delta X   Delta X   Delta X     New X
                                 (Linear)    (Quad)   (Total)
    R1        2.59922  -0.01288  -0.01802  -0.00208  -0.02010   2.57913
    R2        2.08690  -0.00523  -0.00757  -0.00580  -0.01337   2.07353
    R3        2.56021   0.00149   0.00962  -0.01019  -0.00057   2.55964
    R4        2.77386  -0.00326   0.00858  -0.01735  -0.00876   2.76510
    R5        2.07296  -0.00293  -0.00691   0.00034  -0.00656   2.06639
    R6        1.84599   0.00280   0.00653  -0.00148   0.00510   1.85109
    R7        2.34469  -0.00647  -0.00677   0.00051  -0.00626   2.33843
    R8        2.11125  -0.00266  -0.00718   0.00068  -0.00650   2.10475
    R9        3.30542   0.00202  -0.05680   0.07116   0.01433   3.31976
   R10        1.81943   0.00250   0.00585  -0.00180   0.00405   1.82348
   R11        1.81943   0.00250   0.00585  -0.00181   0.00405   1.82348
    A1        2.10593  -0.00136   0.01316  -0.01376  -0.00060   2.10532
    A2        2.13620   0.00354   0.00506   0.00649   0.01155   2.14775
    A3        2.04106  -0.00218  -0.01822   0.00727  -0.01095   2.03011
    A4        2.16152  -0.00283  -0.00955  -0.00114  -0.01068   2.15083
    A5        2.06019   0.00129   0.02322  -0.01833   0.00489   2.06508
    A6        2.06148   0.00154  -0.01367   0.01946   0.00580   2.06727
    A7        1.88576   0.00484   0.00282   0.00551   0.00834   1.89410
    A8        2.17586  -0.00473  -0.01331  -0.00645  -0.01976   2.15609
    A9        2.02155   0.00155   0.00359   0.00150   0.00509   2.02663
   A10        2.08578   0.00318   0.00972   0.00495   0.01468   2.10046
   A11        2.19224   0.00014   0.01211  -0.01236   0.00025   2.19249
   A12        2.19372   0.00038   0.01099  -0.01108  -0.00044   2.19328
   A13        1.84952  -0.00088  -0.02044   0.01293  -0.00679   1.84272
   A14        3.39836  -0.00484  -0.30007  -0.04286  -0.34441   3.05395
   A15        3.14087   0.00000   0.00068  -0.00050   0.00018   3.14105
    D1        3.14158  -0.00000   0.00000  -0.00001  -0.00000   3.14158
    D2       -0.00001   0.00000   0.00000  -0.00001  -0.00000  -0.00001
    D3        0.00001  -0.00000  -0.00001   0.00001   0.00000   0.00002
    D4       -3.14158  -0.00000  -0.00001   0.00001   0.00000  -3.14158
    D5       -3.14152   0.00000  -0.00004   0.00005   0.00001  -3.14152
    D6        0.00009  -0.00000  -0.00005   0.00007   0.00001   0.00010
    D7       -3.14157  -0.00000  -0.00002  -0.00002  -0.00004   3.14158
    D8       -0.00002   0.00000   0.00002   0.00002   0.00003   0.00001
    D9        0.00003  -0.00000  -0.00002  -0.00002  -0.00004  -0.00001
   D10        3.14158   0.00000   0.00001   0.00001   0.00003  -3.14158
   D11        1.81998  -0.00033  -0.08081   0.00641  -0.07151   1.74847
   D12       -1.82117   0.00033   0.07999  -0.00504   0.07206  -1.74911
   D13        2.82822  -0.00109   0.00963  -0.03470  -0.02166   2.80656
         Item               Value     Threshold  Converged?
 Maximum Force            0.012881     0.000450     NO 
 RMS     Force            0.003215     0.000300     NO 
 Maximum Displacement     0.509993     0.001800     NO 
 RMS     Displacement     0.211788     0.001200     NO 
 Predicted change in Energy=-4.765458D-04
 GradGradGradGradGradGradGradGradGradGradGradGradGradGradGradGradGradGrad

                          Input orientation:                          
 ---------------------------------------------------------------------
 Center     Atomic      Atomic             Coordinates (Angstroms)
 Number     Number       Type             X           Y           Z
 ---------------------------------------------------------------------
      1          6           0       -0.369480    0.996399    0.050065
      2          6           0       -1.083000    0.468412   -0.986679
      3          1           0       -0.133905    0.389121    0.933078
      4          8           0        0.084883    2.272383    0.060183
      5          6           0       -1.428817    1.225657   -2.190020
      6          1           0        0.565919    2.424786    0.899770
      7          8           0       -2.075338    0.752623   -3.133160
      8          1           0       -1.411954   -0.571846   -0.913410
      9          1           0       -1.074484    2.281035   -2.223912
     10          8           0        1.396992    2.552023    2.442255
     11          1           0        2.352431    2.510819    2.570935
     12          1           0        1.046227    2.971293    3.237424
 ---------------------------------------------------------------------
                    Distance matrix (angstroms):
                    1          2          3          4          5
     1  C    0.000000
     2  C    1.364816   0.000000
     3  H    1.097267   2.143021   0.000000
     4  O    1.354505   2.390436   2.087220   0.000000
     5  C    2.488521   1.463228   3.482862   2.906947   0.000000
     6  H    1.907160   3.178840   2.152857   0.979555   3.868292
     7  O    3.619710   2.381783   4.520574   4.144112   1.237442
     8  H    2.115285   1.093488   2.442619   3.358280   2.204775
     9  H    2.705234   2.194634   3.798765   2.561503   1.113788
    10  O    3.356034   4.716926   3.049493   2.733879   5.585912
    11  H    4.007125   5.350723   3.655960   3.391534   6.214191
    12  H    4.007953   5.351736   3.656546   3.392273   6.215323
                    6          7          8          9         10
     6  H    0.000000
     7  O    5.102636   0.000000
     8  H    4.022363   2.668630   0.000000
     9  H    3.531143   2.040707   3.157567   0.000000
    10  O    1.756739   6.810299   5.376730   5.287225   0.000000
    11  H    2.447820   7.431897   5.984486   5.898059   0.964946
    12  H    2.448263   7.433102   5.985475   5.899158   0.964944
                   11         12
    11  H    0.000000
    12  H    1.537015   0.000000
 Stoichiometry    C3H6O3
 Framework group  C1[X(C3H6O3)]
 Deg. of freedom    30
 Full point group                 C1      NOp   1
 Largest Abelian subgroup         C1      NOp   1
 Largest concise Abelian subgroup C1      NOp   1
                         Standard orientation:                         
 ---------------------------------------------------------------------
 Center     Atomic      Atomic             Coordinates (Angstroms)
 Number     Number       Type             X           Y           Z
 ---------------------------------------------------------------------
      1          6           0       -0.259759    0.607565    0.000266
      2          6           0        1.096649    0.758821    0.000030
      3          1           0       -0.919943    1.484007    0.000338
      4          8           0       -0.868241   -0.602573    0.000458
      5          6           0        2.029280   -0.368671   -0.000058
      6          1           0       -1.837853   -0.463360    0.000538
      7          8           0        3.259804   -0.237999   -0.000285
      8          1           0        1.505521    1.772990   -0.000098
      9          1           0        1.571192   -1.383895    0.000065
     10          8           0       -3.548232   -0.062441   -0.000268
     11          1           0       -4.130641   -0.086078   -0.769268
     12          1           0       -4.131947   -0.085847    0.767746
 ---------------------------------------------------------------------
 Rotational constants (GHZ):          17.7522129           1.0272164           0.9754912
 Standard basis: Aug-CC-pVDZ (5D, 7F)
 There are   204 symmetry adapted cartesian basis functions of A   symmetry.
 There are   192 symmetry adapted basis functions of A   symmetry.
   192 basis functions,   324 primitive gaussians,   204 cartesian basis functions
    24 alpha electrons       24 beta electrons
       nuclear repulsion energy       212.8312108338 Hartrees.
 NAtoms=   12 NActive=   12 NUniq=   12 SFac= 1.00D+00 NAtFMM=   60 NAOKFM=F Big=F
 Integral buffers will be    131072 words long.
 Raffenetti 1 integral format.
 Two-electron integral symmetry is turned on.
 One-electron integrals computed using PRISM.
 NBasis=   192 RedAO= T EigKep=  2.86D-05  NBF=   192
 NBsUse=   192 1.00D-06 EigRej= -1.00D+00 NBFU=   192
 Lowest energy guess from the checkpoint file:  "/scr/Gau-26089.chk"
 B after Tr=     0.000000   -0.000000    0.000000
         Rot=    0.999998    0.000110    0.000003    0.001953 Ang=   0.22 deg.
 B after Tr=     0.000000   -0.000000    0.000000
         Rot=    0.999984   -0.000125   -0.000001   -0.005582 Ang=  -0.64 deg.
 Keep R1 ints in memory in canonical form, NReq=180596830.
 Requested convergence on RMS density matrix=1.00D-08 within 128 cycles.
 Requested convergence on MAX density matrix=1.00D-06.
 Requested convergence on             energy=1.00D-06.
 No special actions if energy rises.
 SCF Done:  E(RHF) =  -341.711693314     A.U. after   11 cycles
            NFock= 11  Conv=0.96D-08     -V/T= 2.0021
 ExpMin= 2.97D-02 ExpMax= 1.17D+04 ExpMxC= 4.01D+02 IAcc=3 IRadAn=         5 AccDes= 0.00D+00
 HarFok:  IExCor=  205 AccDes= 0.00D+00 IRadAn=         5 IDoV=-2 UseB2=F ITyADJ=14
 ICtDFT= 12500011 ScaDFX=  1.000000  1.000000  1.000000  1.000000
 Range of M.O.s used for correlation:     7   192
 NBasis=   192 NAE=    24 NBE=    24 NFC=     6 NFV=     0
 NROrb=    186 NOA=    18 NOB=    18 NVA=   168 NVB=   168

 **** Warning!!: The largest alpha MO coefficient is  0.48838287D+02

 Fully direct method using O(ONN) memory.
 JobTyp=1 Pass  1:  I=   7 to  24 NPSUse= 40 ParTrn=T ParDer=T DoDerP=T.
 Spin components of T(2) and E(2):
     alpha-alpha T2 =       0.4240200616D-01 E2=     -0.1335778614D+00
     alpha-beta  T2 =       0.2353257545D+00 E2=     -0.7568455714D+00
     beta-beta   T2 =       0.4240200616D-01 E2=     -0.1335778614D+00
 ANorm=    0.1148969002D+01
 E2 =    -0.1024001294D+01 EUMP2 =    -0.34273569460817D+03
          IDoAtm=111111111111
          Differentiating once with respect to electric field.
                with respect to dipole field.
          Differentiating once with respect to nuclear coordinates.
 Keep R1 ints in memory in canonical form, NReq=180611077.
          There are     1 degrees of freedom in the 1st order CPHF.  IDoFFX=0 NUNeed=     1.
 LinEq1:  Iter=  0 NonCon=     1 RMS=4.79D-03 Max=1.27D-01 NDo=     1
 AX will form     1 AO Fock derivatives at one time.
 LinEq1:  Iter=  1 NonCon=     1 RMS=1.43D-03 Max=1.88D-02 NDo=     1
 LinEq1:  Iter=  2 NonCon=     1 RMS=5.31D-04 Max=1.13D-02 NDo=     1
 LinEq1:  Iter=  3 NonCon=     1 RMS=1.84D-04 Max=3.45D-03 NDo=     1
 LinEq1:  Iter=  4 NonCon=     1 RMS=6.66D-05 Max=1.17D-03 NDo=     1
 LinEq1:  Iter=  5 NonCon=     1 RMS=2.40D-05 Max=3.88D-04 NDo=     1
 LinEq1:  Iter=  6 NonCon=     1 RMS=8.64D-06 Max=2.34D-04 NDo=     1
 LinEq1:  Iter=  7 NonCon=     1 RMS=2.49D-06 Max=3.84D-05 NDo=     1
 LinEq1:  Iter=  8 NonCon=     1 RMS=1.07D-06 Max=3.13D-05 NDo=     1
 LinEq1:  Iter=  9 NonCon=     1 RMS=2.68D-07 Max=2.45D-06 NDo=     1
 LinEq1:  Iter= 10 NonCon=     1 RMS=6.23D-08 Max=7.76D-07 NDo=     1
 LinEq1:  Iter= 11 NonCon=     1 RMS=1.97D-08 Max=4.17D-07 NDo=     1
 LinEq1:  Iter= 12 NonCon=     1 RMS=6.31D-09 Max=5.44D-08 NDo=     1
 LinEq1:  Iter= 13 NonCon=     1 RMS=2.05D-09 Max=3.64D-08 NDo=     1
 LinEq1:  Iter= 14 NonCon=     1 RMS=5.31D-10 Max=5.26D-09 NDo=     1
 LinEq1:  Iter= 15 NonCon=     1 RMS=1.69D-10 Max=2.84D-09 NDo=     1
 LinEq1:  Iter= 16 NonCon=     0 RMS=3.02D-11 Max=3.29D-10 NDo=     1
 Linear equations converged to 1.000D-10 1.000D-09 after    16 iterations.
 End of Minotr F.D. properties file   721 does not exist.
 End of Minotr F.D. properties file   722 does not exist.
 End of Minotr F.D. properties file   788 does not exist.
 Calling FoFJK, ICntrl=  10002127 FMM=F ISym2X=0 I1Cent= 0 IOpClX= 0 NMat=1 NMatS=1 NMatT=0.
 ***** Axes restored to original set *****
 -------------------------------------------------------------------
 Center     Atomic                   Forces (Hartrees/Bohr)
 Number     Number              X              Y              Z
 -------------------------------------------------------------------
      1        6          -0.001640625   -0.001698447   -0.002042929
      2        6           0.001079675   -0.001115819    0.002894592
      3        1           0.000176567    0.000570368   -0.000050288
      4        8           0.000918815    0.000812258    0.001246741
      5        6          -0.000470404    0.000948995   -0.001587427
      6        1          -0.000871740    0.000123541   -0.001804387
      7        8           0.000401329    0.000415799    0.000503163
      8        1           0.000207226    0.000920562   -0.000229677
      9        1          -0.000284818   -0.000754776   -0.000035102
     10        8          -0.000232196   -0.001417171    0.000524693
     11        1           0.000710451    0.000473479    0.000111265
     12        1           0.000005719    0.000721211    0.000469357
 -------------------------------------------------------------------
 Cartesian Forces:  Max     0.002894592 RMS     0.001022404

 GradGradGradGradGradGradGradGradGradGradGradGradGradGradGradGradGradGrad
 Berny optimization.
 Using GEDIIS/GDIIS optimizer.
 FormGI is forming the generalized inverse of G from B-inverse, IUseBI=4.
 Internal  Forces:  Max     0.001822260 RMS     0.000577076
 Search for a local minimum.
 Step number   4 out of a maximum of   49
 All quantities printed in internal units (Hartrees-Bohrs-Radians)
 Mixed Optimization -- En-DIIS/RFO-DIIS
 Update second derivatives using D2CorX and points    1    3    2    4
 DE= -6.10D-04 DEPred=-4.77D-04 R= 1.28D+00
 TightC=F SS=  1.41D+00  RLast= 1.84D-01 DXNew= 4.2426D-01 5.5088D-01
 Trust test= 1.28D+00 RLast= 1.84D-01 DXMaxT set to 4.24D-01
 ITU=  1 -1  1  0
 Use linear search instead of GDIIS.
     Eigenvalues ---    0.00230   0.00230   0.01062   0.01112   0.01112
     Eigenvalues ---    0.01523   0.02034   0.02127   0.02696   0.02959
     Eigenvalues ---    0.04514   0.14632   0.15732   0.15999   0.16028
     Eigenvalues ---    0.16068   0.16747   0.21925   0.22068   0.22965
     Eigenvalues ---    0.33541   0.35442   0.35958   0.36460   0.49114
     Eigenvalues ---    0.51508   0.52522   0.52603   0.60008   0.92742
 RFO step:  Lambda=-9.07524089D-05 EMin= 2.29998490D-03
 Quartic linear search produced a step of  0.03483.
 Iteration  1 RMS(Cart)=  0.00881682 RMS(Int)=  0.00014055
 Iteration  2 RMS(Cart)=  0.00011286 RMS(Int)=  0.00010971
 Iteration  3 RMS(Cart)=  0.00000001 RMS(Int)=  0.00010971
 Variable       Old X    -DE/DX   Delta X   Delta X   Delta X     New X
                                 (Linear)    (Quad)   (Total)
    R1        2.57913  -0.00182   0.00026  -0.00232  -0.00206   2.57707
    R2        2.07353  -0.00032  -0.00006  -0.00082  -0.00088   2.07265
    R3        2.55964   0.00085  -0.00053   0.00046  -0.00007   2.55957
    R4        2.76510   0.00132  -0.00076   0.00243   0.00167   2.76677
    R5        2.06639  -0.00095   0.00014  -0.00240  -0.00226   2.06413
    R6        1.85109  -0.00080  -0.00017  -0.00228  -0.00245   1.84864
    R7        2.33843  -0.00075   0.00014  -0.00040  -0.00026   2.33817
    R8        2.10475  -0.00080   0.00015  -0.00208  -0.00192   2.10283
    R9        3.31976   0.00118   0.00351   0.02430   0.02782   3.34757
   R10        1.82348   0.00070  -0.00017   0.00094   0.00077   1.82425
   R11        1.82348   0.00070  -0.00017   0.00094   0.00077   1.82425
    A1        2.10532   0.00018  -0.00072   0.00024  -0.00048   2.10484
    A2        2.14775   0.00070   0.00013   0.00343   0.00357   2.15132
    A3        2.03011  -0.00088   0.00058  -0.00367  -0.00309   2.02702
    A4        2.15083  -0.00009   0.00013   0.00013   0.00026   2.15110
    A5        2.06508   0.00024  -0.00106  -0.00114  -0.00220   2.06287
    A6        2.06727  -0.00014   0.00093   0.00101   0.00194   2.06921
    A7        1.89410  -0.00004   0.00014  -0.00063  -0.00049   1.89361
    A8        2.15609   0.00018   0.00002   0.00139   0.00141   2.15750
    A9        2.02663  -0.00002  -0.00001  -0.00012  -0.00013   2.02650
   A10        2.10046  -0.00016  -0.00000  -0.00127  -0.00127   2.09919
   A11        2.19249  -0.00003  -0.00063  -0.00605  -0.00706   2.18543
   A12        2.19328   0.00009  -0.00060  -0.00513  -0.00612   2.18716
   A13        1.84272  -0.00024   0.00085  -0.00400  -0.00355   1.83917
   A14        3.05395  -0.00024   0.00391  -0.01468  -0.01073   3.04322
   A15        3.14105   0.00001  -0.00003   0.00246   0.00243   3.14347
    D1        3.14158   0.00000  -0.00000   0.00002   0.00002  -3.14159
    D2       -0.00001   0.00000  -0.00000   0.00002   0.00002   0.00000
    D3        0.00002  -0.00000   0.00000  -0.00001  -0.00001   0.00000
    D4       -3.14158  -0.00000   0.00000  -0.00002  -0.00002  -3.14159
    D5       -3.14152  -0.00000   0.00000  -0.00000   0.00000  -3.14152
    D6        0.00010  -0.00000   0.00000  -0.00003  -0.00003   0.00008
    D7        3.14158   0.00000  -0.00000   0.00009   0.00009  -3.14151
    D8        0.00001  -0.00000   0.00000  -0.00010  -0.00010  -0.00008
    D9       -0.00001   0.00000  -0.00000   0.00009   0.00009   0.00008
   D10       -3.14158  -0.00000   0.00000  -0.00009  -0.00009   3.14151
   D11        1.74847   0.00028   0.00179   0.02433   0.02606   1.77453
   D12       -1.74911  -0.00028  -0.00173  -0.02359  -0.02526  -1.77437
   D13        2.80656  -0.00049  -0.00127  -0.04569  -0.04688   2.75968
         Item               Value     Threshold  Converged?
 Maximum Force            0.001822     0.000450     NO 
 RMS     Force            0.000577     0.000300     NO 
 Maximum Displacement     0.025770     0.001800     NO 
 RMS     Displacement     0.008797     0.001200     NO 
 Predicted change in Energy=-4.462679D-05
 GradGradGradGradGradGradGradGradGradGradGradGradGradGradGradGradGradGrad

                          Input orientation:                          
 ---------------------------------------------------------------------
 Center     Atomic      Atomic             Coordinates (Angstroms)
 Number     Number       Type             X           Y           Z
 ---------------------------------------------------------------------
      1          6           0       -0.368980    1.000874    0.045711
      2          6           0       -1.083087    0.469407   -0.987410
      3          1           0       -0.131574    0.396356    0.929546
      4          8           0        0.085935    2.276624    0.055582
      5          6           0       -1.432174    1.222794   -2.193301
      6          1           0        0.566827    2.428142    0.893898
      7          8           0       -2.079677    0.747525   -3.134460
      8          1           0       -1.409347   -0.570022   -0.908386
      9          1           0       -1.079546    2.277541   -2.231011
     10          8           0        1.397640    2.538386    2.454559
     11          1           0        2.354606    2.512344    2.578835
     12          1           0        1.048850    2.972734    3.242969
 ---------------------------------------------------------------------
                    Distance matrix (angstroms):
                    1          2          3          4          5
     1  C    0.000000
     2  C    1.363725   0.000000
     3  H    1.096799   2.141363   0.000000
     4  O    1.354468   2.391752   2.084833   0.000000
     5  C    2.488534   1.464112   3.482345   2.910788   0.000000
     6  H    1.905846   3.177763   2.148764   0.978258   3.870357
     7  O    3.619966   2.383351   4.520461   4.147817   1.237304
     8  H    2.111961   1.092293   2.438151   3.356858   2.205837
     9  H    2.705226   2.194517   3.798240   2.566487   1.112771
    10  O    3.359679   4.720364   3.041785   2.746667   5.598324
    11  H    4.014870   5.358118   3.657684   3.401358   6.227031
    12  H    4.015088   5.357976   3.658285   3.401648   6.226620
                    6          7          8          9         10
     6  H    0.000000
     7  O    5.104520   0.000000
     8  H    4.017770   2.672205   0.000000
     9  H    3.535291   2.038978   3.157012   0.000000
    10  O    1.771459   6.821734   5.371292   5.306511   0.000000
    11  H    2.458100   7.444407   5.985736   5.914656   0.965353
    12  H    2.459077   7.443846   5.985616   5.914205   0.965351
                   11         12
    11  H    0.000000
    12  H    1.535588   0.000000
 Stoichiometry    C3H6O3
[...]
 ,-0.00000346,-0.00000761,-0.00001137,-0.00027933,-0.00013808,-0.000162
 58,0.00004205,-0.00034295,0.00015124,0.00051872,-0.00001886,0.00072089
 ,0.00020887,0.00021345,0.00015078,-0.00003896,0.00004350,0.00003604,-0
 .00057088,0.00013532,-0.00094361,0.00194483,0.00776018,-0.00263066,-0.
 00139573,-0.00176677,-0.00118309,0.00009523,-0.00128617,0.00094931,-0.
 00267918,-0.00601051,-0.00645185,0.00087281,-0.00029128,0.00171671,-0.
 01299295,0.01172352,0.02558651,-0.00075407,-0.00036047,-0.00116140,-0.
 00038491,-0.00020890,-0.00031608,0.00003171,-0.00016448,0.00009341,0.0
 3490706,0.00098436,0.00332046,0.00001991,-0.00039850,-0.00058406,-0.00
 050045,0.00003464,-0.00042449,0.00040868,-0.00364964,-0.00096004,-0.00
 462997,0.00022209,0.00003977,0.00048020,0.00995139,-0.01218739,0.00711
 927,-0.00019515,-0.00015000,-0.00030533,-0.00002868,-0.00009510,-0.000
 09490,-0.00000975,-0.00006974,0.00005907,-0.01796154,0.00558369,0.0020
 6063,0.01332256,-0.00462488,-0.00212968,-0.00318054,-0.00214887,0.0000
 3351,-0.00218816,0.00164744,-0.00809203,-0.00926024,-0.00676341,0.0013
 5773,-0.00052991,0.00314110,0.02685779,0.01054150,0.01527175,-0.001272
 39,-0.00062939,-0.00210586,-0.00043932,-0.00044911,-0.00070544,-0.0000
 1187,-0.00024529,0.00018524,-0.01979351,-0.00360368,0.01491049,-0.0002
 9420,-0.00057443,-0.00024246,0.00014679,-0.00005091,0.00034085,0.00001
 091,-0.00003483,0.00007441,0.00099861,0.00084200,0.00156982,-0.0000531
 5,0.00012752,-0.00026947,-0.00415821,-0.00191279,-0.00538850,0.0000854
 0,0.00001869,0.00017866,0.00000652,0.00004670,0.00001552,-0.00000976,-
 0.00000391,-0.00001682,-0.01040035,-0.00107789,0.00282114,0.01270174,-
 0.00003470,0.00021126,-0.00013086,0.00001059,-0.00013054,0.00009293,-0
 .00001894,-0.00012650,0.00003738,0.00041065,0.00006559,0.00062533,-0.0
 0000525,0.00005265,-0.00006076,0.00109089,-0.00252743,0.00026684,0.000
 01856,-0.00000217,0.00003846,0.00000224,-0.00000946,-0.00000986,0.0000
 0033,-0.00000308,0.00001669,-0.00310646,0.00772809,0.00123653,0.001875
 88,-0.00596370,0.00065481,0.00208208,-0.00052868,-0.00034678,-0.000440
 37,-0.00035942,-0.00003896,-0.00029876,0.00027928,-0.00103459,-0.00177
 951,-0.00180691,0.00022307,-0.00008006,0.00043361,-0.00314895,-0.00019
 187,0.01182273,-0.00020062,-0.00008741,-0.00030827,-0.00010137,-0.0000
 3705,-0.00008333,0.00001488,-0.00003837,0.00005099,0.00839517,0.001625
 18,-0.01381167,-0.00230368,-0.00183722,0.00291782,0.00044789,0.0019622
 9,-0.00027324,-0.00032028,-0.00036934,-0.00036924,0.00002241,-0.000295
 00,0.00016053,-0.00165610,-0.00142798,-0.00138220,0.00017296,-0.000084
 90,0.00041758,0.00797592,-0.00337627,0.00724383,-0.00017077,-0.0000766
 6,-0.00029194,-0.00004701,-0.00006366,-0.00008918,0.00001824,-0.000028
 92,0.00005273,-0.00924447,0.01212868,-0.00139199,0.00096568,-0.0002438
 0,-0.00211298,0.00183552,-0.00025021,-0.00069851,-0.00014200,0.0001660
 0,-0.00001536,0.00034893,-0.00002500,-0.00003443,0.00000849,0.00129645
 ,0.00088851,0.00169422,-0.00011503,0.00013836,-0.00028834,-0.00549580,
 -0.00123146,-0.00302551,0.00011544,0.00002913,0.00020135,0.00001494,0.
 00003178,0.00003019,0.00000079,0.00000203,-0.00001307,0.01167291,-0.00
 220120,-0.00501429,0.00074396,0.00070528,0.00108336,-0.00812445,0.0023
 8586,-0.00002207,0.00089827,-0.00036275,-0.00008864,-0.00028753,-0.000
 00788,0.00007482,-0.00021062,0.00017656,-0.00034165,-0.00037908,0.0000
 4560,0.00003471,0.00005398,0.00012207,0.00433219,-0.00425628,-0.001637
 60,-0.00004311,-0.00004905,-0.00008338,0.00000519,-0.00000885,-0.00007
 109,-0.00000356,-0.00002408,0.00001811,-0.00520453,-0.00057796,-0.0049
 9590,0.00322054,-0.00027547,0.00139385,-0.00196390,0.00511667,0.005402
 39,-0.00036125,0.00048296,0.00062693,-0.00004421,0.00028364,-0.0005334
 2,-0.00003803,-0.00003073,0.00028807,-0.00001713,0.00012499,0.00016202
 ,-0.00007628,-0.00033610,-0.00004744,0.00016613,-0.00047238,0.00012639
 ,-0.00036560,-0.00006605,-0.00003703,0.00015536,-0.00007040,0.00000027
 ,-0.00005006,0.00001655,-0.00004996,-0.00009653,-0.00008696,0.00012480
 ,-0.00009292,0.00003901,-0.00000374,-0.00000317,0.00005335,-0.00009549
 ,-0.00003226,-0.00009901,0.00023379,-0.00000234,0.00003310,-0.00016152
 ,-0.00007212,0.00010805,-0.00025678,0.00027452,-0.00070479,0.00003450,
 0.00008194,0.00011043,0.00009680,-0.00009534,0.00005353,-0.00002466,0.
 00139900,-0.00041987,-0.00107222,0.00024365,0.00018719,0.00022355,0.00
 029910,-0.00004574,0.00004309,-0.00016723,0.00203332,-0.00284726,-0.00
 016165,-0.00027130,0.00038847,0.00004901,0.00006007,0.00004702,0.00003
 995,0.00002476,-0.00004390,0.01075065,0.00259096,0.01455927,0.00004546
 ,0.00002269,-0.00002430,0.00013892,0.00021446,0.00011649,0.00000827,0.
 00001292,0.00001880,-0.00004158,-0.00010684,-0.00002578,-0.00079234,-0
 .00005538,-0.00012967,-0.00004149,0.00015872,-0.00024179,0.00035881,0.
 00000259,-0.00002673,-0.00000732,0.00002029,0.00008785,-0.00004247,-0.
 00054024,0.00032310,0.00004150,0.00020647,0.00006416,-0.00003768,0.000
 20624,0.00005194,0.00001970,0.00002702,0.00002742,-0.00008035,-0.00024
 688,-0.00001310,-0.00037016,-0.00072574,-0.00125653,0.00007469,0.00068
 777,-0.00011262,-0.00009545,-0.00016360,-0.00006680,0.00005477,-0.0000
 8705,0.00008643,-0.00157428,-0.00197263,-0.01167479,0.00006235,0.00000
 990,0.00009736,0.00085295,-0.00006794,0.00005260,-0.00023738,-0.000023
 27,-0.00006643,-0.00001117,-0.00003673,-0.00004892,-0.00002781,-0.0015
 9328,0.00406227,-0.00244358,0.00001720,0.00001504,0.00003369,0.0017755
 7,-0.00511952,0.00038158,0.00119771,-0.00017114,-0.00013245,-0.0002774
 5,-0.00009813,0.00005726,-0.00011169,0.00022953,-0.01193672,-0.0031785
 8,-0.01623513,0.00008856,0.00003286,0.00015474,0.01350488,0.00246333,0
 .01823973,-0.00005064,-0.00001769,-0.00006435,-0.00011665,-0.00000703,
 -0.00012148,-0.00000374,-0.00001062,-0.00001298,0.00004044,0.00005726,
 0.00003322,0.00046285,0.00025320,0.00042511,-0.00004100,-0.00000661,-0
 .00006547,-0.00036527,0.00000870,0.00000179,0.00000102,-0.00004949,0.0
 0012751,-0.00015411,-0.00000103,0.00000657,0.00000646,0.00001194,0.000
 01147,0.00003766,0.00030697,-0.00006267,0.00045579,-0.00002381,-0.0000
 0493,-0.00004387,-0.00023569,-0.00004806,-0.00006372,-0.00010648,-0.00
 010421,0.00004415,0.00007237,-0.00005618,-0.00000825,-0.00000838,-0.00
 000324,0.00004844,0.00009540,0.00003032,0.00034984,0.00026835,0.000858
 03,-0.00005401,-0.00000906,-0.00009959,-0.00030152,-0.00027343,-0.0006
 3012,-0.00004110,0.00002672,-0.00002267,-0.00000228,0.00000215,0.00006
 129,0.00000496,-0.00001135,-0.00001263,0.00001720,0.00001910,0.0000141
 3,0.00004549,-0.00003057,0.00000725,-0.00000394,-0.00000830,-0.0000338
 4,0.00001065,0.00000239,-0.00000942,-0.00002165,-0.00001698,-0.0000155
 4,-0.00005888,0.00000245,0.00000497,0.00002723,-0.00000949,0.00000536,
 -0.00001353,0.00001577,0.00001104,0.00003651,0.00001313,-0.00003765,0.
 00004367,-0.00001799,0.,-0.00002080,-0.00000728,0.00000707,0.00000478,
 0.00000748,0.00003223,0.00002473,0.00005772,-0.00002972,0.00007283,-0.
 00005712,0.00003779,-0.00001548,-0.00001173,-0.00000285,0.00000939,0.0
 0001511,0.00000416,-0.00003056,0.00002463,0.00005582,-0.00002676,-0.00
 000537,-0.00003179,-0.00001065,0.00001101,-0.00001693,-0.00001876,-0.0
 0000571,-0.00003801,0.00001839,-0.00004974,-0.00001540,0.00005687,-0.0
 0000485,0.00008682,0.00000523,0.00000033,-0.00000495,-0.00002806,0.000
 01441,-0.00000706,0.00008576,0.00015852,-0.00002636,-0.00001708,0.0000
 0978,0.00000783,0.00003887,-0.00002731,-0.00004649,-0.00001735,0.00000
 896,-0.00001053,-0.00015721,0.00000502,0.00002281,0.00004136,0.0000584
 8,-0.00007433,-0.00001538,0.00000429,-0.00000191,0.00001150,0.00001192
 ,-0.00002666,0.00003901,0.00005150,0.00004660,-0.00000885,-0.00000443,
 -0.00001350,-0.00002543,-0.00002012,-0.00002808,-0.00004108,0.00000206
 ,-0.00000435,-0.00001410,-0.00010442,0.00007997,-0.00001625,-0.0000010
 6,-0.00000235,-0.00002345,-0.00002996,-0.00002297,0.00000567,0.0000103
 6,-0.00000202,-0.00001598,-0.00000140,-0.00003386,-0.00005571,0.000094
 07,0.00019716,0.00002500,0.00000599,0.00001241,0.00006742,-0.00006278,
 -0.00006139,-0.00000114,-0.00002548,-0.00000360,0.00001894,0.00000830,
 -0.00009124,-0.00029849,0.00016849,-0.00001828,0.00014981,-0.00013707,
 -0.00001236,-0.00019285,-0.00005067,0.00003495,0.00000577,0.00001485,0
 .00066776,-0.00000097,0.00001026,-0.00003933,-0.00043230,0.00055080,-0
 .00011169,0.00001737,-0.00000258,0.00001539,-0.00000280,-0.00000475,-0
 .00002289,0.00006195,-0.00002471,-0.00002226,3.10190086,0.00022419,0.0
 0031790,-0.00001644,-0.00005053,-0.00002342,0.00005546,-0.00005821,-0.
 00023341,-0.00008695,-0.00017174,-0.00016249,-0.00046116,-0.00000669,-
 0.00000263,-0.00000115,0.00017524,-0.00031601,0.00018483,-0.00000395,-
 0.00000711,0.00000461,-0.00001788,-0.00000261,-0.00002597,-0.00003195,
 0.00001069,-0.00001234,-0.26985085,0.37985350,-0.00005772,-0.00013001,
 -0.00037321,-0.00007556,-0.00010904,0.00014016,0.00004324,-0.00007104,
 -0.00006276,0.00079457,-0.00009927,0.00129033,-0.00002832,0.00003112,-
 0.00005909,0.00014577,0.00091817,-0.00090581,0.00001706,0.00000706,0.0
 0003671,-0.00001330,-0.00000047,-0.00001644,-0.00001631,0.00000132,0.0
 0004621,-1.01044180,1.74853625,0.54196214,0.00060544,0.00006610,0.0003
 5172,-0.00019256,0.00026559,-0.00025896,0.00027411,0.00029044,0.000214
 81,-0.00030401,-0.00031197,-0.00015080,0.00009064,-0.00012498,0.000261
 58,0.00098271,-0.00021957,0.00046531,-0.00009569,-0.00000816,-0.000170
 03,-0.00000441,0.00001287,0.00000724,-0.00001731,-0.00000289,0.0000412
 3,-3.22119066,-0.59793222,0.06449017,3.25783507,-0.00010046,-0.0002205
 3,-0.00023850,0.00003479,-0.00007911,0.00011564,-0.00001372,0.00003777
 ,0.00006322,0.00022054,-0.00002624,0.00031175,-0.00002618,0.00006009,-
 0.00009381,-0.00037014,0.00070589,-0.00056210,0.00003043,0.00000411,0.
 00006255,0.00000365,-0.00000196,0.00001021,-0.00000461,0.00000444,0.00
 000367,-0.66201834,0.55452148,-0.00979097,0.60541113,-0.57877754,-0.00
 010908,-0.00059234,-0.00011880,0.00009895,0.00005480,0.00017502,-0.000
 11899,-0.00005467,-0.00007271,0.00036051,0.00041976,0.00013001,-0.0000
 6815,0.00007063,-0.00018520,-0.00174015,-0.00018831,-0.00095029,0.0000
 6738,0.00001450,0.00011749,0.00000421,0.00000740,0.00003232,0.00000392
 ,0.00000818,-0.00003606,0.00517543,-0.02121423,0.65267161,-0.07145852,
 0.02904692,-0.66708441,-0.00038433,-0.00058138,-0.00037270,0.00008459,
 -0.00008556,0.00034759,-0.00006419,-0.00020294,-0.00019307,0.00022441,
 0.00053092,0.00046535,-0.00010483,0.00013773,-0.00029858,0.00013656,-0
 .00039766,-0.00222524,0.00010278,0.00001808,0.00019563,0.00001521,-0.0
 0000417,0.00002143,-0.00003007,0.00002330,-0.00002346,0.11998228,0.867
 72459,0.94514221,-0.03798331,0.05683291,0.06778451,-0.08197911,-0.0000
 9827,0.00012909,0.00019227,0.00000947,0.00001818,-0.00013403,0.0001585
 4,0.00019260,0.00017952,-0.00000795,-0.00030439,0.00011780,0.00004112,
 -0.00003148,0.00010359,-0.00000883,0.00073351,0.00034119,-0.00003191,-
 0.00000769,-0.00006963,0.00000452,0.00000142,0.00000130,0.00003087,-0.
 00001568,0.00001066,0.93134458,-0.93395589,-1.73929311,-0.00744634,0.0
 2377160,-0.00757265,-0.92399580,0.90946874,-0.00012902,-0.00007292,0.0
 0052007,0.00008402,0.00018926,-0.00020254,0.00009871,0.00018340,0.0001
 1504,-0.00003714,0.00002936,-0.00012359,0.00002933,-0.00006341,0.00010
 467,-0.00018430,-0.00049850,-0.00014453,-0.00003374,0.00000070,-0.0000
 7091,0.00002488,0.00000529,0.00000924,0.00000959,-0.00000482,-0.000002
 28,1.00477510,-1.72696288,-1.19472985,0.00620625,-0.01892857,0.0153210
 2,-1.01084368,1.74612309,1.17920365,0.00032511,-0.00022651,0.00000602,
 -0.00056855,0.00014634,-0.00027096,0.00000191,0.00000710,0.00017696,-0
 .00010902,-0.00008990,0.00009738,-0.00039467,0.00002005,-0.00017412,0.
 00022857,-0.00029126,0.00021702,-0.00014093,0.00048408,-0.00031619,-0.
 00008363,-0.00001555,0.00013777,-0.00002993,-0.00001746,0.00000993,0.0
 0001914,-0.00000913,-0.00012752,0.00000574,0.00002540,0.00002452,-0.00
 004693,-0.00006159,-0.00002789,0.00009150,-0.00004296,0.00010538,0.000
 04219,-0.00005224,-0.00001116,-0.00014406,-0.00003170,-0.00010801,-0.0
 0017422,0.00018297,0.00008486,-0.00006237,0.00004780,-0.00002566,0.000
 02514,-0.00001750,0.00001910,0.00040499,0.00018643,0.00021490,0.000003
 28,-0.00003784,0.00004756,-0.00006390,0.00003177,0.00004222,0.00007020
 ,-0.00016417,-0.00039777,0.00008245,0.00003752,-0.00013363,0.00003917,
 0.00001763,-0.00000209,-0.00001872,-0.00002847,0.00000122,0.00018541,0
 .00014040,0.00063333,-0.00007448,0.00000297,-0.00000515,0.00008308,0.0
 0015210,0.00015073,0.00001919,-0.00000366,0.00001005,0.00003897,-0.000
 00649,-0.00001090,-0.00053563,0.00009633,0.00000429,0.00008080,0.00003
 660,-0.00019529,0.00005154,0.00002915,-0.00000620,0.00004546,0.0000016
 1,-0.00002847,0.00002806,-0.00052745,0.00014778,-0.00005789,-0.0000118
 7,-0.00010562,0.00003894,0.00002168,0.00027904,-0.00001895,-0.00000515
 ,-0.00000498,0.00001690,0.00005731,0.00000473,-0.00026826,-0.00044610,
 -0.00104182,-0.00005849,-0.00006163,0.00014406,0.00008334,-0.00004709,
 -0.00004763,0.00002941,-0.00001233,-0.00006092,-0.00012727,0.00007177,
 -0.00005521,-0.00000791,0.00000450,-0.00001022,0.00024850,0.00005690,0
 .00012248,-0.00004161,-0.00003697,-0.00004978,0.00004002,-0.00007909,-
 0.00008488,-0.00006959,-0.00007940,-0.00008734,-0.00017791,0.00000907,
 0.00000680,0.00001373,0.00029114,0.00052988,0.00003391,-0.00032293,0.0
 0019967,-0.00002445,0.00002860,0.00003044,-0.00000870,0.00007675,-0.00
 000722,0.00004736,0.00012930,-0.00014138,-0.00001718,0.00001801,-0.000
 05638,-0.00041842,0.00047172,-0.00074340,0.00004235,0.00006554,-0.0000
 3106,-0.00010586,-0.00003862,-0.00022449,-0.00000513,0.00000076,0.0000
 0103,-0.00001214,-0.00002157,-0.00000514,0.00038575,0.00022233,0.00027
 090,0.00000964,0.00000290,0.00002381,-0.00035089,-0.00000769,0.0000151
 8,-0.00000827,-0.00004821,0.00014371,-0.00011198,-0.00000073,0.0000069
 9,-0.00000189,-0.00001685,0.00000059,-0.00001519,0.00025488,-0.0000058
 0,0.00032425,0.00000692,0.00000098,0.00001369,-0.00018909,-0.00014595,
 0.00003840,0.00008084,0.00001422,-0.00008284,0.00004880,-0.00021443,0.
 00001333,0.00000491,0.00001742,-0.00002462,-0.00005562,-0.00001367,0.0
 0021058,0.00017937,0.00065486,0.00002071,0.00000674,0.00003797,-0.0001
 0287,-0.00018692,-0.00040051,-0.00007925,0.00001363,-0.00000063,0.0001
 1729,-0.00001141,0.00002016,0.00003349,-0.00001491,-0.00002831,0.00000
 783,-0.00000086,-0.00000482,-0.00003024,-0.00002064,-0.00000858,0.0000
 0322,-0.00000430,0.00000894,0.00000580,0.00001559,0.00000681,-0.000051
 25,0.00000151,-0.00008060,-0.00000919,-0.00000516,0.00012759,0.0000301
 5,-0.00001879,0.00000754,-0.00000744,-0.00001494,-0.00000770,-0.000005
 78,-0.00000351,-0.00004012,-0.00003618,0.00000207,0.00000414,0.0000047
 0,0.00001138,0.00001946,0.00002033,0.00002226,-0.00001486,0.00002449,0
 .00004492,-0.00006675,0.00002766,-0.00006543,0.00010161,-0.00002674,0.
 00000577,0.00000039,-0.00000217,-0.00000592,0.00000365,-0.00002807,-0.
 00000348,0.00000837,0.00000471,-0.00001163,0.00001853,0.00000186,0.000
 01608,-0.00001359,0.00001347,0.00001882,-0.00004324,0.00001066,-0.0000
 4417,-0.00002147,0.00003303,-0.00003660,0.00009827,-0.00000229,0.00000
 109,-0.00000739,-0.00002352,0.00001509,-0.00000181,0.00010022,0.000187
 45,-0.00000010,-0.00003179,0.00001346,0.00000803,0.00004666,-0.0000131
 6,-0.00004129,0.00000481,0.00000336,-0.00001497,-0.00016467,-0.0000163
 4,-0.00001972,0.00002432,0.00004146,-0.00010103,-0.00004149,0.00000138
 ,0.00000351,-0.00000235,0.00000061,0.00000616,-0.00000496,0.00013137,0
 .00014577,0.00007236,0.00001726,-0.00000973,0.00000345,-0.00004613,-0.
 00004081,-0.00008260,-0.00000349,-0.00001676,0.00000202,-0.00011963,0.
 00002326,-0.00000385,0.00003398,-0.00000892,-0.00002181,-0.00008623,0.
 00000044,0.00000570,0.00000354,-0.00000375,-0.00000236,-0.00002116,0.0
 0000832,-0.00006410,0.00007629,0.00018138,0.00001277,-0.00000043,-0.00
 002344,0.00009947,-0.00002491,-0.00002165,-0.00000560,-0.00000947,0.00
 000295,-0.00002142,0.00002858,-0.00016609,-0.00033608,0.00027070,0.000
 25637,0.00022441,-0.00013809,-0.00012633,-0.00010002,-0.00000889,0.000
 01357,0.00061638,-0.00001143,-0.00010984,0.00000303,0.00000900,-0.0000
 0716,-0.00204153,0.00007238,0.00049865,0.00000128,-0.00001886,-0.00001
 886,-0.00002832,0.00001077,-0.00000554,0.00005280,-0.00002065,-0.00002
 977,3.09775210,0.00002519,-0.00106201,0.00039275,0.00000974,0.00025188
 ,0.00007712,0.00006517,0.00010293,-0.00001725,0.00003685,0.00128701,-0
 .00035091,-0.00009257,-0.00002889,-0.00016027,-0.00069335,-0.00216816,
 -0.00144979,0.00004399,0.00002279,0.00008331,0.00002618,0.00001924,0.0
 0001815,-0.00003995,0.00002470,-0.00004227,-0.16696925,0.39831659,0.00
 043200,0.00088517,-0.00033277,-0.00023382,-0.00021196,0.00003479,-0.00
 003565,-0.00016172,-0.00006482,-0.00015528,-0.00045583,0.00069263,0.00
 006266,0.00003798,0.00010321,0.00102496,0.00004842,-0.00033786,-0.0000
 6208,-0.00004094,-0.00007855,-0.00001607,-0.00001270,-0.00005323,-0.00
 001559,-0.00000486,0.00004512,-0.93358047,1.90261702,0.52701998,0.0004
 6290,-0.00004467,0.00003006,-0.00017624,0.00018325,-0.00003787,0.00008
 959,0.00008066,0.00003496,-0.00039341,-0.00004453,0.00014274,0.0000461
 7,-0.00006152,0.00010081,0.00093519,-0.00040251,-0.00009647,-0.0000381
 5,0.00001053,-0.00005408,0.00000744,-0.00000092,0.00000684,-0.00000292
 ,-0.00000192,0.00002935,-3.33925082,-0.73599635,-0.04195288,3.33181284
 ,0.00008367,0.00033568,-0.00023205,-0.00003778,-0.00010450,-0.00001446
 ,0.00007110,-0.00000053,0.00002648,-0.00028896,-0.00042688,0.00027066,
 0.00003981,0.00001077,0.00005249,0.00070869,0.00079797,0.00027249,-0.0
 0002713,-0.00000535,-0.00002851,-0.00001213,-0.00000978,-0.00001057,0.
 00001135,-0.00000395,0.00001694,-0.73753417,0.60071001,-0.02579962,0.7
 3689976,-0.60208201,-0.00006428,-0.00038105,0.00002238,0.00003577,0.00
 008103,0.00001711,0.00004361,0.00006484,0.00002429,-0.00010587,0.00012
 900,-0.00059392,-0.00002362,-0.00001766,-0.00005965,-0.00045305,0.0000
 6044,0.00060212,0.00002265,0.00001931,0.00003496,0.00000030,0.00000416
 ,0.00002231,0.00001701,0.00000256,-0.00002108,-0.04116274,-0.02580956,
 0.73141454,0.04372497,0.02141579,-0.73239878,-0.00003676,-0.00015038,-
 0.00020322,-0.00005962,-0.00002407,0.00009526,0.00000501,0.00002009,0.
 00002827,-0.00030037,-0.00001816,-0.00024334,-0.00002814,0.00002267,-0
 .00005638,0.00095768,0.00015641,-0.00005548,0.00002068,0.00000668,0.00
 003472,0.00000918,-0.00000802,-0.00000155,-0.00002299,0.00001608,0.000
 00162,0.24310675,0.90358435,0.97453222,0.00650741,0.00008578,-0.002034
 75,-0.25015884,-0.00010046,0.00049386,0.00003262,0.00002563,-0.0000678
 3,-0.00011293,-0.00000537,0.00005927,0.00008326,0.00031198,-0.00065024
 ,0.00008894,0.00004349,-0.00001062,0.00011775,-0.00028795,0.00093763,0
 .00075400,-0.00002436,-0.00001181,-0.00007065,-0.00000992,-0.00000814,
 -0.00000875,0.00002173,-0.00001142,0.00002515,0.90433847,-0.99747611,-
 1.87690098,-0.00062178,0.00077857,0.00443115,-0.90369145,0.99596685,-0
 .00023677,-0.00017863,0.00035994,0.00014314,0.00012859,-0.00013652,0.0
 0004247,0.00011243,0.00005125,-0.00003770,0.00007293,-0.00045919,-0.00
 001671,-0.00005023,0.00003687,-0.00016176,-0.00033990,0.00042096,0.000
 00593,0.00001677,-0.00001707,0.00001433,0.00000257,0.00001901,0.000000
 72,0.00000296,0.00000673,0.97427211,-1.87535829,-1.25844304,-0.0019284
 2,0.00403034,0.00093573,-0.97209735,1.87156045,1.25722532\\@
 The archive entry for this job was punched.


 SOME THINGS ARE EASY, THEY ARE ONLY HARD TO DO.
            -- A. EINSTEIN TO J. O. HIRSCHFELDER
 THE ONLY TROUBLE WITH A SURE THING IS THE UNCERTAINTY.
     -- FROM A TEABAG (BELONGING TO W.H.?)
 Job cpu time:       6 days 17 hours 14 minutes 20.6 seconds.
 Elapsed time:       0 days  4 hours  5 minutes 44.3 seconds.
 File lengths (MBytes):  RWF=   6518 Int=      0 D2E=      0 Chk=     47 Scr=      1
 Normal termination of Gaussian 16 at Sat Mar 22 15:57:37 2025.
