 Entering Gaussian System, Link 0=g16
 Input=enoloneto_nh3_mp2_avdz_opt_anharm.gjf
 Output=enoloneto_nh3_mp2_avdz_opt_anharm.log
 Initial command:
 /sw/contrib/chem-src/g16/c01/g16/l1.exe "/scr/Gau-10325.inp" -scrdir="/scr/"
 Entering Link 1 = /sw/contrib/chem-src/g16/c01/g16/l1.exe PID=     10326.
  
 Copyright (c) 1988-2019, Gaussian, Inc.  All Rights Reserved.
  
 This is part of the Gaussian(R) 16 program.  It is based on
 the Gaussian(R) 09 system (copyright 2009, Gaussian, Inc.),
 the Gaussian(R) 03 system (copyright 2003, Gaussian, Inc.),
 the Gaussian(R) 98 system (copyright 1998, Gaussian, Inc.),
 the Gaussian(R) 94 system (copyright 1995, Gaussian, Inc.),
 the Gaussian 92(TM) system (copyright 1992, Gaussian, Inc.),
 the Gaussian 90(TM) system (copyright 1990, Gaussian, Inc.),
 the Gaussian 88(TM) system (copyright 1988, Gaussian, Inc.),
 the Gaussian 86(TM) system (copyright 1986, Carnegie Mellon
 University), and the Gaussian 82(TM) system (copyright 1983,
 Carnegie Mellon University). Gaussian is a federally registered
 trademark of Gaussian, Inc.
  
 This software contains proprietary and confidential information,
 including trade secrets, belonging to Gaussian, Inc.
  
 This software is provided under written license and may be
 used, copied, transmitted, or stored only in accord with that
 written license.
  
 The following legend is applicable only to US Government
 contracts under FAR:
  
                    RESTRICTED RIGHTS LEGEND
  
 Use, reproduction and disclosure by the US Government is
 subject to restrictions as set forth in subparagraphs (a)
 and (c) of the Commercial Computer Software - Restricted
 Rights clause in FAR 52.227-19.
  
 Gaussian, Inc.
 340 Quinnipiac St., Bldg. 40, Wallingford CT 06492
  
  
 ---------------------------------------------------------------
 Warning -- This program may not be used in any manner that
 competes with the business of Gaussian, Inc. or will provide
 assistance to any competitor of Gaussian, Inc.  The licensee
 of this program is prohibited from giving any competitor of
 Gaussian, Inc. access to this program.  By using this program,
 the user acknowledges that Gaussian, Inc. is engaged in the
 business of creating and licensing software in the field of
 computational chemistry and represents and warrants to the
 licensee that it is not a competitor of Gaussian, Inc. and that
 it will not use this program in any manner prohibited above.
 ---------------------------------------------------------------
  

 Cite this work as:
 Gaussian 16, Revision C.01,
 M. J. Frisch, G. W. Trucks, H. B. Schlegel, G. E. Scuseria, 
 M. A. Robb, J. R. Cheeseman, G. Scalmani, V. Barone, 
 G. A. Petersson, H. Nakatsuji, X. Li, M. Caricato, A. V. Marenich, 
 J. Bloino, B. G. Janesko, R. Gomperts, B. Mennucci, H. P. Hratchian, 
 J. V. Ortiz, A. F. Izmaylov, J. L. Sonnenberg, D. Williams-Young, 
 F. Ding, F. Lipparini, F. Egidi, J. Goings, B. Peng, A. Petrone, 
 T. Henderson, D. Ranasinghe, V. G. Zakrzewski, J. Gao, N. Rega, 
 G. Zheng, W. Liang, M. Hada, M. Ehara, K. Toyota, R. Fukuda, 
 J. Hasegawa, M. Ishida, T. Nakajima, Y. Honda, O. Kitao, H. Nakai, 
 T. Vreven, K. Throssell, J. A. Montgomery, Jr., J. E. Peralta, 
 F. Ogliaro, M. J. Bearpark, J. J. Heyd, E. N. Brothers, K. N. Kudin, 
 V. N. Staroverov, T. A. Keith, R. Kobayashi, J. Normand, 
 K. Raghavachari, A. P. Rendell, J. C. Burant, S. S. Iyengar, 
 J. Tomasi, M. Cossi, J. M. Millam, M. Klene, C. Adamo, R. Cammi, 
 J. W. Ochterski, R. L. Martin, K. Morokuma, O. Farkas, 
 J. B. Foresman, and D. J. Fox, Gaussian, Inc., Wallingford CT, 2019.
 
 ******************************************
 Gaussian 16:  EM64L-G16RevC.01  3-Jul-2019
                22-Mar-2025 
 ******************************************
 %nprocshared=40
 Will use up to   40 processors via shared memory.
 %mem=50gb
 ----------------------------------------------
 # MP2/aug-cc-pVDZ opt freq=(vibrot,anharmonic)
 ----------------------------------------------
 1/18=20,19=15,38=1,80=1/1,3;
 2/9=110,12=2,17=6,18=5,40=1/2;
 3/5=16,7=10,11=9,25=1,30=1,71=1/1,2,3;
 4//1;
 5/5=2,38=5/2;
 8/6=4,10=1/1;
 9/15=2,16=-3/6;
 10/5=1/2;
 6/7=2,8=2,9=2,10=2/1;
 7/12=2/1,2,3,16;
 1/18=20,19=15,80=1/3(2);
 2/9=110/2;
 99//99;
 2/9=110/2;
 3/5=16,7=10,11=9,25=1,30=1,71=1/1,2,3;
 4/5=5,16=3,69=1/1;
 5/5=2,38=5/2;
 8/6=4,10=1/1;
 9/15=2,16=-3/6;
 10/5=1/2;
 7/12=2/1,2,3,16;
 1/18=20,19=15,80=1/3(-8);
 2/9=110/2;
 6/7=2,8=2,9=2,10=2/1;
 99/9=10/99;
 ----
 blah
 ----
 Symbolic Z-matrix:
 Charge =  0 Multiplicity = 1
 C                    -0.63504   0.83122  -0.12072 
 C                    -1.33963   0.46594  -1.19176 
 H                    -0.72939   0.37568   0.85828 
 O                     0.29032   1.83877  -0.1711 
 C                    -2.3285   -0.62646  -1.09502 
 H                     0.68724   1.93486   0.73288 
 O                    -2.5603   -1.24768  -0.06567 
 H                    -1.21281   0.94907  -2.15096 
 H                    -2.85549  -0.84799  -2.0378 
 N                     1.42761   2.17186   2.26244 
 H                     2.15411   2.8932    2.21028 
 H                     0.80694   2.49319   3.0121 
 H                     1.90761   1.35947   2.66255 
 
 Add virtual bond connecting atoms N10        and H6         Dist= 3.24D+00.

 GradGradGradGradGradGradGradGradGradGradGradGradGradGradGradGradGradGrad
 Berny optimization.
 Initialization pass.
                           ----------------------------
                           !    Initial Parameters    !
                           ! (Angstroms and Degrees)  !
 --------------------------                            --------------------------
 ! Name  Definition              Value          Derivative Info.                !
 --------------------------------------------------------------------------------
 ! R1    R(1,2)                  1.333          estimate D2E/DX2                !
 ! R2    R(1,3)                  1.0839         estimate D2E/DX2                !
 ! R3    R(1,4)                  1.3689         estimate D2E/DX2                !
 ! R4    R(2,5)                  1.4767         estimate D2E/DX2                !
 ! R5    R(2,8)                  1.0815         estimate D2E/DX2                !
 ! R6    R(4,6)                  0.9919         estimate D2E/DX2                !
 ! R7    R(5,7)                  1.2244         estimate D2E/DX2                !
 ! R8    R(5,9)                  1.1026         estimate D2E/DX2                !
 ! R9    R(6,10)                 1.7158         estimate D2E/DX2                !
 ! R10   R(10,11)                1.0251         estimate D2E/DX2                !
 ! R11   R(10,12)                1.0249         estimate D2E/DX2                !
 ! R12   R(10,13)                1.0249         estimate D2E/DX2                !
 ! A1    A(2,1,3)              124.3689         estimate D2E/DX2                !
 ! A2    A(2,1,4)              121.9651         estimate D2E/DX2                !
 ! A3    A(3,1,4)              113.6661         estimate D2E/DX2                !
 ! A4    A(1,2,5)              120.2671         estimate D2E/DX2                !
 ! A5    A(1,2,8)              121.8859         estimate D2E/DX2                !
 ! A6    A(5,2,8)              117.8469         estimate D2E/DX2                !
 ! A7    A(1,4,6)              107.9537         estimate D2E/DX2                !
 ! A8    A(2,5,7)              123.861          estimate D2E/DX2                !
 ! A9    A(2,5,9)              114.3744         estimate D2E/DX2                !
 ! A10   A(7,5,9)              121.7646         estimate D2E/DX2                !
 ! A11   A(6,10,11)            110.9561         estimate D2E/DX2                !
 ! A12   A(6,10,12)            115.7241         estimate D2E/DX2                !
 ! A13   A(6,10,13)            116.1436         estimate D2E/DX2                !
 ! A14   A(11,10,12)           104.2275         estimate D2E/DX2                !
 ! A15   A(11,10,13)           104.2234         estimate D2E/DX2                !
 ! A16   A(12,10,13)           104.2752         estimate D2E/DX2                !
 ! A17   L(4,6,10,3,-1)        183.1798         estimate D2E/DX2                !
 ! A18   L(4,6,10,3,-2)        180.0215         estimate D2E/DX2                !
 ! D1    D(3,1,2,5)             -0.0043         estimate D2E/DX2                !
 ! D2    D(3,1,2,8)            179.9977         estimate D2E/DX2                !
 ! D3    D(4,1,2,5)            179.9953         estimate D2E/DX2                !
 ! D4    D(4,1,2,8)             -0.0027         estimate D2E/DX2                !
 ! D5    D(2,1,4,6)           -179.969          estimate D2E/DX2                !
 ! D6    D(3,1,4,6)              0.0307         estimate D2E/DX2                !
 ! D7    D(1,2,5,7)             -0.0138         estimate D2E/DX2                !
 ! D8    D(1,2,5,9)            179.9876         estimate D2E/DX2                !
 ! D9    D(8,2,5,7)            179.9843         estimate D2E/DX2                !
 ! D10   D(8,2,5,9)             -0.0143         estimate D2E/DX2                !
 ! D11   D(1,4,10,11)          177.0736         estimate D2E/DX2                !
 ! D12   D(1,4,10,12)          -64.999          estimate D2E/DX2                !
 ! D13   D(1,4,10,13)           58.7856         estimate D2E/DX2                !
 --------------------------------------------------------------------------------
 Trust Radius=3.00D-01 FncErr=1.00D-07 GrdErr=1.00D-07 EigMax=2.50D+02 EigMin=1.00D-04
 Number of steps in this run=     53 maximum allowed number of steps=    100.
 GradGradGradGradGradGradGradGradGradGradGradGradGradGradGradGradGradGrad

                          Input orientation:                          
 ---------------------------------------------------------------------
 Center     Atomic      Atomic             Coordinates (Angstroms)
 Number     Number       Type             X           Y           Z
 ---------------------------------------------------------------------
      1          6           0       -0.635036    0.831221   -0.120719
      2          6           0       -1.339627    0.465943   -1.191760
      3          1           0       -0.729389    0.375683    0.858284
      4          8           0        0.290321    1.838767   -0.171096
      5          6           0       -2.328501   -0.626461   -1.095023
      6          1           0        0.687237    1.934862    0.732876
      7          8           0       -2.560305   -1.247685   -0.065669
      8          1           0       -1.212812    0.949069   -2.150962
      9          1           0       -2.855490   -0.847988   -2.037804
     10          7           0        1.427610    2.171856    2.262439
     11          1           0        2.154114    2.893195    2.210285
     12          1           0        0.806937    2.493194    3.012098
     13          1           0        1.907610    1.359473    2.662553
 ---------------------------------------------------------------------
                    Distance matrix (angstroms):
                    1          2          3          4          5
     1  C    0.000000
     2  C    1.333043   0.000000
     3  H    1.083911   2.140844   0.000000
     4  O    1.368931   2.362865   2.059137   0.000000
     5  C    2.437608   1.476678   2.716038   3.713384   0.000000
     6  H    1.922252   3.157550   2.110354   0.991938   4.358471
     7  O    2.833997   2.386347   2.615581   4.202781   1.224427
     8  H    2.114142   1.081463   3.101294   2.640235   2.200469
     9  H    3.380144   2.177165   3.795392   4.538654   1.102555
    10  N    3.425092   4.743335   3.138556   2.706745   5.762942
    11  H    4.179076   5.447172   4.059601   3.202580   6.588390
    12  H    3.828313   5.137110   3.388667   3.290576   6.035865
    13  H    3.806665   5.118463   3.343201   3.297713   6.000663
                    6          7          8          9         10
     6  H    0.000000
     7  O    4.616580   0.000000
     8  H    3.591447   3.315103   0.000000
     9  H    5.288841   2.033767   2.437337   0.000000
    10  N    1.715775   5.746026   5.286317   6.779122   0.000000
    11  H    2.291914   6.674774   5.842627   7.559024   1.025114
    12  H    2.349663   5.899588   5.755075   7.076608   1.024929
    13  H    2.354578   5.848310   5.751121   7.046514   1.024918
                   11         12         13
    11  H    0.000000
    12  H    1.617959   0.000000
    13  H    1.617905   1.618328   0.000000
 Stoichiometry    C3H7NO2
 Framework group  C1[X(C3H7NO2)]
 Deg. of freedom    33
 Full point group                 C1      NOp   1
 Largest Abelian subgroup         C1      NOp   1
 Largest concise Abelian subgroup C1      NOp   1
                         Standard orientation:                         
 ---------------------------------------------------------------------
 Center     Atomic      Atomic             Coordinates (Angstroms)
 Number     Number       Type             X           Y           Z
 ---------------------------------------------------------------------
      1          6           0       -0.006264   -0.267949    0.000163
      2          6           0        1.200599   -0.834066   -0.000077
      3          1           0       -0.180278    0.801902    0.000468
      4          8           0       -1.155587   -1.011608    0.000034
      5          6           0        2.416070    0.004508   -0.000030
      6          1           0       -1.924921   -0.385455   -0.000250
      7          8           0        2.400225    1.228832   -0.000022
      8          1           0        1.327815   -1.908020   -0.000342
      9          1           0        3.360915   -0.563730   -0.000027
     10          7           0       -3.313682    0.622129   -0.000161
     11          1           0       -4.171869    0.063615   -0.049501
     12          1           0       -3.440181    1.205230    0.833188
     13          1           0       -3.395241    1.278800   -0.782842
 ---------------------------------------------------------------------
 Rotational constants (GHZ):           7.9060012           1.2218602           1.0641834
 Standard basis: Aug-CC-pVDZ (5D, 7F)
 There are   213 symmetry adapted cartesian basis functions of A   symmetry.
 There are   201 symmetry adapted basis functions of A   symmetry.
   201 basis functions,   335 primitive gaussians,   213 cartesian basis functions
    24 alpha electrons       24 beta electrons
       nuclear repulsion energy       216.3819554177 Hartrees.
 NAtoms=   13 NActive=   13 NUniq=   13 SFac= 1.00D+00 NAtFMM=   60 NAOKFM=F Big=F
 Integral buffers will be    131072 words long.
 Raffenetti 1 integral format.
 Two-electron integral symmetry is turned on.
 One-electron integrals computed using PRISM.
 NBasis=   201 RedAO= T EigKep=  2.22D-05  NBF=   201
 NBsUse=   201 1.00D-06 EigRej= -1.00D+00 NBFU=   201
 ExpMin= 2.97D-02 ExpMax= 1.17D+04 ExpMxC= 4.01D+02 IAcc=3 IRadAn=         5 AccDes= 0.00D+00
 Harris functional with IExCor=  205 and IRadAn=       5 diagonalized for initial guess.
 HarFok:  IExCor=  205 AccDes= 0.00D+00 IRadAn=         5 IDoV= 1 UseB2=F ITyADJ=14
 ICtDFT=  3500011 ScaDFX=  1.000000  1.000000  1.000000  1.000000
 FoFCou: FMM=F IPFlag=           0 FMFlag=      100000 FMFlg1=           0
         NFxFlg=           0 DoJE=T BraDBF=F KetDBF=T FulRan=T
         wScrn=  0.000000 ICntrl=       500 IOpCl=  0 I1Cent=   200000004 NGrid=           0
         NMat0=    1 NMatS0=      1 NMatT0=    0 NMatD0=    1 NMtDS0=    0 NMtDT0=    0
 Petite list used in FoFCou.
 Requested convergence on RMS density matrix=1.00D-08 within 128 cycles.
 Requested convergence on MAX density matrix=1.00D-06.
 Requested convergence on             energy=1.00D-06.
 No special actions if energy rises.
 SCF Done:  E(RHF) =  -321.878306166     A.U. after   14 cycles
            NFock= 14  Conv=0.61D-08     -V/T= 2.0017
 ExpMin= 2.97D-02 ExpMax= 1.17D+04 ExpMxC= 4.01D+02 IAcc=3 IRadAn=         5 AccDes= 0.00D+00
 HarFok:  IExCor=  205 AccDes= 0.00D+00 IRadAn=         5 IDoV=-2 UseB2=F ITyADJ=14
 ICtDFT= 12500011 ScaDFX=  1.000000  1.000000  1.000000  1.000000
 Range of M.O.s used for correlation:     7   201
 NBasis=   201 NAE=    24 NBE=    24 NFC=     6 NFV=     0
 NROrb=    195 NOA=    18 NOB=    18 NVA=   177 NVB=   177

 **** Warning!!: The largest alpha MO coefficient is  0.63537645D+02

 Fully direct method using O(ONN) memory.
 JobTyp=1 Pass  1:  I=   7 to  24 NPSUse= 40 ParTrn=T ParDer=T DoDerP=T.
 Spin components of T(2) and E(2):
     alpha-alpha T2 =       0.4220639312D-01 E2=     -0.1292568060D+00
     alpha-beta  T2 =       0.2370957269D+00 E2=     -0.7462749012D+00
     beta-beta   T2 =       0.4220639312D-01 E2=     -0.1292568060D+00
 ANorm=    0.1149568838D+01
 E2 =    -0.1004788513D+01 EUMP2 =    -0.32288309467924D+03
          IDoAtm=1111111111111
          Differentiating once with respect to electric field.
                with respect to dipole field.
          Differentiating once with respect to nuclear coordinates.
 Keep R1 ints in memory in canonical form, NReq=215105286.
          There are     1 degrees of freedom in the 1st order CPHF.  IDoFFX=0 NUNeed=     1.
 LinEq1:  Iter=  0 NonCon=     1 RMS=4.62D-03 Max=1.25D-01 NDo=     1
 AX will form     1 AO Fock derivatives at one time.
 LinEq1:  Iter=  1 NonCon=     1 RMS=1.39D-03 Max=1.93D-02 NDo=     1
 LinEq1:  Iter=  2 NonCon=     1 RMS=5.25D-04 Max=1.10D-02 NDo=     1
 LinEq1:  Iter=  3 NonCon=     1 RMS=1.72D-04 Max=2.80D-03 NDo=     1
 LinEq1:  Iter=  4 NonCon=     1 RMS=6.29D-05 Max=1.01D-03 NDo=     1
 LinEq1:  Iter=  5 NonCon=     1 RMS=2.27D-05 Max=3.13D-04 NDo=     1
 LinEq1:  Iter=  6 NonCon=     1 RMS=9.20D-06 Max=3.14D-04 NDo=     1
 LinEq1:  Iter=  7 NonCon=     1 RMS=2.84D-06 Max=4.12D-05 NDo=     1
 LinEq1:  Iter=  8 NonCon=     1 RMS=1.10D-06 Max=3.17D-05 NDo=     1
 LinEq1:  Iter=  9 NonCon=     1 RMS=2.93D-07 Max=2.98D-06 NDo=     1
 LinEq1:  Iter= 10 NonCon=     1 RMS=6.15D-08 Max=6.90D-07 NDo=     1
 LinEq1:  Iter= 11 NonCon=     1 RMS=1.88D-08 Max=3.36D-07 NDo=     1
 LinEq1:  Iter= 12 NonCon=     1 RMS=5.35D-09 Max=6.95D-08 NDo=     1
 LinEq1:  Iter= 13 NonCon=     1 RMS=1.39D-09 Max=1.03D-08 NDo=     1
 LinEq1:  Iter= 14 NonCon=     1 RMS=3.79D-10 Max=4.76D-09 NDo=     1
 LinEq1:  Iter= 15 NonCon=     1 RMS=1.34D-10 Max=1.41D-09 NDo=     1
 LinEq1:  Iter= 16 NonCon=     0 RMS=2.89D-11 Max=4.03D-10 NDo=     1
 Linear equations converged to 1.000D-10 1.000D-09 after    16 iterations.
 End of Minotr F.D. properties file   721 does not exist.
 End of Minotr F.D. properties file   722 does not exist.
 End of Minotr F.D. properties file   788 does not exist.

 **********************************************************************

            Population analysis using the SCF Density.

 **********************************************************************

 Orbital symmetries:
       Occupied  (A) (A) (A) (A) (A) (A) (A) (A) (A) (A) (A) (A)
                 (A) (A) (A) (A) (A) (A) (A) (A) (A) (A) (A) (A)
       Virtual   (A) (A) (A) (A) (A) (A) (A) (A) (A) (A) (A) (A)
                 (A) (A) (A) (A) (A) (A) (A) (A) (A) (A) (A) (A)
                 (A) (A) (A) (A) (A) (A) (A) (A) (A) (A) (A) (A)
                 (A) (A) (A) (A) (A) (A) (A) (A) (A) (A) (A) (A)
                 (A) (A) (A) (A) (A) (A) (A) (A) (A) (A) (A) (A)
                 (A) (A) (A) (A) (A) (A) (A) (A) (A) (A) (A) (A)
                 (A) (A) (A) (A) (A) (A) (A) (A) (A) (A) (A) (A)
                 (A) (A) (A) (A) (A) (A) (A) (A) (A) (A) (A) (A)
                 (A) (A) (A) (A) (A) (A) (A) (A) (A) (A) (A) (A)
                 (A) (A) (A) (A) (A) (A) (A) (A) (A) (A) (A) (A)
                 (A) (A) (A) (A) (A) (A) (A) (A) (A) (A) (A) (A)
                 (A) (A) (A) (A) (A) (A) (A) (A) (A) (A) (A) (A)
                 (A) (A) (A) (A) (A) (A) (A) (A) (A) (A) (A) (A)
                 (A) (A) (A) (A) (A) (A) (A) (A) (A) (A) (A) (A)
                 (A) (A) (A) (A) (A) (A) (A) (A) (A)
 The electronic state is 1-A.
 Alpha  occ. eigenvalues --  -20.58016 -20.53752 -15.60703 -11.32539 -11.31877
 Alpha  occ. eigenvalues --  -11.21506  -1.38674  -1.36332  -1.19700  -1.04739
 Alpha  occ. eigenvalues --   -0.87041  -0.75374  -0.73480  -0.67147  -0.67126
 Alpha  occ. eigenvalues --   -0.64820  -0.62017  -0.58530  -0.56216  -0.52757
 Alpha  occ. eigenvalues --   -0.51213  -0.48378  -0.40651  -0.34116
 Alpha virt. eigenvalues --    0.01898   0.04464   0.04739   0.04785   0.06148
 Alpha virt. eigenvalues --    0.07211   0.08727   0.08858   0.11932   0.12635
 Alpha virt. eigenvalues --    0.13817   0.15067   0.15109   0.15516   0.16743
 Alpha virt. eigenvalues --    0.16995   0.17975   0.18621   0.18777   0.19128
 Alpha virt. eigenvalues --    0.21443   0.22824   0.23417   0.24575   0.25621
 Alpha virt. eigenvalues --    0.26056   0.27783   0.28808   0.29170   0.31539
 Alpha virt. eigenvalues --    0.31751   0.31903   0.33623   0.34441   0.35873
 Alpha virt. eigenvalues --    0.37484   0.37948   0.39545   0.40807   0.41272
 Alpha virt. eigenvalues --    0.41484   0.43825   0.44543   0.46267   0.48716
 Alpha virt. eigenvalues --    0.49469   0.49703   0.50086   0.51032   0.51781
 Alpha virt. eigenvalues --    0.53631   0.54291   0.54880   0.55359   0.56436
 Alpha virt. eigenvalues --    0.59432   0.60158   0.60973   0.62930   0.64395
 Alpha virt. eigenvalues --    0.64551   0.65746   0.66796   0.66901   0.68242
 Alpha virt. eigenvalues --    0.69674   0.69931   0.71983   0.72400   0.74890
 Alpha virt. eigenvalues --    0.75091   0.76945   0.78791   0.80510   0.83608
 Alpha virt. eigenvalues --    0.85623   0.87400   0.88255   0.90086   0.91131
 Alpha virt. eigenvalues --    0.92979   0.93694   0.97020   0.98026   0.98040
 Alpha virt. eigenvalues --    1.01783   1.02308   1.05887   1.09533   1.12668
 Alpha virt. eigenvalues --    1.14265   1.16785   1.19690   1.21678   1.25143
 Alpha virt. eigenvalues --    1.26481   1.27026   1.28607   1.30420   1.32937
 Alpha virt. eigenvalues --    1.36148   1.38116   1.38549   1.44618   1.48307
 Alpha virt. eigenvalues --    1.52134   1.54006   1.58600   1.60467   1.63549
 Alpha virt. eigenvalues --    1.64155   1.67195   1.70502   1.73516   1.76435
 Alpha virt. eigenvalues --    1.79098   1.80095   1.80979   1.83306   1.86681
 Alpha virt. eigenvalues --    1.87403   1.91043   1.91162   1.95452   1.95614
 Alpha virt. eigenvalues --    1.97973   2.02906   2.03228   2.05336   2.07172
 Alpha virt. eigenvalues --    2.10685   2.10845   2.11810   2.19602   2.19753
 Alpha virt. eigenvalues --    2.24700   2.26021   2.26512   2.29621   2.33462
 Alpha virt. eigenvalues --    2.35363   2.37490   2.39465   2.41450   2.42647
 Alpha virt. eigenvalues --    2.43324   2.47817   2.49788   2.50494   2.66137
 Alpha virt. eigenvalues --    2.75724   2.77162   2.80988   2.82560   2.85682
 Alpha virt. eigenvalues --    2.86685   2.90860   2.92050   3.05781   3.10202
 Alpha virt. eigenvalues --    3.14874   3.25636   3.31925   3.48577   3.51029
 Alpha virt. eigenvalues --    3.52940   3.56434   3.72130   3.76634   3.79661
 Alpha virt. eigenvalues --    3.83249   3.83660   3.84410   3.97325   4.08541
 Alpha virt. eigenvalues --    4.15898   4.49285
          Condensed to atoms (all electrons):
               1          2          3          4          5          6
     1  C    5.308614  -0.057909  -0.068063  -0.170791  -0.128767   0.047429
     2  C   -0.057909   5.638523  -0.100891   0.021409   0.110625  -0.058324
     3  H   -0.068063  -0.100891   1.699457   0.046603  -0.096820  -0.141146
     4  O   -0.170791   0.021409   0.046603   8.723738   0.016178   0.308227
     5  C   -0.128767   0.110625  -0.096820   0.016178   4.981953   0.013051
     6  H    0.047429  -0.058324  -0.141146   0.308227   0.013051   0.554504
     7  O   -0.017056  -0.048235   0.007420  -0.007502   0.298317  -0.001169
     8  H    0.112967  -0.154330   0.079506  -0.002956  -0.073020  -0.016459
     9  H    0.023979   0.051758  -0.006628  -0.000716   0.174222  -0.000204
    10  N    0.015861  -0.023605   0.005739  -0.052680  -0.002328  -0.132503
    11  H   -0.001515  -0.001971   0.002311   0.000500  -0.000401  -0.013871
    12  H    0.002574  -0.001015  -0.001838  -0.006489   0.000204  -0.010119
    13  H    0.001776  -0.000748  -0.001139  -0.005494   0.000118  -0.009971
               7          8          9         10         11         12
     1  C   -0.017056   0.112967   0.023979   0.015861  -0.001515   0.002574
     2  C   -0.048235  -0.154330   0.051758  -0.023605  -0.001971  -0.001015
     3  H    0.007420   0.079506  -0.006628   0.005739   0.002311  -0.001838
     4  O   -0.007502  -0.002956  -0.000716  -0.052680   0.000500  -0.006489
     5  C    0.298317  -0.073020   0.174222  -0.002328  -0.000401   0.000204
     6  H   -0.001169  -0.016459  -0.000204  -0.132503  -0.013871  -0.010119
     7  O    8.587035  -0.003231  -0.061098   0.001153   0.000137   0.000022
     8  H   -0.003231   1.575054  -0.065852   0.002874   0.000364  -0.000023
     9  H   -0.061098  -0.065852   0.998560  -0.000270  -0.000026   0.000004
    10  N    0.001153   0.002874  -0.000270   6.268790   0.406478   0.409148
    11  H    0.000137   0.000364  -0.000026   0.406478   0.686214  -0.062730
    12  H    0.000022  -0.000023   0.000004   0.409148  -0.062730   0.681176
    13  H    0.000023  -0.000038   0.000002   0.407373  -0.068534  -0.086413
              13
     1  C    0.001776
     2  C   -0.000748
     3  H   -0.001139
     4  O   -0.005494
     5  C    0.000118
     6  H   -0.009971
     7  O    0.000023
     8  H   -0.000038
     9  H    0.000002
    10  N    0.407373
    11  H   -0.068534
    12  H   -0.086413
    13  H    0.689453
 Mulliken charges:
               1
     1  C    0.930902
     2  C    0.624713
     3  H   -0.424510
     4  O   -0.870025
     5  C    0.706667
     6  H    0.460554
     7  O   -0.755815
     8  H   -0.454856
     9  H   -0.113731
    10  N   -0.306032
    11  H    0.053045
    12  H    0.075498
    13  H    0.073591
 Sum of Mulliken charges =  -0.00000
 Mulliken charges with hydrogens summed into heavy atoms:
               1
     1  C    0.506392
     2  C    0.169857
     4  O   -0.409472
     5  C    0.592936
     7  O   -0.755815
    10  N   -0.103898
 Electronic spatial extent (au):  <R**2>=           1043.3705
 Charge=             -0.0000 electrons
 Dipole moment (field-independent basis, Debye):
    X=             -5.4860    Y=              0.0479    Z=              0.0014  Tot=              5.4862
 Quadrupole moment (field-independent basis, Debye-Ang):
   XX=            -21.6025   YY=            -40.1687   ZZ=            -37.0253
   XY=            -14.3560   XZ=             -0.0021   YZ=              0.0014
 Traceless Quadrupole moment (field-independent basis, Debye-Ang):
   XX=             11.3296   YY=             -7.2365   ZZ=             -4.0931
   XY=            -14.3560   XZ=             -0.0021   YZ=              0.0014
 Octapole moment (field-independent basis, Debye-Ang**2):
  XXX=            -88.7399  YYY=              1.9174  ZZZ=              0.1632  XYY=            -15.8798
  XXY=             -6.2749  XXZ=             -0.0491  XZZ=             -8.8930  YZZ=              4.7323
  YYZ=             -0.1165  XYZ=             -0.0696
 Hexadecapole moment (field-independent basis, Debye-Ang**3):
 XXXX=           -772.4763 YYYY=           -191.2712 ZZZZ=            -41.8122 XXXY=            -86.7156
 XXXZ=              0.5592 YYYX=            -28.3555 YYYZ=             -0.3115 ZZZX=             -0.6094
 ZZZY=              0.1477 XXYY=           -216.0842 XXZZ=           -171.2002 YYZZ=            -37.9450
 XXYZ=              0.4872 YYXZ=              0.3056 ZZXY=             -5.6432
 N-N= 2.163819554177D+02 E-N=-1.189905270646D+03  KE= 3.213188453047D+02
 Calling FoFJK, ICntrl=  10002127 FMM=F ISym2X=0 I1Cent= 0 IOpClX= 0 NMat=1 NMatS=1 NMatT=0.
 ***** Axes restored to original set *****
 -------------------------------------------------------------------
 Center     Atomic                   Forces (Hartrees/Bohr)
 Number     Number              X              Y              Z
 -------------------------------------------------------------------
      1        6           0.033619935    0.030240809    0.015685793
      2        6          -0.022790478   -0.017966146   -0.017643298
      3        1          -0.006175849   -0.008424671    0.005041408
      4        8          -0.011425383   -0.010289632   -0.005334911
      5        6           0.014462146    0.016331565   -0.002388316
      6        1           0.001491662    0.001270727    0.000940223
      7        8          -0.007650556   -0.012371181    0.011559166
      8        1           0.003055874    0.005448636   -0.006016134
      9        1          -0.005748657   -0.004130537   -0.005561727
     10        7           0.005602389    0.001613536    0.012190061
     11        1          -0.001939814   -0.001035783   -0.002775800
     12        1          -0.001020507   -0.000594159   -0.002937256
     13        1          -0.001480763   -0.000093166   -0.002759209
 -------------------------------------------------------------------
 Cartesian Forces:  Max     0.033619935 RMS     0.011375247

 GradGradGradGradGradGradGradGradGradGradGradGradGradGradGradGradGradGrad
 Berny optimization.
 FormGI is forming the generalized inverse of G from B-inverse, IUseBI=4.
 Internal  Forces:  Max     0.029455241 RMS     0.006663852
 Search for a local minimum.
 Step number   1 out of a maximum of   53
 All quantities printed in internal units (Hartrees-Bohrs-Radians)
 Mixed Optimization -- RFO/linear search
 Second derivative matrix not updated -- first step.
 ITU=  0
     Eigenvalues ---    0.00230   0.00230   0.00230   0.01074   0.01074
     Eigenvalues ---    0.02063   0.02103   0.02723   0.02974   0.07181
     Eigenvalues ---    0.08678   0.09482   0.16000   0.16000   0.16000
     Eigenvalues ---    0.16000   0.16000   0.16000   0.16000   0.22000
     Eigenvalues ---    0.22000   0.22000   0.33401   0.34953   0.35526
     Eigenvalues ---    0.35818   0.43532   0.43561   0.43563   0.49134
     Eigenvalues ---    0.51183   0.58793   0.93448
 RFO step:  Lambda=-5.20293013D-03 EMin= 2.30000000D-03
 Linear search not attempted -- first point.
 Iteration  1 RMS(Cart)=  0.13219188 RMS(Int)=  0.01280427
 Iteration  2 RMS(Cart)=  0.05903615 RMS(Int)=  0.00114052
 Iteration  3 RMS(Cart)=  0.00147723 RMS(Int)=  0.00065580
 Iteration  4 RMS(Cart)=  0.00000084 RMS(Int)=  0.00065580
 Variable       Old X    -DE/DX   Delta X   Delta X   Delta X     New X
                                 (Linear)    (Quad)   (Total)
    R1        2.51909   0.02946   0.00000   0.04966   0.04966   2.56875
    R2        2.04830   0.00863   0.00000   0.02395   0.02395   2.07224
    R3        2.58690  -0.01262   0.00000  -0.02442  -0.02442   2.56249
    R4        2.79052  -0.00035   0.00000  -0.00099  -0.00099   2.78953
    R5        2.04367   0.00813   0.00000   0.02237   0.02237   2.06604
    R6        1.87449   0.00542   0.00000   0.01092   0.01096   1.88545
    R7        2.31383   0.01744   0.00000   0.01856   0.01856   2.33239
    R8        2.08353   0.00833   0.00000   0.02457   0.02457   2.10809
    R9        3.24234   0.00380   0.00000   0.04933   0.04931   3.29165
   R10        1.93718  -0.00196   0.00000  -0.00445  -0.00445   1.93273
   R11        1.93684  -0.00172   0.00000  -0.00389  -0.00389   1.93294
   R12        1.93681  -0.00170   0.00000  -0.00385  -0.00385   1.93297
    A1        2.17065  -0.00972   0.00000  -0.05595  -0.05595   2.11470
    A2        2.12869   0.00357   0.00000   0.01583   0.01583   2.14453
    A3        1.98385   0.00615   0.00000   0.04011   0.04011   2.02396
    A4        2.09906   0.00022   0.00000   0.00100   0.00100   2.10006
    A5        2.12731  -0.00320   0.00000  -0.01921  -0.01921   2.10810
    A6        2.05682   0.00298   0.00000   0.01821   0.01821   2.07503
    A7        1.88415  -0.00046   0.00000  -0.00279  -0.00279   1.88136
    A8        2.16178   0.00751   0.00000   0.03333   0.03333   2.19511
    A9        1.99621  -0.00021   0.00000   0.00481   0.00481   2.00102
   A10        2.12519  -0.00730   0.00000  -0.03814  -0.03814   2.08705
   A11        1.93655  -0.00278   0.00000  -0.01744  -0.01635   1.92020
   A12        2.01977  -0.00203   0.00000  -0.01200  -0.01265   2.00712
   A13        2.02709  -0.00199   0.00000  -0.01174  -0.01229   2.01480
   A14        1.81911   0.00252   0.00000   0.01480   0.01566   1.83478
   A15        1.81904   0.00252   0.00000   0.01472   0.01577   1.83481
   A16        1.81995   0.00282   0.00000   0.01797   0.01591   1.83586
   A17        3.19709  -0.00201   0.00000  -0.26026  -0.26085   2.93624
   A18        3.14197  -0.00001   0.00000  -0.00183  -0.00176   3.14020
    D1       -0.00008  -0.00000   0.00000  -0.00006  -0.00006  -0.00014
    D2        3.14155  -0.00000   0.00000  -0.00011  -0.00011   3.14145
    D3        3.14151   0.00001   0.00000   0.00017   0.00017  -3.14151
    D4       -0.00005   0.00000   0.00000   0.00013   0.00012   0.00008
    D5       -3.14105  -0.00001   0.00000  -0.00026  -0.00026  -3.14131
    D6        0.00054  -0.00000   0.00000  -0.00005  -0.00004   0.00050
    D7       -0.00024   0.00000   0.00000   0.00005   0.00005  -0.00019
    D8        3.14138   0.00000   0.00000   0.00002   0.00002   3.14140
    D9        3.14132   0.00000   0.00000   0.00009   0.00009   3.14141
   D10       -0.00025   0.00000   0.00000   0.00006   0.00006  -0.00019
   D11        3.09052  -0.00002   0.00000  -0.00175  -0.00188   3.08863
   D12       -1.13445   0.00015   0.00000   0.04108   0.03891  -1.09554
   D13        1.02600  -0.00012   0.00000  -0.03868  -0.03636   0.98964
         Item               Value     Threshold  Converged?
 Maximum Force            0.029455     0.000450     NO 
 RMS     Force            0.006664     0.000300     NO 
 Maximum Displacement     0.337354     0.001800     NO 
 RMS     Displacement     0.187301     0.001200     NO 
 Predicted change in Energy=-2.831574D-03
 GradGradGradGradGradGradGradGradGradGradGradGradGradGradGradGradGradGrad

                          Input orientation:                          
 ---------------------------------------------------------------------
 Center     Atomic      Atomic             Coordinates (Angstroms)
 Number     Number       Type             X           Y           Z
 ---------------------------------------------------------------------
      1          6           0       -0.545776    0.942552   -0.162867
      2          6           0       -1.315796    0.489377   -1.187299
      3          1           0       -0.618383    0.502973    0.839127
      4          8           0        0.349245    1.951234   -0.305220
      5          6           0       -2.272962   -0.613016   -0.969123
      6          1           0        0.786212    2.098274    0.579607
      7          8           0       -2.463260   -1.202601    0.098373
      8          1           0       -1.238444    0.932279   -2.183872
      9          1           0       -2.855628   -0.909050   -1.873184
     10          7           0        1.338401    2.087354    2.231596
     11          1           0        2.089119    2.771009    2.354358
     12          1           0        0.630854    2.340421    2.925566
     13          1           0        1.729090    1.200323    2.558437
 ---------------------------------------------------------------------
                    Distance matrix (angstroms):
                    1          2          3          4          5
     1  C    0.000000
     2  C    1.359323   0.000000
     3  H    1.096583   2.143122   0.000000
     4  O    1.356011   2.384837   2.084057   0.000000
     5  C    2.460287   1.476156   2.693109   3.727213   0.000000
     6  H    1.913414   3.182600   2.141313   0.997738   4.371293
     7  O    2.889061   2.415039   2.619403   4.244967   1.234250
     8  H    2.136435   1.093300   3.115655   2.662397   2.221211
     9  H    3.418922   2.190233   3.788893   4.572849   1.115555
    10  N    3.254866   4.613799   2.877192   2.726242   5.529787
    11  H    4.077051   5.416883   3.843237   3.282156   6.443982
    12  H    3.588442   4.912378   3.047955   3.266305   5.685379
    13  H    3.556257   4.879274   2.992149   3.266247   5.634563
                    6          7          8          9         10
     6  H    0.000000
     7  O    4.656869   0.000000
     8  H    3.618784   3.356565   0.000000
     9  H    5.321953   2.031542   2.470284   0.000000
    10  N    1.741867   5.461417   5.241249   6.589199   0.000000
    11  H    2.302146   6.450054   5.920231   7.474320   1.022757
    12  H    2.363534   5.488129   5.619919   6.763329   1.022869
    13  H    2.368777   5.422339   5.600679   6.716276   1.022881
                   11         12         13
    11  H    0.000000
    12  H    1.624260   0.000000
    13  H    1.624292   1.625032   0.000000
 Stoichiometry    C3H7NO2
 Framework group  C1[X(C3H7NO2)]
 Deg. of freedom    33
 Full point group                 C1      NOp   1
 Largest Abelian subgroup         C1      NOp   1
 Largest concise Abelian subgroup C1      NOp   1
                         Standard orientation:                         
 ---------------------------------------------------------------------
 Center     Atomic      Atomic             Coordinates (Angstroms)
 Number     Number       Type             X           Y           Z
 ---------------------------------------------------------------------
      1          6           0       -0.074381   -0.364559    0.000444
      2          6           0        1.191209   -0.860582   -0.000478
      3          1           0       -0.260305    0.716148    0.001419
      4          8           0       -1.175217   -1.156345    0.000483
      5          6           0        2.350078    0.053781   -0.000359
      6          1           0       -1.977462   -0.563147    0.000972
      7          8           0        2.296170    1.286852    0.000344
      8          1           0        1.369466   -1.939251   -0.001310
      9          1           0        3.343371   -0.453990   -0.000970
     10          7           0       -3.137426    0.736307   -0.000474
     11          1           0       -4.086510    0.358377   -0.049880
     12          1           0       -3.127860    1.325225    0.835794
     13          1           0       -3.067779    1.386587   -0.786967
 ---------------------------------------------------------------------
 Rotational constants (GHZ):           6.7007156           1.3223392           1.1108553
 Standard basis: Aug-CC-pVDZ (5D, 7F)
 There are   213 symmetry adapted cartesian basis functions of A   symmetry.
 There are   201 symmetry adapted basis functions of A   symmetry.
   201 basis functions,   335 primitive gaussians,   213 cartesian basis functions
    24 alpha electrons       24 beta electrons
       nuclear repulsion energy       216.6900892897 Hartrees.
 NAtoms=   13 NActive=   13 NUniq=   13 SFac= 1.00D+00 NAtFMM=   60 NAOKFM=F Big=F
 Integral buffers will be    131072 words long.
 Raffenetti 1 integral format.
 Two-electron integral symmetry is turned on.
 One-electron integrals computed using PRISM.
 NBasis=   201 RedAO= T EigKep=  2.28D-05  NBF=   201
 NBsUse=   201 1.00D-06 EigRej= -1.00D+00 NBFU=   201
 Initial guess from the checkpoint file:  "/scr/Gau-10326.chk"
 B after Tr=    -0.000000   -0.000000   -0.000000
         Rot=    0.999995    0.000001    0.000006    0.003295 Ang=   0.38 deg.
 ExpMin= 2.97D-02 ExpMax= 1.17D+04 ExpMxC= 4.01D+02 IAcc=3 IRadAn=         5 AccDes= 0.00D+00
 Harris functional with IExCor=  205 and IRadAn=       5 diagonalized for initial guess.
 HarFok:  IExCor=  205 AccDes= 0.00D+00 IRadAn=         5 IDoV= 1 UseB2=F ITyADJ=14
 ICtDFT=  3500011 ScaDFX=  1.000000  1.000000  1.000000  1.000000
 FoFCou: FMM=F IPFlag=           0 FMFlag=      100000 FMFlg1=           0
         NFxFlg=           0 DoJE=T BraDBF=F KetDBF=T FulRan=T
         wScrn=  0.000000 ICntrl=       500 IOpCl=  0 I1Cent=   200000004 NGrid=           0
         NMat0=    1 NMatS0=      1 NMatT0=    0 NMatD0=    1 NMtDS0=    0 NMtDT0=    0
 Petite list used in FoFCou.
 Requested convergence on RMS density matrix=1.00D-08 within 128 cycles.
 Requested convergence on MAX density matrix=1.00D-06.
 Requested convergence on             energy=1.00D-06.
 No special actions if energy rises.
 SCF Done:  E(RHF) =  -321.878079235     A.U. after   13 cycles
            NFock= 13  Conv=0.28D-08     -V/T= 2.0023
 ExpMin= 2.97D-02 ExpMax= 1.17D+04 ExpMxC= 4.01D+02 IAcc=3 IRadAn=         5 AccDes= 0.00D+00
 HarFok:  IExCor=  205 AccDes= 0.00D+00 IRadAn=         5 IDoV=-2 UseB2=F ITyADJ=14
 ICtDFT= 12500011 ScaDFX=  1.000000  1.000000  1.000000  1.000000
 Range of M.O.s used for correlation:     7   201
 NBasis=   201 NAE=    24 NBE=    24 NFC=     6 NFV=     0
 NROrb=    195 NOA=    18 NOB=    18 NVA=   177 NVB=   177

 **** Warning!!: The largest alpha MO coefficient is  0.66682762D+02

 Fully direct method using O(ONN) memory.
 JobTyp=1 Pass  1:  I=   7 to  24 NPSUse= 40 ParTrn=T ParDer=T DoDerP=T.
 Spin components of T(2) and E(2):
     alpha-alpha T2 =       0.4260550751D-01 E2=     -0.1296585228D+00
     alpha-beta  T2 =       0.2391937763D+00 E2=     -0.7481971481D+00
     beta-beta   T2 =       0.4260550751D-01 E2=     -0.1296585228D+00
 ANorm=    0.1150827872D+01
 E2 =    -0.1007514194D+01 EUMP2 =    -0.32288559342862D+03
          IDoAtm=1111111111111
          Differentiating once with respect to electric field.
                with respect to dipole field.
          Differentiating once with respect to nuclear coordinates.
 Keep R1 ints in memory in canonical form, NReq=215107246.
          There are     1 degrees of freedom in the 1st order CPHF.  IDoFFX=0 NUNeed=     1.
 LinEq1:  Iter=  0 NonCon=     1 RMS=4.70D-03 Max=1.22D-01 NDo=     1
 AX will form     1 AO Fock derivatives at one time.
 LinEq1:  Iter=  1 NonCon=     1 RMS=1.42D-03 Max=2.03D-02 NDo=     1
 LinEq1:  Iter=  2 NonCon=     1 RMS=5.47D-04 Max=1.15D-02 NDo=     1
 LinEq1:  Iter=  3 NonCon=     1 RMS=1.88D-04 Max=3.08D-03 NDo=     1
 LinEq1:  Iter=  4 NonCon=     1 RMS=6.90D-05 Max=1.08D-03 NDo=     1
 LinEq1:  Iter=  5 NonCon=     1 RMS=2.57D-05 Max=5.21D-04 NDo=     1
 LinEq1:  Iter=  6 NonCon=     1 RMS=1.04D-05 Max=3.43D-04 NDo=     1
 LinEq1:  Iter=  7 NonCon=     1 RMS=3.18D-06 Max=4.30D-05 NDo=     1
 LinEq1:  Iter=  8 NonCon=     1 RMS=1.21D-06 Max=3.18D-05 NDo=     1
 LinEq1:  Iter=  9 NonCon=     1 RMS=3.23D-07 Max=3.05D-06 NDo=     1
 LinEq1:  Iter= 10 NonCon=     1 RMS=6.76D-08 Max=8.11D-07 NDo=     1
 LinEq1:  Iter= 11 NonCon=     1 RMS=2.21D-08 Max=3.49D-07 NDo=     1
 LinEq1:  Iter= 12 NonCon=     1 RMS=6.48D-09 Max=7.67D-08 NDo=     1
 LinEq1:  Iter= 13 NonCon=     1 RMS=1.71D-09 Max=1.27D-08 NDo=     1
 LinEq1:  Iter= 14 NonCon=     1 RMS=5.03D-10 Max=5.47D-09 NDo=     1
 LinEq1:  Iter= 15 NonCon=     1 RMS=1.66D-10 Max=2.01D-09 NDo=     1
 LinEq1:  Iter= 16 NonCon=     0 RMS=3.17D-11 Max=4.21D-10 NDo=     1
 Linear equations converged to 1.000D-10 1.000D-09 after    16 iterations.
 End of Minotr F.D. properties file   721 does not exist.
 End of Minotr F.D. properties file   722 does not exist.
 End of Minotr F.D. properties file   788 does not exist.
 Calling FoFJK, ICntrl=  10002127 FMM=F ISym2X=0 I1Cent= 0 IOpClX= 0 NMat=1 NMatS=1 NMatT=0.
 ***** Axes restored to original set *****
 -------------------------------------------------------------------
 Center     Atomic                   Forces (Hartrees/Bohr)
 Number     Number              X              Y              Z
 -------------------------------------------------------------------
      1        6           0.009881459    0.010290920    0.000807463
      2        6          -0.005046913   -0.005189380   -0.000575140
      3        1          -0.001819318   -0.001751272   -0.000513928
      4        8          -0.005114309   -0.004834950   -0.001704077
      5        6           0.003741061    0.005188929   -0.003287683
      6        1          -0.003668071   -0.003840178   -0.000390230
      7        8          -0.000170181   -0.001305098    0.003097381
      8        1           0.000344593    0.000191370    0.000496705
      9        1          -0.000088780   -0.000087493   -0.000021736
     10        7           0.003675696    0.001552802    0.006736546
     11        1          -0.000580768   -0.000286885   -0.000877014
     12        1          -0.000592239    0.000048971   -0.001854394
     13        1          -0.000562231    0.000022262   -0.001913893
 -------------------------------------------------------------------
 Cartesian Forces:  Max     0.010290920 RMS     0.003501276

 GradGradGradGradGradGradGradGradGradGradGradGradGradGradGradGradGradGrad
 Berny optimization.
 Using GEDIIS/GDIIS optimizer.
 FormGI is forming the generalized inverse of G from B-inverse, IUseBI=4.
 Internal  Forces:  Max     0.009974043 RMS     0.002187175
 Search for a local minimum.
 Step number   2 out of a maximum of   53
 All quantities printed in internal units (Hartrees-Bohrs-Radians)
 Mixed Optimization -- RFO/linear search
 Update second derivatives using D2CorX and points    1    2
 DE= -2.50D-03 DEPred=-2.83D-03 R= 8.82D-01
 TightC=F SS=  1.41D+00  RLast= 2.97D-01 DXNew= 5.0454D-01 8.9089D-01
 Trust test= 8.82D-01 RLast= 2.97D-01 DXMaxT set to 5.05D-01
 ITU=  1  0
 Use linear search instead of GDIIS.
     Eigenvalues ---    0.00230   0.00230   0.00419   0.01074   0.01074
     Eigenvalues ---    0.02042   0.02102   0.02703   0.02974   0.06569
     Eigenvalues ---    0.09200   0.09304   0.12472   0.16000   0.16000
     Eigenvalues ---    0.16000   0.16000   0.16000   0.16274   0.21524
     Eigenvalues ---    0.22000   0.22545   0.32436   0.34383   0.35650
     Eigenvalues ---    0.36495   0.43145   0.43544   0.43562   0.45838
     Eigenvalues ---    0.49401   0.59548   0.91495
 RFO step:  Lambda=-4.16128392D-03 EMin= 2.29998851D-03
 Quartic linear search produced a step of -0.03829.
 Maximum step size (   0.505) exceeded in Quadratic search.
    -- Step size scaled by   0.811
 Iteration  1 RMS(Cart)=  0.14293633 RMS(Int)=  0.04632023
 Iteration  2 RMS(Cart)=  0.13758372 RMS(Int)=  0.01632788
 Iteration  3 RMS(Cart)=  0.06195441 RMS(Int)=  0.00169274
 Iteration  4 RMS(Cart)=  0.00306400 RMS(Int)=  0.00079028
 Iteration  5 RMS(Cart)=  0.00000077 RMS(Int)=  0.00079028
 Variable       Old X    -DE/DX   Delta X   Delta X   Delta X     New X
                                 (Linear)    (Quad)   (Total)
    R1        2.56875   0.00131  -0.00190   0.04505   0.04315   2.61190
    R2        2.07224   0.00035  -0.00092   0.02155   0.02063   2.09287
    R3        2.56249  -0.00997   0.00093  -0.03791  -0.03698   2.52551
    R4        2.78953  -0.00512   0.00004  -0.01339  -0.01335   2.77618
    R5        2.06604  -0.00035  -0.00086   0.01850   0.01764   2.08368
    R6        1.88545   0.00039  -0.00042   0.01019   0.00970   1.89515
    R7        2.33239   0.00333  -0.00071   0.01924   0.01853   2.35092
    R8        2.10809   0.00009  -0.00094   0.02144   0.02050   2.12859
    R9        3.29165   0.00259  -0.00189   0.07005   0.06820   3.35986
   R10        1.93273  -0.00072   0.00017  -0.00528  -0.00511   1.92762
   R11        1.93294  -0.00084   0.00015  -0.00502  -0.00487   1.92807
   R12        1.93297  -0.00085   0.00015  -0.00500  -0.00485   1.92811
    A1        2.11470  -0.00336   0.00214  -0.06437  -0.06223   2.05247
    A2        2.14453   0.00142  -0.00061   0.01907   0.01846   2.16299
    A3        2.02396   0.00193  -0.00154   0.04530   0.04377   2.06772
    A4        2.10006  -0.00160  -0.00004  -0.00530  -0.00534   2.09472
    A5        2.10810   0.00025   0.00074  -0.01615  -0.01542   2.09269
    A6        2.07503   0.00134  -0.00070   0.02146   0.02076   2.09578
    A7        1.88136  -0.00226   0.00011  -0.01431  -0.01421   1.86715
    A8        2.19511  -0.00084  -0.00128   0.02536   0.02408   2.21919
    A9        2.00102   0.00051  -0.00018   0.00611   0.00593   2.00695
   A10        2.08705   0.00032   0.00146  -0.03147  -0.03001   2.05705
   A11        1.92020   0.00000   0.00063  -0.01288  -0.01095   1.90924
   A12        2.00712  -0.00177   0.00048  -0.02059  -0.02139   1.98573
   A13        2.01480  -0.00188   0.00047  -0.02100  -0.02125   1.99356
   A14        1.83478   0.00141  -0.00060   0.02178   0.02171   1.85649
   A15        1.83481   0.00137  -0.00060   0.02145   0.02263   1.85744
   A16        1.83586   0.00144  -0.00061   0.01917   0.01635   1.85220
   A17        2.93624   0.00422   0.00999   0.48225   0.49144   3.42768
   A18        3.14020   0.00005   0.00007   0.00511   0.00538   3.14558
    D1       -0.00014  -0.00000   0.00000  -0.00016  -0.00015  -0.00029
    D2        3.14145  -0.00000   0.00000  -0.00015  -0.00014   3.14131
    D3       -3.14151  -0.00000  -0.00001   0.00003   0.00001  -3.14149
    D4        0.00008  -0.00000  -0.00000   0.00004   0.00002   0.00010
    D5       -3.14131   0.00000   0.00001  -0.00006  -0.00006  -3.14137
    D6        0.00050   0.00000   0.00000   0.00013   0.00011   0.00061
    D7       -0.00019  -0.00000  -0.00000  -0.00005  -0.00006  -0.00024
    D8        3.14140   0.00000  -0.00000   0.00005   0.00005   3.14144
    D9        3.14141  -0.00000  -0.00000  -0.00006  -0.00007   3.14134
   D10       -0.00019  -0.00000  -0.00000   0.00004   0.00003  -0.00015
   D11        3.08863   0.00001   0.00007   0.00630   0.00535   3.09399
   D12       -1.09554  -0.00014  -0.00149  -0.06265  -0.06616  -1.16170
   D13        0.98964   0.00017   0.00139   0.06105   0.06541   1.05505
         Item               Value     Threshold  Converged?
 Maximum Force            0.009974     0.000450     NO 
 RMS     Force            0.002187     0.000300     NO 
 Maximum Displacement     0.619258     0.001800     NO 
 RMS     Displacement     0.331904     0.001200     NO 
 Predicted change in Energy=-2.552333D-03
 GradGradGradGradGradGradGradGradGradGradGradGradGradGradGradGradGradGrad

                          Input orientation:                          
 ---------------------------------------------------------------------
 Center     Atomic      Atomic             Coordinates (Angstroms)
 Number     Number       Type             X           Y           Z
 ---------------------------------------------------------------------
      1          6           0       -0.654414    0.800958   -0.100548
      2          6           0       -1.367567    0.451485   -1.231758
      3          1           0       -0.862238    0.239087    0.830939
      4          8           0        0.264068    1.771216   -0.067877
      5          6           0       -2.358961   -0.630915   -1.170349
      6          1           0        0.618506    1.807537    0.869566
      7          8           0       -2.661528   -1.317171   -0.177788
      8          1           0       -1.191172    0.986211   -2.179786
      9          1           0       -2.890506   -0.844934   -2.140110
     10          7           0        1.523619    2.248481    2.334994
     11          1           0        2.197882    2.979896    2.109369
     12          1           0        0.938195    2.618304    3.084329
     13          1           0        2.056788    1.480977    2.744517
 ---------------------------------------------------------------------
                    Distance matrix (angstroms):
                    1          2          3          4          5
     1  C    0.000000
     2  C    1.382156   0.000000
     3  H    1.107500   2.134289   0.000000
     4  O    1.336442   2.399696   2.103296   0.000000
     5  C    2.469862   1.469090   2.646174   3.723703   0.000000
     6  H    1.890674   3.193576   2.157343   1.002868   4.355757
     7  O    2.919065   2.431734   2.583973   4.255505   1.244053
     8  H    2.155379   1.102635   3.119432   2.682185   2.235574
     9  H    3.445125   2.196622   3.757141   4.592355   1.126402
    10  N    3.573656   4.930504   3.462969   2.754640   5.970995
    11  H    4.215103   5.501674   4.302412   3.152926   6.675277
    12  H    3.997823   5.351659   3.738983   3.332928   6.287364
    13  H    3.988412   5.347600   3.704697   3.347782   6.267783
                    6          7          8          9         10
     6  H    0.000000
     7  O    4.649664   0.000000
     8  H    3.639789   3.387551   0.000000
     9  H    5.329814   2.031292   2.498479   0.000000
    10  N    1.777959   6.045114   5.417255   7.005732   0.000000
    11  H    2.325073   6.878207   5.818704   7.653698   1.020051
    12  H    2.380067   6.251989   5.908370   7.344912   1.020291
    13  H    2.385526   6.215465   5.919696   7.331109   1.020314
                   11         12         13
    11  H    0.000000
    12  H    1.633435   0.000000
    13  H    1.634037   1.631022   0.000000
 Stoichiometry    C3H7NO2
 Framework group  C1[X(C3H7NO2)]
 Deg. of freedom    33
 Full point group                 C1      NOp   1
 Largest Abelian subgroup         C1      NOp   1
 Largest concise Abelian subgroup C1      NOp   1
                         Standard orientation:                         
 ---------------------------------------------------------------------
 Center     Atomic      Atomic             Coordinates (Angstroms)
 Number     Number       Type             X           Y           Z
 ---------------------------------------------------------------------
      1          6           0       -0.003330   -0.240880   -0.000986
      2          6           0        1.237773   -0.849170    0.000688
      3          1           0       -0.032081    0.866246   -0.001848
      4          8           0       -1.161194   -0.908283   -0.001189
      5          6           0        2.457547   -0.030406    0.000899
      6          1           0       -1.893924   -0.223557   -0.002749
      7          8           0        2.528707    1.211610   -0.000538
      8          1           0        1.310688   -1.949391    0.001859
      9          1           0        3.421649   -0.612888    0.002462
     10          7           0       -3.482734    0.574447    0.000562
     11          1           0       -4.216782   -0.132247   -0.046984
     12          1           0       -3.665733    1.123014    0.841145
     13          1           0       -3.636717    1.203816   -0.787616
 ---------------------------------------------------------------------
 Rotational constants (GHZ):           8.5103990           1.1296551           1.0025826
 Standard basis: Aug-CC-pVDZ (5D, 7F)
 There are   213 symmetry adapted cartesian basis functions of A   symmetry.
 There are   201 symmetry adapted basis functions of A   symmetry.
   201 basis functions,   335 primitive gaussians,   213 cartesian basis functions
    24 alpha electrons       24 beta electrons
       nuclear repulsion energy       213.2915654067 Hartrees.
 NAtoms=   13 NActive=   13 NUniq=   13 SFac= 1.00D+00 NAtFMM=   60 NAOKFM=F Big=F
 Integral buffers will be    131072 words long.
 Raffenetti 1 integral format.
 Two-electron integral symmetry is turned on.
 One-electron integrals computed using PRISM.
 NBasis=   201 RedAO= T EigKep=  2.59D-05  NBF=   201
 NBsUse=   201 1.00D-06 EigRej= -1.00D+00 NBFU=   201
 Initial guess from the checkpoint file:  "/scr/Gau-10326.chk"
 B after Tr=    -0.000000   -0.000000   -0.000000
         Rot=    0.999994   -0.000089   -0.000012   -0.003419 Ang=  -0.39 deg.
 ExpMin= 2.97D-02 ExpMax= 1.17D+04 ExpMxC= 4.01D+02 IAcc=3 IRadAn=         5 AccDes= 0.00D+00
 Harris functional with IExCor=  205 and IRadAn=       5 diagonalized for initial guess.
 HarFok:  IExCor=  205 AccDes= 0.00D+00 IRadAn=         5 IDoV= 1 UseB2=F ITyADJ=14
 ICtDFT=  3500011 ScaDFX=  1.000000  1.000000  1.000000  1.000000
 FoFCou: FMM=F IPFlag=           0 FMFlag=      100000 FMFlg1=           0
         NFxFlg=           0 DoJE=T BraDBF=F KetDBF=T FulRan=T
         wScrn=  0.000000 ICntrl=       500 IOpCl=  0 I1Cent=   200000004 NGrid=           0
         NMat0=    1 NMatS0=      1 NMatT0=    0 NMatD0=    1 NMtDS0=    0 NMtDT0=    0
 Petite list used in FoFCou.
 Requested convergence on RMS density matrix=1.00D-08 within 128 cycles.
 Requested convergence on MAX density matrix=1.00D-06.
 Requested convergence on             energy=1.00D-06.
 No special actions if energy rises.
 SCF Done:  E(RHF) =  -321.875141192     A.U. after   15 cycles
            NFock= 15  Conv=0.27D-08     -V/T= 2.0026
 ExpMin= 2.97D-02 ExpMax= 1.17D+04 ExpMxC= 4.01D+02 IAcc=3 IRadAn=         5 AccDes= 0.00D+00
 HarFok:  IExCor=  205 AccDes= 0.00D+00 IRadAn=         5 IDoV=-2 UseB2=F ITyADJ=14
 ICtDFT= 12500011 ScaDFX=  1.000000  1.000000  1.000000  1.000000
 Range of M.O.s used for correlation:     7   201
 NBasis=   201 NAE=    24 NBE=    24 NFC=     6 NFV=     0
 NROrb=    195 NOA=    18 NOB=    18 NVA=   177 NVB=   177

 **** Warning!!: The largest alpha MO coefficient is  0.44679467D+02

 Fully direct method using O(ONN) memory.
 JobTyp=1 Pass  1:  I=   7 to  24 NPSUse= 40 ParTrn=T ParDer=T DoDerP=T.
 Spin components of T(2) and E(2):
     alpha-alpha T2 =       0.4284780800D-01 E2=     -0.1298377863D+00
     alpha-beta  T2 =       0.2406409565D+00 E2=     -0.7493067196D+00
     beta-beta   T2 =       0.4284780800D-01 E2=     -0.1298377863D+00
 ANorm=    0.1151666867D+01
 E2 =    -0.1008982292D+01 EUMP2 =    -0.32288412348455D+03
          IDoAtm=1111111111111
          Differentiating once with respect to electric field.
                with respect to dipole field.
          Differentiating once with respect to nuclear coordinates.
 Keep R1 ints in memory in canonical form, NReq=215100809.
          There are     1 degrees of freedom in the 1st order CPHF.  IDoFFX=0 NUNeed=     1.
 LinEq1:  Iter=  0 NonCon=     1 RMS=4.77D-03 Max=1.17D-01 NDo=     1
 AX will form     1 AO Fock derivatives at one time.
 LinEq1:  Iter=  1 NonCon=     1 RMS=1.46D-03 Max=1.78D-02 NDo=     1
 LinEq1:  Iter=  2 NonCon=     1 RMS=5.71D-04 Max=1.18D-02 NDo=     1
 LinEq1:  Iter=  3 NonCon=     1 RMS=2.05D-04 Max=3.16D-03 NDo=     1
 LinEq1:  Iter=  4 NonCon=     1 RMS=7.65D-05 Max=1.12D-03 NDo=     1
 LinEq1:  Iter=  5 NonCon=     1 RMS=2.91D-05 Max=6.69D-04 NDo=     1
 LinEq1:  Iter=  6 NonCon=     1 RMS=1.14D-05 Max=3.33D-04 NDo=     1
 LinEq1:  Iter=  7 NonCon=     1 RMS=3.46D-06 Max=3.79D-05 NDo=     1
 LinEq1:  Iter=  8 NonCon=     1 RMS=1.30D-06 Max=3.03D-05 NDo=     1
 LinEq1:  Iter=  9 NonCon=     1 RMS=3.45D-07 Max=3.63D-06 NDo=     1
 LinEq1:  Iter= 10 NonCon=     1 RMS=7.05D-08 Max=9.67D-07 NDo=     1
 LinEq1:  Iter= 11 NonCon=     1 RMS=2.32D-08 Max=3.41D-07 NDo=     1
 LinEq1:  Iter= 12 NonCon=     1 RMS=6.78D-09 Max=8.24D-08 NDo=     1
 LinEq1:  Iter= 13 NonCon=     1 RMS=1.72D-09 Max=1.27D-08 NDo=     1
 LinEq1:  Iter= 14 NonCon=     1 RMS=4.93D-10 Max=4.83D-09 NDo=     1
 LinEq1:  Iter= 15 NonCon=     1 RMS=1.68D-10 Max=1.70D-09 NDo=     1
 LinEq1:  Iter= 16 NonCon=     0 RMS=3.28D-11 Max=4.05D-10 NDo=     1
 Linear equations converged to 1.000D-10 1.000D-09 after    16 iterations.
 End of Minotr F.D. properties file   721 does not exist.
 End of Minotr F.D. properties file   722 does not exist.
 End of Minotr F.D. properties file   788 does not exist.
 Calling FoFJK, ICntrl=  10002127 FMM=F ISym2X=0 I1Cent= 0 IOpClX= 0 NMat=1 NMatS=1 NMatT=0.
 ***** Axes restored to original set *****
 -------------------------------------------------------------------
 Center     Atomic                   Forces (Hartrees/Bohr)
 Number     Number              X              Y              Z
 -------------------------------------------------------------------
      1        6          -0.018132566   -0.014598659   -0.013009928
      2        6           0.010666165    0.007247856    0.011378368
      3        1           0.002598630    0.004162313   -0.003854686
      4        8           0.001418670   -0.002094304    0.009672961
      5        6          -0.007154621   -0.006763327   -0.002464641
      6        1           0.004600898    0.007777631   -0.007546144
      7        8           0.005603495    0.007640486   -0.004489567
      8        1          -0.002152491   -0.004086364    0.004880408
      9        1           0.004125951    0.002821577    0.004360854
     10        7          -0.001830848   -0.002555860    0.001914979
     11        1          -0.000096922    0.000087632   -0.000933089
     12        1          -0.000119478    0.000386917    0.000109901
     13        1           0.000473118   -0.000025899   -0.000019417
 -------------------------------------------------------------------
 Cartesian Forces:  Max     0.018132566 RMS     0.006407868

 GradGradGradGradGradGradGradGradGradGradGradGradGradGradGradGradGradGrad
 Berny optimization.
 Using GEDIIS/GDIIS optimizer.
 FormGI is forming the generalized inverse of G from B-inverse, IUseBI=4.
 Internal  Forces:  Max     0.018640244 RMS     0.004397230
 Search for a local minimum.
 Step number   3 out of a maximum of   53
 All quantities printed in internal units (Hartrees-Bohrs-Radians)
 Mixed Optimization -- RFO/linear search
 Update second derivatives using D2CorX and points    1    3    2
 DE=  1.47D-03 DEPred=-2.55D-03 R=-5.76D-01
 Trust test=-5.76D-01 RLast= 5.20D-01 DXMaxT set to 2.52D-01
 ITU= -1  1  0
 Use linear search instead of GDIIS.
     Eigenvalues ---    0.00230   0.00230   0.01074   0.01074   0.01953
     Eigenvalues ---    0.02023   0.02102   0.02681   0.02974   0.06493
     Eigenvalues ---    0.08837   0.10040   0.12925   0.16000   0.16000
     Eigenvalues ---    0.16000   0.16000   0.16122   0.17098   0.21666
     Eigenvalues ---    0.22001   0.22652   0.32991   0.34018   0.35643
     Eigenvalues ---    0.36719   0.43233   0.43544   0.43562   0.47283
     Eigenvalues ---    0.49288   0.60974   0.92420
 RFO step:  Lambda=-3.86377895D-04 EMin= 2.29998293D-03
 Quartic linear search produced a step of -0.67008.
 Iteration  1 RMS(Cart)=  0.12788238 RMS(Int)=  0.02319547
 Iteration  2 RMS(Cart)=  0.10457632 RMS(Int)=  0.00348378
 Iteration  3 RMS(Cart)=  0.00620287 RMS(Int)=  0.00013230
 Iteration  4 RMS(Cart)=  0.00000173 RMS(Int)=  0.00013229
 Iteration  5 RMS(Cart)=  0.00000000 RMS(Int)=  0.00013229
 Variable       Old X    -DE/DX   Delta X   Delta X   Delta X     New X
                                 (Linear)    (Quad)   (Total)
    R1        2.61190  -0.01864  -0.02891  -0.00544  -0.03435   2.57754
    R2        2.09287  -0.00584  -0.01382  -0.00311  -0.01694   2.07594
    R3        2.52551   0.00573   0.02478  -0.01349   0.01129   2.53680
    R4        2.77618  -0.00457   0.00895  -0.01609  -0.00714   2.76904
    R5        2.08368  -0.00652  -0.01182  -0.00537  -0.01719   2.06649
    R6        1.89515  -0.00477  -0.00650  -0.00188  -0.00838   1.88677
    R7        2.35092  -0.00916  -0.01241   0.00085  -0.01156   2.33936
    R8        2.12859  -0.00624  -0.01374  -0.00440  -0.01814   2.11045
    R9        3.35986  -0.00044  -0.04570   0.02824  -0.01746   3.34240
   R10        1.92762   0.00021   0.00343  -0.00146   0.00197   1.92958
   R11        1.92807   0.00029   0.00326  -0.00157   0.00170   1.92977
   R12        1.92811   0.00026   0.00325  -0.00160   0.00165   1.92976
    A1        2.05247   0.00296   0.04170  -0.01319   0.02850   2.08098
    A2        2.16299  -0.00133  -0.01237   0.00410  -0.00827   2.15472
    A3        2.06772  -0.00163  -0.02933   0.00909  -0.02024   2.04749
    A4        2.09472  -0.00133   0.00358  -0.00770  -0.00412   2.09059
    A5        2.09269   0.00235   0.01033   0.00353   0.01386   2.10655
    A6        2.09578  -0.00102  -0.01391   0.00417  -0.00974   2.08604
    A7        1.86715   0.00766   0.00952   0.00441   0.01393   1.88108
    A8        2.21919  -0.00640  -0.01614  -0.01059  -0.02672   2.19247
    A9        2.00695   0.00080  -0.00397   0.00207  -0.00190   2.00504
   A10        2.05705   0.00560   0.02011   0.00852   0.02863   2.08567
   A11        1.90924  -0.00186   0.00734  -0.00457   0.00307   1.91231
   A12        1.98573   0.00051   0.01433  -0.00877   0.00565   1.99138
   A13        1.99356   0.00067   0.01424  -0.00894   0.00521   1.99877
   A14        1.85649  -0.00004  -0.01455   0.00795  -0.00618   1.85031
   A15        1.85744  -0.00013  -0.01517   0.00762  -0.00744   1.85001
   A16        1.85220   0.00083  -0.01095   0.00909  -0.00210   1.85010
   A17        3.42768  -0.00704  -0.32931  -0.01468  -0.34410   3.08358
   A18        3.14558  -0.00007  -0.00361  -0.00069  -0.00434   3.14124
    D1       -0.00029   0.00001   0.00010  -0.00001   0.00008  -0.00020
    D2        3.14131   0.00001   0.00009   0.00003   0.00012   3.14143
    D3       -3.14149  -0.00000  -0.00001  -0.00013  -0.00014   3.14155
    D4        0.00010  -0.00000  -0.00002  -0.00008  -0.00010   0.00000
    D5       -3.14137   0.00000   0.00004   0.00014   0.00018  -3.14119
    D6        0.00061  -0.00001  -0.00008   0.00003  -0.00005   0.00057
    D7       -0.00024   0.00001   0.00004   0.00007   0.00010  -0.00014
    D8        3.14144  -0.00000  -0.00003  -0.00002  -0.00005   3.14139
    D9        3.14134   0.00000   0.00005   0.00002   0.00006   3.14141
   D10       -0.00015  -0.00000  -0.00002  -0.00007  -0.00009  -0.00024
   D11        3.09399  -0.00006  -0.00359   0.00179  -0.00154   3.09244
   D12       -1.16170   0.00011   0.04433   0.00702   0.05084  -1.11086
   D13        1.05505  -0.00005  -0.04383  -0.00216  -0.04573   1.00932
         Item               Value     Threshold  Converged?
 Maximum Force            0.018640     0.000450     NO 
 RMS     Force            0.004397     0.000300     NO 
 Maximum Displacement     0.418789     0.001800     NO 
 RMS     Displacement     0.232417     0.001200     NO 
 Predicted change in Energy=-5.427949D-04
 GradGradGradGradGradGradGradGradGradGradGradGradGradGradGradGradGradGrad

                          Input orientation:                          
 ---------------------------------------------------------------------
 Center     Atomic      Atomic             Coordinates (Angstroms)
 Number     Number       Type             X           Y           Z
 ---------------------------------------------------------------------
      1          6           0       -0.583582    0.901137   -0.161347
      2          6           0       -1.337956    0.476034   -1.215217
      3          1           0       -0.706483    0.416063    0.816602
      4          8           0        0.315816    1.893956   -0.247774
      5          6           0       -2.296964   -0.616296   -1.030126
      6          1           0        0.729682    2.009684    0.653446
      7          8           0       -2.504371   -1.221796    0.029514
      8          1           0       -1.235233    0.941945   -2.199188
      9          1           0       -2.870765   -0.898015   -1.945898
     10          7           0        1.403497    2.138134    2.283736
     11          1           0        2.137540    2.847833    2.295449
     12          1           0        0.726317    2.421480    2.993644
     13          1           0        1.835174    1.280972    2.632658
 ---------------------------------------------------------------------
                    Distance matrix (angstroms):
                    1          2          3          4          5
     1  C    0.000000
     2  C    1.363978   0.000000
     3  H    1.098538   2.128531   0.000000
     4  O    1.342415   2.383571   2.088579   0.000000
     5  C    2.448072   1.465312   2.646847   3.706758   0.000000
     6  H    1.901954   3.181055   2.151469   0.998437   4.346351
     7  O    2.869268   2.406762   2.556265   4.211681   1.237935
     8  H    2.139886   1.093537   3.106625   2.668351   2.218579
     9  H    3.413616   2.184355   3.747308   4.564321   1.116804
    10  N    3.384830   4.745610   3.093546   2.766083   5.679962
    11  H    4.150901   5.479898   4.023551   3.270557   6.536395
    12  H    3.739150   5.075479   3.288483   3.309620   5.878692
    13  H    3.714986   5.052012   3.241319   3.313772   5.838679
                    6          7          8          9         10
     6  H    0.000000
     7  O    4.614201   0.000000
     8  H    3.624704   3.355532   0.000000
     9  H    5.307967   2.035026   2.474787   0.000000
    10  N    1.768720   5.625129   5.337638   6.736269   0.000000
    11  H    2.319640   6.575992   5.933783   7.556687   1.021092
    12  H    2.376155   5.700602   5.744755   6.953927   1.021189
    13  H    2.381264   5.645516   5.734900   6.917877   1.021186
                   11         12         13
    11  H    0.000000
    12  H    1.631197   0.000000
    13  H    1.631009   1.631145   0.000000
 Stoichiometry    C3H7NO2
 Framework group  C1[X(C3H7NO2)]
 Deg. of freedom    33
 Full point group                 C1      NOp   1
 Largest Abelian subgroup         C1      NOp   1
 Largest concise Abelian subgroup C1      NOp   1
                         Standard orientation:                         
 ---------------------------------------------------------------------
 Center     Atomic      Atomic             Coordinates (Angstroms)
 Number     Number       Type             X           Y           Z
 ---------------------------------------------------------------------
      1          6           0       -0.036491   -0.340149    0.000257
      2          6           0        1.225906   -0.856663   -0.000223
      3          1           0       -0.169971    0.750249    0.000863
      4          8           0       -1.145571   -1.096469    0.000213
      5          6           0        2.381128    0.044781   -0.000184
      6          1           0       -1.933093   -0.482723    0.000238
      7          8           0        2.330443    1.281678    0.000117
      8          1           0        1.386492   -1.938346   -0.000679
      9          1           0        3.374844   -0.464906   -0.000394
     10          7           0       -3.262799    0.683577   -0.000293
     11          1           0       -4.153558    0.186615   -0.047252
     12          1           0       -3.308173    1.264531    0.838313
     13          1           0       -3.259190    1.330058   -0.790779
 ---------------------------------------------------------------------
 Rotational constants (GHZ):           7.0830620           1.2619718           1.0772534
 Standard basis: Aug-CC-pVDZ (5D, 7F)
 There are   213 symmetry adapted cartesian basis functions of A   symmetry.
 There are   201 symmetry adapted basis functions of A   symmetry.
   201 basis functions,   335 primitive gaussians,   213 cartesian basis functions
    24 alpha electrons       24 beta electrons
       nuclear repulsion energy       215.9035339201 Hartrees.
 NAtoms=   13 NActive=   13 NUniq=   13 SFac= 1.00D+00 NAtFMM=   60 NAOKFM=F Big=F
 Integral buffers will be    131072 words long.
 Raffenetti 1 integral format.
 Two-electron integral symmetry is turned on.
 One-electron integrals computed using PRISM.
 NBasis=   201 RedAO= T EigKep=  2.31D-05  NBF=   201
 NBsUse=   201 1.00D-06 EigRej= -1.00D+00 NBFU=   201
 Lowest energy guess from the checkpoint file:  "/scr/Gau-10326.chk"
 B after Tr=     0.000000    0.000000    0.000000
         Rot=    0.999988    0.000062   -0.000017   -0.004970 Ang=   0.57 deg.
 B after Tr=     0.000000    0.000000    0.000000
         Rot=    0.999999    0.000156    0.000001   -0.001203 Ang=   0.14 deg.
 Requested convergence on RMS density matrix=1.00D-08 within 128 cycles.
 Requested convergence on MAX density matrix=1.00D-06.
 Requested convergence on             energy=1.00D-06.
 No special actions if energy rises.
 SCF Done:  E(RHF) =  -321.879466840     A.U. after   11 cycles
            NFock= 11  Conv=0.65D-08     -V/T= 2.0022
 ExpMin= 2.97D-02 ExpMax= 1.17D+04 ExpMxC= 4.01D+02 IAcc=3 IRadAn=         5 AccDes= 0.00D+00
 HarFok:  IExCor=  205 AccDes= 0.00D+00 IRadAn=         5 IDoV=-2 UseB2=F ITyADJ=14
 ICtDFT= 12500011 ScaDFX=  1.000000  1.000000  1.000000  1.000000
 Range of M.O.s used for correlation:     7   201
 NBasis=   201 NAE=    24 NBE=    24 NFC=     6 NFV=     0
 NROrb=    195 NOA=    18 NOB=    18 NVA=   177 NVB=   177

 **** Warning!!: The largest alpha MO coefficient is  0.65911864D+02

 Fully direct method using O(ONN) memory.
 JobTyp=1 Pass  1:  I=   7 to  24 NPSUse= 40 ParTrn=T ParDer=T DoDerP=T.
 Spin components of T(2) and E(2):
     alpha-alpha T2 =       0.4256235541D-01 E2=     -0.1296125771D+00
     alpha-beta  T2 =       0.2388018747D+00 E2=     -0.7476147454D+00
     beta-beta   T2 =       0.4256235541D-01 E2=     -0.1296125771D+00
 ANorm=    0.1150620087D+01
 E2 =    -0.1006839900D+01 EUMP2 =    -0.32288630673951D+03
          IDoAtm=1111111111111
          Differentiating once with respect to electric field.
                with respect to dipole field.
          Differentiating once with respect to nuclear coordinates.
 Keep R1 ints in memory in canonical form, NReq=215105509.
          There are     1 degrees of freedom in the 1st order CPHF.  IDoFFX=0 NUNeed=     1.
 LinEq1:  Iter=  0 NonCon=     1 RMS=4.71D-03 Max=8.89D-02 NDo=     1
 AX will form     1 AO Fock derivatives at one time.
 LinEq1:  Iter=  1 NonCon=     1 RMS=1.42D-03 Max=2.13D-02 NDo=     1
 LinEq1:  Iter=  2 NonCon=     1 RMS=5.54D-04 Max=8.65D-03 NDo=     1
 LinEq1:  Iter=  3 NonCon=     1 RMS=1.93D-04 Max=2.68D-03 NDo=     1
 LinEq1:  Iter=  4 NonCon=     1 RMS=7.15D-05 Max=9.26D-04 NDo=     1
 LinEq1:  Iter=  5 NonCon=     1 RMS=2.68D-05 Max=4.31D-04 NDo=     1
 LinEq1:  Iter=  6 NonCon=     1 RMS=1.07D-05 Max=2.50D-04 NDo=     1
 LinEq1:  Iter=  7 NonCon=     1 RMS=3.27D-06 Max=4.61D-05 NDo=     1
 LinEq1:  Iter=  8 NonCon=     1 RMS=1.23D-06 Max=2.26D-05 NDo=     1
 LinEq1:  Iter=  9 NonCon=     1 RMS=3.26D-07 Max=3.41D-06 NDo=     1
 LinEq1:  Iter= 10 NonCon=     1 RMS=6.81D-08 Max=6.63D-07 NDo=     1
 LinEq1:  Iter= 11 NonCon=     1 RMS=2.22D-08 Max=3.76D-07 NDo=     1
 LinEq1:  Iter= 12 NonCon=     1 RMS=6.47D-09 Max=5.75D-08 NDo=     1
 LinEq1:  Iter= 13 NonCon=     1 RMS=1.68D-09 Max=1.26D-08 NDo=     1
 LinEq1:  Iter= 14 NonCon=     1 RMS=4.86D-10 Max=5.62D-09 NDo=     1
 LinEq1:  Iter= 15 NonCon=     1 RMS=1.62D-10 Max=1.77D-09 NDo=     1
 LinEq1:  Iter= 16 NonCon=     0 RMS=3.11D-11 Max=2.96D-10 NDo=     1
 Linear equations converged to 1.000D-10 1.000D-09 after    16 iterations.
 End of Minotr F.D. properties file   721 does not exist.
 End of Minotr F.D. properties file   722 does not exist.
 End of Minotr F.D. properties file   788 does not exist.
 Calling FoFJK, ICntrl=  10002127 FMM=F ISym2X=0 I1Cent= 0 IOpClX= 0 NMat=1 NMatS=1 NMatT=0.
 ***** Axes restored to original set *****
 -------------------------------------------------------------------
 Center     Atomic                   Forces (Hartrees/Bohr)
 Number     Number              X              Y              Z
 -------------------------------------------------------------------
      1        6          -0.001299330   -0.000938158   -0.001226246
      2        6           0.001725716    0.001557646    0.000785054
      3        1           0.000165732    0.000274970   -0.000279133
      4        8           0.001092740    0.000444460    0.002002622
      5        6          -0.000969129   -0.000887785   -0.000368587
      6        1          -0.000782186   -0.000285123   -0.001586833
      7        8          -0.000104271    0.000005626   -0.000335725
      8        1          -0.000109772   -0.000256000    0.000382305
      9        1           0.000242890   -0.000022712    0.000765612
     10        7           0.000655030    0.000210923    0.001447971
     11        1          -0.000205630   -0.000090185   -0.000286864
     12        1          -0.000248296    0.000055539   -0.000624847
     13        1          -0.000163495   -0.000069201   -0.000675328
 -------------------------------------------------------------------
 Cartesian Forces:  Max     0.002002622 RMS     0.000806844

 GradGradGradGradGradGradGradGradGradGradGradGradGradGradGradGradGradGrad
 Berny optimization.
 Using GEDIIS/GDIIS optimizer.
 FormGI is forming the generalized inverse of G from B-inverse, IUseBI=4.
 Internal  Forces:  Max     0.001887175 RMS     0.000499065
 Search for a local minimum.
 Step number   4 out of a maximum of   53
 All quantities printed in internal units (Hartrees-Bohrs-Radians)
 Mixed Optimization -- En-DIIS/RFO-DIIS
 Update second derivatives using D2CorX and points    1    3    2    4
 DE= -7.13D-04 DEPred=-5.43D-04 R= 1.31D+00
 TightC=F SS=  1.41D+00  RLast= 1.72D-01 DXNew= 4.2426D-01 5.1488D-01
 Trust test= 1.31D+00 RLast= 1.72D-01 DXMaxT set to 4.24D-01
 ITU=  1 -1  1  0
 Use linear search instead of GDIIS.
     Eigenvalues ---    0.00230   0.00230   0.01074   0.01074   0.02036
     Eigenvalues ---    0.02103   0.02134   0.02691   0.02974   0.06474
     Eigenvalues ---    0.09216   0.09608   0.12015   0.16000   0.16000
     Eigenvalues ---    0.16000   0.16051   0.16190   0.17220   0.21592
     Eigenvalues ---    0.22009   0.22730   0.33559   0.35052   0.35700
     Eigenvalues ---    0.36653   0.43009   0.43543   0.43562   0.47123
     Eigenvalues ---    0.50110   0.59977   0.92361
 RFO step:  Lambda=-3.02505205D-05 EMin= 2.29974312D-03
 Quartic linear search produced a step of -0.01563.
 Iteration  1 RMS(Cart)=  0.00386979 RMS(Int)=  0.00000882
 Iteration  2 RMS(Cart)=  0.00001242 RMS(Int)=  0.00000121
 Iteration  3 RMS(Cart)=  0.00000000 RMS(Int)=  0.00000121
 Variable       Old X    -DE/DX   Delta X   Delta X   Delta X     New X
                                 (Linear)    (Quad)   (Total)
    R1        2.57754  -0.00151  -0.00014  -0.00227  -0.00241   2.57513
    R2        2.07594  -0.00039  -0.00006  -0.00097  -0.00103   2.07491
    R3        2.53680   0.00041   0.00040   0.00002   0.00042   2.53722
    R4        2.76904   0.00123   0.00032   0.00284   0.00316   2.77220
    R5        2.06649  -0.00046  -0.00001  -0.00126  -0.00127   2.06522
    R6        1.88677  -0.00189  -0.00002  -0.00373  -0.00375   1.88302
    R7        2.33936  -0.00027  -0.00011  -0.00009  -0.00020   2.33916
    R8        2.11045  -0.00075  -0.00004  -0.00213  -0.00216   2.10829
    R9        3.34240  -0.00011  -0.00079   0.00007  -0.00072   3.34168
   R10        1.92958  -0.00021   0.00005  -0.00057  -0.00052   1.92906
   R11        1.92977  -0.00025   0.00005  -0.00067  -0.00062   1.92915
   R12        1.92976  -0.00024   0.00005  -0.00064  -0.00059   1.92917
    A1        2.08098   0.00002   0.00053  -0.00062  -0.00009   2.08089
    A2        2.15472   0.00033  -0.00016   0.00176   0.00160   2.15632
    A3        2.04749  -0.00034  -0.00037  -0.00114  -0.00151   2.04598
    A4        2.09059   0.00004   0.00015  -0.00008   0.00007   2.09066
    A5        2.10655   0.00008   0.00002   0.00045   0.00048   2.10703
    A6        2.08604  -0.00012  -0.00017  -0.00037  -0.00054   2.08550
    A7        1.88108   0.00013   0.00000   0.00066   0.00067   1.88175
    A8        2.19247   0.00014   0.00004   0.00054   0.00058   2.19305
    A9        2.00504   0.00024  -0.00006   0.00173   0.00167   2.00671
   A10        2.08567  -0.00038   0.00002  -0.00227  -0.00225   2.08342
   A11        1.91231  -0.00012   0.00012  -0.00094  -0.00081   1.91150
   A12        1.99138  -0.00058   0.00025  -0.00404  -0.00380   1.98758
   A13        1.99877  -0.00063   0.00025  -0.00436  -0.00412   1.99465
   A14        1.85031   0.00039  -0.00024   0.00286   0.00261   1.85292
   A15        1.85001   0.00041  -0.00024   0.00298   0.00274   1.85275
   A16        1.85010   0.00068  -0.00022   0.00458   0.00435   1.85445
   A17        3.08358   0.00002  -0.00230   0.00410   0.00179   3.08537
   A18        3.14124   0.00002  -0.00002   0.00637   0.00636   3.14760
[...]
 4456,0.00025940,0.00015260,-0.00017422,-0.00010568,-0.00006814,0.00073
 353,0.00041991,0.00047328,-0.00028205,-0.00028756,0.00014796,-0.000878
 57,0.00107387,-0.00167690,0.00009989,0.00015163,-0.00015809,0.00000733
 ,-0.00001124,-0.00002548,0.00002956,0.00001598,0.00001810,0.69045636,-
 1.02214220,0.48578816,0.01827287,-0.01421009,0.00834084,-0.00000865,0.
 00066021,0.00816937,-0.70779174,1.03487662,0.00000942,0.00008872,0.000
 00199,-0.00008550,-0.00004260,-0.00000096,-0.00004975,-0.00003040,-0.0
 0005609,0.00002517,-0.00020659,-0.00006981,0.00003558,0.00004354,-0.00
 003285,-0.00001215,0.00049412,0.00027542,-0.00000672,-0.00003101,0.000
 03919,0.00000600,0.00000237,-0.00000049,-0.00000067,-0.00000167,-0.000
 00017,-0.26601156,0.52336512,0.10976411,-0.00148753,0.00045405,0.01176
 136,0.01530508,-0.02317336,0.01595824,0.25227264,-0.50096230,-0.137639
 96,-0.00059920,-0.00035231,-0.00057365,0.00005859,0.00021001,-0.000008
 06,0.00042507,0.00012179,0.00000194,-0.00025392,-0.00009911,0.00026764
 ,-0.00015012,-0.00000829,-0.00056984,0.00022305,0.00011489,0.00003214,
 -0.00011042,-0.00004935,0.00008233,0.00011451,0.00007184,0.00010900,-0
 .00004830,-0.00005606,-0.00009861,-0.00013246,0.00005602,0.00014564,0.
 00001470,0.00007757,0.00001358,0.00002879,-0.00014562,-0.00012745,-0.0
 0010986,-0.00008695,-0.00000437,0.00007263,0.00003508,0.00002651,-0.00
 004173,-0.00001837,-0.00004349,0.00011481,0.00027278,-0.00009545,-0.00
 003747,0.00000382,-0.00005774,0.00007617,0.00003296,0.00002239,-0.0000
 1961,0.00039121,0.00023827,-0.00004531,-0.00023078,-0.00002766,-0.0001
 1021,-0.00001023,0.00008045,0.00005398,-0.00033263,-0.00023584,-0.0001
 2308,-0.00009296,-0.00024582,-0.00001873,-0.00002107,0.00006700,0.0000
 2087,0.00001959,0.00005267,0.00002431,0.00009070,0.00025004,-0.0000645
 5,-0.00005781,-0.00012692,-0.00015161,0.00003844,-0.00007834,0.0000233
 6,-0.00005094,0.00000225,-0.00006539,0.00003496,0.00001129,0.00091434,
 -0.00004155,-0.00015271,-0.00007857,0.00022336,0.00052768,0.00027596,0
 .00003896,-0.00005928,0.00000081,-0.00000492,0.00008673,-0.00001334,-0
 .00009055,-0.00112272,-0.00009525,0.00000066,0.00012333,0.00019238,-0.
 00009266,-0.00020041,0.00001326,0.00005975,0.00000165,0.00007512,-0.00
 004799,-0.00001388,-0.00038613,-0.00022380,0.00047321,-0.00003737,-0.0
 0016228,-0.00009093,-0.00000010,0.00011465,0.00004788,-0.00005278,-0.0
 0002955,-0.00002630,0.00008382,0.00030053,0.00040454,-0.00002310,-0.00
 001799,0.00001482,-0.00032802,-0.00021098,-0.00000874,-0.00010276,0.00
 012265,-0.00007470,0.00003947,-0.00000443,-0.00006179,-0.00004404,0.00
 034332,-0.00004065,0.00029360,-0.00001669,-0.00002912,0.00001043,-0.00
 087648,0.00003070,-0.00016561,-0.00016188,0.00013569,0.00015383,0.0000
 8081,-0.00001002,0.00000808,-0.00000433,-0.00001349,0.00035488,0.00024
 806,-0.00009844,-0.00000687,-0.00002859,0.00000357,-0.00081717,-0.0004
 4182,-0.00025729,0.00001473,-0.00001559,-0.00000057,0.00010020,0.00002
 235,0.00017844,-0.00000536,0.00000744,-0.00000780,0.00001447,0.0000443
 2,0.00001239,-0.00039780,-0.00008037,0.00023494,0.00001180,0.00000147,
 -0.00001120,0.00021874,0.00004856,0.00002196,0.00006967,-0.00009517,-0
 .00012221,-0.00026011,0.00000242,0.00000145,-0.00000695,-0.00002933,-0
 .00002807,0.00000166,-0.00002573,0.00050633,0.00013406,0.00000856,0.00
 001960,0.00002090,0.00004318,-0.00025703,-0.00000804,-0.00007182,-0.00
 005858,-0.00013269,0.00008239,0.00004676,0.00001670,-0.00005409,-0.000
 00524,-0.00005018,0.00004115,0.00001343,0.00044189,-0.00004915,-0.0003
 1419,-0.00000336,-0.00001245,-0.00002031,-0.00027661,0.00003013,0.0002
 3737,-0.00005806,-0.00003742,0.00004194,0.00010900,-0.00003995,0.00000
 023,-0.00000173,0.00000569,-0.00000442,0.00001929,0.00002567,-0.000007
 90,-0.00000317,-0.00003230,0.00000256,-0.00000308,0.00000585,0.0000039
 7,-0.00001515,0.00003741,-0.00000950,-0.00005510,0.00002749,-0.0000126
 5,0.00002272,-0.00005191,0.00002876,-0.00006428,0.00001345,-0.00001505
 ,-0.00001851,-0.00001863,0.00000614,-0.00000099,0.00004093,-0.00005418
 ,0.00001282,0.00000806,-0.00000296,0.00000852,-0.00003967,0.00002099,0
 .00003174,0.00003326,0.00001833,0.00001346,-0.00007860,0.00004340,-0.0
 0002369,0.00009940,-0.00004475,0.00000426,0.00000240,-0.00000380,-0.00
 000265,0.00000478,-0.00000529,0.00003695,-0.00002160,-0.00000390,0.000
 00620,0.00000587,0.00000027,-0.00000979,-0.00000418,0.00001086,-0.0000
 3766,0.00000096,-0.00000807,-0.00002836,-0.00005108,0.00001780,-0.0000
 6961,0.00014194,-0.00004586,-0.00000138,0.00000258,-0.00000077,0.00002
 839,0.00002175,-0.00000473,-0.00029040,-0.00005196,-0.00002809,0.00000
 838,-0.00001080,-0.00000803,0.00006495,0.00003334,-0.00001505,0.000002
 41,-0.00000972,0.00001090,0.00029276,0.00000519,0.00001711,0.00000841,
 -0.00004843,-0.00000698,0.00004545,0.00000443,0.00000886,-0.00000011,-
 0.00000616,-0.00002076,0.00000212,0.00009336,0.00024772,0.00015737,0.0
 0000187,0.00000834,0.00000707,0.00002234,-0.00014920,-0.00002520,0.000
 00628,0.00000921,-0.00000918,-0.00007774,-0.00010786,0.00002062,-0.000
 00149,-0.00000926,-0.00003862,0.00007837,0.00005328,-0.00000570,-0.000
 00528,-0.00000194,-0.00000694,-0.00000517,0.00000093,0.00006597,0.0000
 7519,-0.00004155,0.00000198,0.00000056,0.00001382,-0.00011170,0.000040
 55,0.00005590,0.00000165,0.00000140,-0.00000057,0.00007566,-0.00018022
 ,-0.00006599,-0.00025296,-0.00014415,0.00028052,0.00008475,-0.00001458
 ,-0.00008410,0.00011193,0.00019500,0.00014193,0.00058280,0.00022422,-0
 .00086641,-0.00009279,-0.00000778,0.00004430,-0.00297836,-0.00044001,-
 0.00013557,0.00000236,0.00000535,-0.00005617,-0.00002769,-0.00003474,-
 0.00002356,0.00001892,0.00000510,-0.00000560,1.66648209,-0.00026396,-0
 .00059204,0.00031117,0.00008480,0.00022770,0.00002239,0.00027652,0.000
 12870,0.00010172,0.00014375,0.00116107,-0.00098705,-0.00005772,-0.0001
 9008,0.00006666,-0.00101631,-0.00330924,-0.00089331,0.00001044,0.00006
 339,-0.00010704,-0.00005659,-0.00003674,-0.00003268,0.00001289,0.00002
 442,0.00000183,1.49173436,1.86424722,0.00065789,0.00070938,-0.00023835
 ,-0.00041067,-0.00031436,-0.00019648,-0.00006926,-0.00012204,0.0000170
 6,-0.00064853,-0.00077041,0.00091556,0.00020903,0.00024792,-0.00015772
 ,0.00155242,0.00083031,-0.00024697,-0.00007215,-0.00013267,0.00015619,
 0.00004164,0.00003347,0.00003328,-0.00002085,-0.00001799,-0.00001141,-
 0.14642044,0.08498753,-0.48712631,0.00050811,0.00047459,-0.00014540,-0
 .00013881,-0.00016743,0.00002967,-0.00012599,-0.00012217,0.00001167,-0
 .00042723,-0.00060406,0.00021068,0.00010133,0.00009667,-0.00008389,0.0
 0176797,0.00151611,0.00073641,0.00001860,-0.00004908,0.00010550,0.0000
 4215,0.00003504,0.00004790,-0.00001705,-0.00000807,0.00001322,-1.31309
 315,-2.08524869,-0.13922424,1.30363172,0.00040291,0.00059000,-0.000167
 42,-0.00016112,-0.00016939,0.00002050,-0.00014306,-0.00016065,-0.00001
 089,-0.00037045,-0.00055923,0.00068848,0.00006762,0.00013760,-0.000079
 16,0.00178071,0.00180639,0.00045373,-0.00001168,-0.00002424,0.00012105
 ,0.00005932,0.00003792,0.00005142,-0.00000474,-0.00002201,0.00001016,-
 2.08045818,-1.42310278,-0.14851345,2.05991865,1.41270353,0.00004056,0.
 00002985,0.00014398,0.00002603,0.00001502,0.00004290,0.00007014,0.0000
 4984,0.00005128,-0.00042767,0.00001683,-0.00126972,-0.00000919,-0.0000
 0302,0.00001509,-0.00008680,-0.00039276,0.00097441,0.00000089,0.000012
 40,-0.00000269,-0.00002241,-0.00002232,-0.00000965,0.00000343,0.000000
 90,-0.00000241,-0.15309842,-0.16310249,0.72034775,0.14214334,0.1542582
 6,-0.71383763,-0.00014500,-0.00006429,-0.00015992,0.00000345,0.0000236
 6,0.00004296,-0.00008705,-0.00012591,-0.00006523,-0.00018720,-0.000021
 59,0.00013172,-0.00002717,-0.00006713,-0.00000070,0.00082219,0.0000452
 1,-0.00043736,0.00000503,0.00003505,-0.00000718,-0.00000619,0.00000485
 ,-0.00001465,0.00000227,0.00000496,0.00000713,-0.27381770,0.17942490,0
 .43720238,0.00472180,0.01368573,0.00969061,0.26865962,0.00005006,0.000
 07407,0.00009282,-0.00002335,-0.00004532,-0.00007555,0.00008558,0.0001
 2161,0.00002941,0.00009456,-0.00034456,0.00001771,0.00006334,0.0000978
 0,0.00000827,-0.00019097,0.00065601,0.00073817,-0.00002392,-0.00004589
 ,0.00000898,-0.00000924,0.00000107,-0.00000316,-0.00001138,-0.00000642
 ,-0.00001901,0.18273334,0.08202579,-0.18788818,0.00624185,0.00521934,0
 .00257132,-0.19856999,-0.08869574,-0.00019521,-0.00031693,0.00007560,0
 .00013953,0.00012247,0.00003549,0.00003116,0.00004002,-0.00003020,0.00
 038544,0.00031922,0.00019698,-0.00006830,-0.00006985,0.00006222,-0.000
 45947,-0.00024145,-0.00014674,0.00002312,0.00004173,-0.00005857,-0.000
 00451,-0.00000478,-0.00000470,0.00000718,0.00000314,0.00000013,0.46164
 419,-0.19327791,-0.30573689,-0.00101670,-0.00586146,-0.00488098,-0.456
 40592,0.19445703,0.30304035,0.00000824,-0.00005612,0.00010938,-0.00002
 260,0.00004061,-0.00004716,0.00012908,0.00009691,0.00000524,-0.0001828
 2,0.00015660,0.00020505,0.00007691,0.00003555,0.00001667,0.00072866,-0
 .00047523,0.00032463,-0.00003256,-0.00001456,-0.00000532,-0.00000267,-
 0.00000840,-0.00000765,-0.00001129,-0.00000312,-0.00001767,-0.07702021
 ,0.41495561,-0.15279722,0.00301055,0.00523429,0.00166948,0.00005594,0.
 00956013,-0.00408049,0.07326276,-0.00001355,-0.00001489,-0.00018534,-0
 .00001107,-0.00004923,0.00001207,-0.00013381,-0.00007607,-0.00003518,-
 0.00012908,-0.00031587,0.00000155,-0.00003924,0.00000421,-0.00000643,0
 .00007920,0.00100615,-0.00002733,0.00001970,-0.00000707,0.00000431,0.0
 0000202,-0.00000083,-0.00001544,0.00000493,-0.00000243,0.00000312,0.40
 620205,-0.52064742,0.25095049,0.01791658,0.00354351,0.00656614,0.00562
 455,0.00094224,0.00478875,-0.42952227,0.51561771,-0.00031724,-0.000254
 28,0.00001032,0.00014858,0.00011412,0.00006517,-0.00005817,-0.00001099
 ,-0.00004663,0.00042702,0.00020437,0.00013654,-0.00009162,-0.00011198,
 0.00005259,-0.00054382,0.00005504,-0.00033449,0.00004003,0.00005281,-0
 .00006092,-0.00000558,-0.00000075,-0.00000708,0.00000842,0.00000823,0.
 00000908,-0.16142067,0.27290918,0.07224428,-0.00282817,-0.00097121,-0.
 00157234,0.01001616,-0.00993782,0.00744731,0.15462505,-0.26205671,-0.0
 7794382,-0.00006668,0.00010984,0.00030385,-0.00044602,-0.00018365,-0.0
 0016716,0.00017939,-0.00000262,0.00027976,-0.00002533,-0.00015051,-0.0
 0007863,0.00007771,0.00004879,-0.00025731,0.00027241,0.00011003,0.0000
 0704,-0.00024645,-0.00016349,0.00019066,-0.00007462,0.00005098,0.00014
 065,-0.00004391,-0.00007507,-0.00011550,0.00005145,-0.00002185,-0.0001
 2230,0.00004168,0.00008186,0.00005698,0.00000263,-0.00009352,0.0000765
 0,0.00009051,0.00011516,-0.00017004,-0.00001164,-0.00005992,0.00007965
 ,-0.00007772,-0.00004947,0.00008551,-0.00005381,0.00000073,0.00006720,
 0.00002435,0.00007175,-0.00002202,-0.00000148,0.00001723,-0.00004542,0
 .00020773,0.00014661,-0.00001229,0.00005558,-0.00015082,0.00001684,-0.
 00002956,-0.00004106,0.00003001,-0.00002251,-0.00000942,0.00006552,-0.
 00004891,-0.00008559,-0.00000012,-0.00001907,0.00002116,-0.00006555,0.
 00000159,-0.00000529,0.00002294,0.00002238,-0.00000055,0.00043233,-0.0
 0000631,0.00001556,-0.00008380,-0.00020664,-0.00008999,-0.00010968,-0.
 00000123,-0.00003022,-0.00001188,-0.00004650,0.00003965,0.00001245,0.0
 0098744,0.00002105,-0.00012892,-0.00004502,0.00010758,0.00049814,0.000
 26505,0.00006165,-0.00006704,-0.00002653,0.00000269,0.00010846,-0.0000
 1426,0.00005271,-0.00122687,-0.00000861,0.00007751,0.00013274,0.000107
 21,-0.00015999,-0.00017634,-0.00000512,0.00002900,-0.00000352,0.000069
 20,-0.00005590,0.00000407,-0.00020125,0.00011344,-0.00009728,0.0000532
 8,0.00004654,-0.00004952,-0.00004881,0.00000069,0.00002578,-0.00004651
 ,-0.00002070,-0.00002553,-0.00033053,-0.00016090,-0.00010538,0.0000088
 7,-0.00002372,-0.00001101,0.00058222,-0.00000827,0.00007498,-0.0000795
 8,0.00003745,-0.00009356,0.00002585,-0.00000618,-0.00006101,-0.0000500
 3,-0.00020406,-0.00029352,-0.00011253,-0.00002991,0.00000899,-0.000007
 28,0.00036235,0.00053662,-0.00010783,-0.00012617,0.00009045,0.00005332
 ,-0.00001266,0.00001958,0.00003453,0.00001796,0.00000254,0.00010988,0.
 00011192,-0.00025831,-0.00001227,-0.00002618,0.00002468,-0.00000504,0.
 00032636,-0.00060768,0.00002614,0.00000686,-0.00000522,0.00008928,0.00
 000235,0.00021310,0.00001379,-0.00001677,0.00000069,0.00001082,0.00003
 171,-0.00000070,-0.00038890,-0.00008961,0.00009286,-0.00000882,0.00001
 032,0.00000149,0.00018404,0.00006646,0.00003203,0.00006784,-0.00013497
 ,-0.00018453,-0.00021601,-0.00001453,0.00001337,0.00001849,-0.00005054
 ,-0.00003369,-0.00000719,-0.00003332,0.00066483,-0.00015291,0.00001670
 ,-0.00000692,0.00002810,0.00006856,-0.00039182,0.00000058,-0.00006013,
 -0.00007477,-0.00003963,0.00018848,0.00001084,0.00000661,-0.00004898,-
 0.00001318,-0.00003934,0.00005718,0.00001348,0.00029595,-0.00033787,0.
 00016066,0.00001007,-0.00000426,-0.00003656,-0.00017144,0.00022670,-0.
 00011655,0.00004134,-0.00002155,-0.00003023,0.00001382,-0.00000652,0.0
 0006312,0.00000750,-0.00000968,0.00001590,0.00001392,0.00003731,0.0000
 2038,-0.00001050,-0.00004975,-0.00000359,-0.00000630,0.00000464,-0.000
 01330,-0.00002148,0.00004208,-0.00002259,-0.00002179,-0.00000596,0.000
 07200,-0.00000897,0.00001657,-0.00005439,-0.00005493,0.00001412,-0.000
 00464,0.00000282,0.00000083,-0.00000449,0.00001434,0.00003125,-0.00005
 595,0.00002391,0.00000056,-0.00000192,-0.00000536,-0.00004274,0.000016
 95,0.00001690,-0.00000129,0.00003638,0.00007824,0.00003432,0.00002434,
 -0.00005487,0.00001095,-0.00002633,-0.00002193,-0.00002543,0.00001379,
 0.00000386,-0.00000349,0.00001030,0.00000770,-0.00003535,-0.00004084,0
 .00000724,0.00001029,-0.00000801,-0.00000145,0.00000372,0.00000775,-0.
 00002023,0.00002279,0.00003762,-0.00002490,-0.00004368,0.00001197,-0.0
 0002852,0.00015543,-0.00002737,0.00000410,-0.00000273,0.00000159,0.000
 02268,0.00001915,0.00000060,-0.00035270,-0.00011326,-0.00003883,-0.000
 00048,-0.00000377,-0.00001442,0.00009744,0.00005623,-0.00004185,0.0000
 0092,-0.00000501,0.00001609,0.00028339,0.00001506,0.00003054,-0.000005
 59,-0.00002772,0.00002595,0.00007885,-0.00000193,0.00000985,0.00000631
 ,-0.00000683,-0.00002807,0.00000689,0.00003224,0.00020000,0.00012898,0
 .00000779,0.00000398,-0.00000053,0.00003647,-0.00011389,-0.00003618,0.
 00001221,0.00000566,-0.00000448,-0.00006638,-0.00013286,0.00001071,-0.
 00001994,0.00001191,-0.00004461,0.00008761,0.00003905,-0.00000025,0.00
 000396,-0.00000287,-0.00000865,-0.00000759,-0.00000210,0.00005121,0.00
 003950,0.00002118,-0.00000099,-0.00000404,0.00000444,-0.00010918,0.000
 06275,0.00002500,0.00000431,0.00000342,-0.00000694,0.00009727,-0.00016
 451,-0.00009004,0.00051485,0.00057675,0.00018261,-0.00005529,-0.000224
 83,-0.00009210,0.00016528,0.00029507,0.00018837,0.00079686,-0.00061440
 ,0.00018584,0.00004764,0.00031839,-0.00002338,-0.00301077,0.00058674,0
 .00165261,-0.00000310,-0.00011809,0.00002545,-0.00001295,-0.00004586,0
 .00000014,-0.00001771,-0.00004310,-0.00000897,0.94475749,0.00050148,0.
 00036097,0.00017755,-0.00020699,-0.00001930,0.00002489,0.00036594,0.00
 016681,0.00012146,-0.00044392,0.00062564,0.00060411,0.00027549,0.00007
 056,-0.00007758,0.00097328,-0.00321998,0.00051976,-0.00009190,-0.00000
 416,0.00001389,-0.00004734,-0.00002622,0.00001168,-0.00004606,-0.00002
 788,0.00000066,-1.61425752,1.23631746,0.00039376,0.00041256,-0.0000926
 3,-0.00016512,-0.00005103,-0.00013906,-0.00003217,-0.00011177,0.000043
 79,-0.00029991,0.00009690,0.00010114,0.00007918,0.00003872,-0.00009214
 ,0.00047990,-0.00066451,-0.00068593,-0.00003601,-0.00005650,0.00013216
 ,0.00001021,0.00001869,-0.00000334,0.00001222,0.00001726,-0.00000380,-
 1.05213208,-0.38759907,0.85893717,-0.00012527,-0.00014447,0.00004538,0
 .00000795,0.00004761,-0.00002590,0.00000410,-0.00004058,-0.00001796,0.
 00002268,0.00022389,0.00032377,0.00000435,-0.00002076,-0.00000529,0.00
 029047,-0.00020051,-0.00040566,-0.00001066,-0.00000389,0.00002684,0.00
 001387,0.00001424,-0.00000144,0.00000984,0.00001241,0.00000234,0.00192
 659,0.01635392,0.01328902,-0.00202983,-0.00001168,-0.00002127,0.000028
 83,-0.00001210,-0.00002206,-0.00005881,-0.00005317,-0.00000880,-0.0000
 0068,0.00014760,-0.00014412,0.00002650,0.00001030,0.00004425,-0.000021
 18,-0.00019843,0.00037543,0.00002481,-0.00000674,-0.00004134,0.0000543
 7,0.00001801,0.00001861,0.00000265,0.00001142,0.00001028,-0.00000179,0
 .02260315,-0.00095148,0.01425097,0.00179747,0.00312787,-0.00032476,-0.
 00035969,0.00005233,0.00013718,0.00011513,0.00005678,0.00002171,0.0000
 4075,-0.00000320,0.00050998,0.00022101,0.00061358,-0.00008690,-0.00010
 767,0.00006637,-0.00032995,0.00008862,-0.00065408,0.00003186,0.0000584
 1,-0.00008567,-0.00001146,-0.00000795,-0.00001094,0.00000350,0.0000006
 3,0.00000959,-0.00456312,-0.00454594,-0.01997720,-0.00314021,-0.004977
 00,0.00272312,-0.00028136,-0.00024928,-0.00010754,0.00001723,0.0000726
 3,0.00002016,-0.00010165,-0.00017718,-0.00008714,-0.00078102,0.0002392
 4,-0.00041186,-0.00000739,-0.00015796,-0.00001621,0.00222780,-0.000235
 43,-0.00126860,-0.00000115,0.00005140,0.00001767,-0.00001174,0.0000210
 2,-0.00000605,0.00001396,0.00002751,0.00000453,-0.88414396,0.46721378,
 1.48634383,-0.00199712,-0.00501694,0.00403315,0.88258365,-0.00035535,-
 0.00023362,0.00000945,0.00014803,0.00009176,0.00001864,0.00001775,-0.0
 0000964,-0.00001497,0.00026709,0.00020339,0.00010177,-0.00009814,-0.00
 007947,0.00006427,-0.00020682,0.00015829,-0.00023189,0.00002486,0.0000
 5123,-0.00006699,0.00000332,-0.00000017,-0.00001138,0.00000852,-0.0000
 0359,-0.00000134,0.47245119,0.38146999,-0.48832960,-0.01449308,-0.0011
 1592,0.00685047,-0.45296981,-0.38209891,0.00003153,0.00005929,0.000120
 05,0.00004363,-0.00004638,-0.00000597,-0.00000617,0.00013367,0.0000010
 1,-0.00004954,-0.00020818,-0.00037212,0.00001984,0.00008445,0.00001284
 ,-0.00039207,0.00029792,0.00129978,0.00001198,-0.00003383,-0.00003154,
 -0.00001113,-0.00001046,0.00000310,-0.00001724,-0.00001514,-0.00000232
 ,1.50795966,-0.48999479,-1.01966052,-0.01025791,-0.00155138,0.01042642
 ,-1.49089382,0.48445704,1.00971911,-0.00018206,-0.00034567,-0.00000516
 ,0.00007651,0.00014770,0.00004442,0.00002317,0.00001908,-0.00001977,0.
 00011431,0.00023903,0.00001891,-0.00002817,-0.00010903,0.00004400,0.00
 028957,-0.00031339,-0.00002471,0.00001261,0.00005391,-0.00006832,-0.00
 000663,0.00000228,-0.00000732,-0.00000804,0.00000226,0.00000228,-0.060
 96493,1.12940984,-0.44794282,0.00188302,-0.01928891,0.00371900,0.00248
 275,-0.00479755,-0.00643876,0.05630789,-0.00030684,-0.00027733,-0.0001
 3578,0.00009495,0.00002015,-0.00000317,-0.00022498,-0.00008009,-0.0000
 4013,0.00020683,-0.00053366,-0.00054938,-0.00017565,-0.00003704,0.0000
 3771,-0.00079735,0.00251861,-0.00062610,0.00006661,-0.00000205,-0.0000
 0311,0.00001855,-0.00000181,-0.00001628,0.00003016,0.00002003,0.000001
 31,1.11847251,-1.61476241,0.86197736,-0.00354624,-0.00127144,0.0026232
 3,-0.00881898,0.00156666,0.00682778,-1.10501956,1.61284038,0.00005830,
 0.00002619,0.00006591,-0.00003965,-0.00000747,0.00000954,0.00005376,-0
 .00002871,-0.00005642,-0.00031764,-0.00021481,-0.00049962,0.00003947,0
 .00005173,-0.00001242,0.00039652,0.00017319,0.00080911,-0.00002800,0.0
 0000043,0.00000840,-0.00000138,-0.00001518,-0.00000049,-0.00000352,-0.
 00001250,-0.00000309,-0.45337502,0.88074335,0.18144037,0.00016702,-0.0
 0777730,0.00678288,0.00237189,-0.00284548,-0.00150984,0.45067825,-0.87
 009344,-0.18703434\\@
 The archive entry for this job was punched.


 THE MORE PROGRESS PHYSICAL SCIENCES MAKE, THE MORE THEY TEND TO ENTER
 THE DOMAIN OF MATHEMATICS, WHICH IS A KIND OF CENTRE TO WHICH THEY ALL
 CONVERGE.  WE MAY EVEN JUDGE THE DEGREE OF PERFECTION TO WHICH A 
 SCIENCE HAS ARRIVED BY THE FACILITY WITH WHICH IT MAY BE SUBMITTED
 TO CALCULATION.

                               -- ADOLPHE QUETELET, 1796-1874
 Job cpu time:       9 days  6 hours 15 minutes 48.6 seconds.
 Elapsed time:       0 days  5 hours 36 minutes  0.8 seconds.
 File lengths (MBytes):  RWF=   7420 Int=      0 D2E=      0 Chk=     49 Scr=      1
 Normal termination of Gaussian 16 at Sat Mar 22 21:50:58 2025.
