 Entering Gaussian System, Link 0=g16
 Input=enolonetc_h2o_mp2_avdz_opt_anharm.gjf
 Output=enolonetc_h2o_mp2_avdz_opt_anharm.log
 Initial command:
 /sw/contrib/chem-src/g16/c01/g16/l1.exe "/scr/Gau-88466.inp" -scrdir="/scr/"
 Entering Link 1 = /sw/contrib/chem-src/g16/c01/g16/l1.exe PID=     88468.
  
 Copyright (c) 1988-2019, Gaussian, Inc.  All Rights Reserved.
  
 This is part of the Gaussian(R) 16 program.  It is based on
 the Gaussian(R) 09 system (copyright 2009, Gaussian, Inc.),
 the Gaussian(R) 03 system (copyright 2003, Gaussian, Inc.),
 the Gaussian(R) 98 system (copyright 1998, Gaussian, Inc.),
 the Gaussian(R) 94 system (copyright 1995, Gaussian, Inc.),
 the Gaussian 92(TM) system (copyright 1992, Gaussian, Inc.),
 the Gaussian 90(TM) system (copyright 1990, Gaussian, Inc.),
 the Gaussian 88(TM) system (copyright 1988, Gaussian, Inc.),
 the Gaussian 86(TM) system (copyright 1986, Carnegie Mellon
 University), and the Gaussian 82(TM) system (copyright 1983,
 Carnegie Mellon University). Gaussian is a federally registered
 trademark of Gaussian, Inc.
  
 This software contains proprietary and confidential information,
 including trade secrets, belonging to Gaussian, Inc.
  
 This software is provided under written license and may be
 used, copied, transmitted, or stored only in accord with that
 written license.
  
 The following legend is applicable only to US Government
 contracts under FAR:
  
                    RESTRICTED RIGHTS LEGEND
  
 Use, reproduction and disclosure by the US Government is
 subject to restrictions as set forth in subparagraphs (a)
 and (c) of the Commercial Computer Software - Restricted
 Rights clause in FAR 52.227-19.
  
 Gaussian, Inc.
 340 Quinnipiac St., Bldg. 40, Wallingford CT 06492
  
  
 ---------------------------------------------------------------
 Warning -- This program may not be used in any manner that
 competes with the business of Gaussian, Inc. or will provide
 assistance to any competitor of Gaussian, Inc.  The licensee
 of this program is prohibited from giving any competitor of
 Gaussian, Inc. access to this program.  By using this program,
 the user acknowledges that Gaussian, Inc. is engaged in the
 business of creating and licensing software in the field of
 computational chemistry and represents and warrants to the
 licensee that it is not a competitor of Gaussian, Inc. and that
 it will not use this program in any manner prohibited above.
 ---------------------------------------------------------------
  

 Cite this work as:
 Gaussian 16, Revision C.01,
 M. J. Frisch, G. W. Trucks, H. B. Schlegel, G. E. Scuseria, 
 M. A. Robb, J. R. Cheeseman, G. Scalmani, V. Barone, 
 G. A. Petersson, H. Nakatsuji, X. Li, M. Caricato, A. V. Marenich, 
 J. Bloino, B. G. Janesko, R. Gomperts, B. Mennucci, H. P. Hratchian, 
 J. V. Ortiz, A. F. Izmaylov, J. L. Sonnenberg, D. Williams-Young, 
 F. Ding, F. Lipparini, F. Egidi, J. Goings, B. Peng, A. Petrone, 
 T. Henderson, D. Ranasinghe, V. G. Zakrzewski, J. Gao, N. Rega, 
 G. Zheng, W. Liang, M. Hada, M. Ehara, K. Toyota, R. Fukuda, 
 J. Hasegawa, M. Ishida, T. Nakajima, Y. Honda, O. Kitao, H. Nakai, 
 T. Vreven, K. Throssell, J. A. Montgomery, Jr., J. E. Peralta, 
 F. Ogliaro, M. J. Bearpark, J. J. Heyd, E. N. Brothers, K. N. Kudin, 
 V. N. Staroverov, T. A. Keith, R. Kobayashi, J. Normand, 
 K. Raghavachari, A. P. Rendell, J. C. Burant, S. S. Iyengar, 
 J. Tomasi, M. Cossi, J. M. Millam, M. Klene, C. Adamo, R. Cammi, 
 J. W. Ochterski, R. L. Martin, K. Morokuma, O. Farkas, 
 J. B. Foresman, and D. J. Fox, Gaussian, Inc., Wallingford CT, 2019.
 
 ******************************************
 Gaussian 16:  EM64L-G16RevC.01  3-Jul-2019
                22-Mar-2025 
 ******************************************
 %nprocshared=40
 Will use up to   40 processors via shared memory.
 %mem=50gb
 ----------------------------------------------
 # MP2/aug-cc-pVDZ opt freq=(vibrot,anharmonic)
 ----------------------------------------------
 1/18=20,19=15,38=1,80=1/1,3;
 2/9=110,12=2,17=6,18=5,40=1/2;
 3/5=16,7=10,11=9,25=1,30=1,71=1/1,2,3;
 4//1;
 5/5=2,38=5/2;
 8/6=4,10=1/1;
 9/15=2,16=-3/6;
 10/5=1/2;
 6/7=2,8=2,9=2,10=2/1;
 7/12=2/1,2,3,16;
 1/18=20,19=15,80=1/3(2);
 2/9=110/2;
 99//99;
 2/9=110/2;
 3/5=16,7=10,11=9,25=1,30=1,71=1/1,2,3;
 4/5=5,16=3,69=1/1;
 5/5=2,38=5/2;
 8/6=4,10=1/1;
 9/15=2,16=-3/6;
 10/5=1/2;
 7/12=2/1,2,3,16;
 1/18=20,19=15,80=1/3(-8);
 2/9=110/2;
 6/7=2,8=2,9=2,10=2/1;
 99/9=10/99;
 ----
 blah
 ----
 Symbolic Z-matrix:
 Charge =  0 Multiplicity = 1
 C                    -0.89865   0.47154  -0.10375 
 C                    -1.71744   0.17578  -1.11623 
 H                    -0.90357  -0.03504   0.85547 
 O                     0.05654   1.45253  -0.13871 
 C                    -2.71589  -0.90562  -0.97263 
 H                     0.04204   1.89821  -1.01875 
 O                    -2.85741  -1.5778    0.04011 
 H                    -1.69013   0.69819  -2.06261 
 H                    -3.34047  -1.06759  -1.86674 
 O                     0.22427   2.82489  -2.43922 
 H                     0.98862   2.76117  -3.03969 
 H                    -0.02357   3.76379  -2.51597 
 
 Add virtual bond connecting atoms O10        and H6         Dist= 3.22D+00.

 GradGradGradGradGradGradGradGradGradGradGradGradGradGradGradGradGradGrad
 Berny optimization.
 Initialization pass.
                           ----------------------------
                           !    Initial Parameters    !
                           ! (Angstroms and Degrees)  !
 --------------------------                            --------------------------
 ! Name  Definition              Value          Derivative Info.                !
 --------------------------------------------------------------------------------
 ! R1    R(1,2)                  1.3353         estimate D2E/DX2                !
 ! R2    R(1,3)                  1.0848         estimate D2E/DX2                !
 ! R3    R(1,4)                  1.3697         estimate D2E/DX2                !
 ! R4    R(2,5)                  1.4788         estimate D2E/DX2                !
 ! R5    R(2,8)                  1.0813         estimate D2E/DX2                !
 ! R6    R(4,6)                  0.9866         estimate D2E/DX2                !
 ! R7    R(5,7)                  1.2237         estimate D2E/DX2                !
 ! R8    R(5,9)                  1.1026         estimate D2E/DX2                !
 ! R9    R(6,10)                 1.7058         estimate D2E/DX2                !
 ! R10   R(10,11)                0.9741         estimate D2E/DX2                !
 ! R11   R(10,12)                0.9741         estimate D2E/DX2                !
 ! A1    A(2,1,3)              124.3514         estimate D2E/DX2                !
 ! A2    A(2,1,4)              124.536          estimate D2E/DX2                !
 ! A3    A(3,1,4)              111.1125         estimate D2E/DX2                !
 ! A4    A(1,2,5)              120.1549         estimate D2E/DX2                !
 ! A5    A(1,2,8)              122.7602         estimate D2E/DX2                !
 ! A6    A(5,2,8)              117.0849         estimate D2E/DX2                !
 ! A7    A(1,4,6)              109.6377         estimate D2E/DX2                !
 ! A8    A(2,5,7)              124.0638         estimate D2E/DX2                !
 ! A9    A(2,5,9)              114.2754         estimate D2E/DX2                !
 ! A10   A(7,5,9)              121.6608         estimate D2E/DX2                !
 ! A11   A(6,10,11)            124.1684         estimate D2E/DX2                !
 ! A12   A(6,10,12)            124.1992         estimate D2E/DX2                !
 ! A13   A(11,10,12)           102.3638         estimate D2E/DX2                !
 ! A14   L(4,6,10,8,-1)        189.3653         estimate D2E/DX2                !
 ! A15   L(4,6,10,8,-2)        179.9992         estimate D2E/DX2                !
 ! D1    D(3,1,2,5)              0.0004         estimate D2E/DX2                !
 ! D2    D(3,1,2,8)           -179.9994         estimate D2E/DX2                !
 ! D3    D(4,1,2,5)           -179.9996         estimate D2E/DX2                !
 ! D4    D(4,1,2,8)              0.0006         estimate D2E/DX2                !
 ! D5    D(2,1,4,6)              0.0032         estimate D2E/DX2                !
 ! D6    D(3,1,4,6)           -179.9968         estimate D2E/DX2                !
 ! D7    D(1,2,5,7)              0.0018         estimate D2E/DX2                !
 ! D8    D(1,2,5,9)           -179.9984         estimate D2E/DX2                !
 ! D9    D(8,2,5,7)           -179.9984         estimate D2E/DX2                !
 ! D10   D(8,2,5,9)              0.0014         estimate D2E/DX2                !
 ! D11   D(1,4,10,11)         -111.8172         estimate D2E/DX2                !
 ! D12   D(1,4,10,12)          111.7121         estimate D2E/DX2                !
 ! D13   D(6,10,11,12)        -147.592          estimate D2E/DX2                !
 --------------------------------------------------------------------------------
 Trust Radius=3.00D-01 FncErr=1.00D-07 GrdErr=1.00D-07 EigMax=2.50D+02 EigMin=1.00D-04
 Number of steps in this run=     49 maximum allowed number of steps=    100.
 GradGradGradGradGradGradGradGradGradGradGradGradGradGradGradGradGradGrad

                          Input orientation:                          
 ---------------------------------------------------------------------
 Center     Atomic      Atomic             Coordinates (Angstroms)
 Number     Number       Type             X           Y           Z
 ---------------------------------------------------------------------
      1          6           0       -0.898652    0.471538   -0.103752
      2          6           0       -1.717436    0.175779   -1.116232
      3          1           0       -0.903570   -0.035042    0.855469
      4          8           0        0.056536    1.452529   -0.138707
      5          6           0       -2.715886   -0.905619   -0.972629
      6          1           0        0.042035    1.898210   -1.018750
      7          8           0       -2.857405   -1.577804    0.040111
      8          1           0       -1.690134    0.698191   -2.062613
      9          1           0       -3.340471   -1.067590   -1.866744
     10          8           0        0.224265    2.824891   -2.439220
     11          1           0        0.988615    2.761174   -3.039689
     12          1           0       -0.023569    3.763794   -2.515975
 ---------------------------------------------------------------------
                    Distance matrix (angstroms):
                    1          2          3          4          5
     1  C    0.000000
     2  C    1.335289   0.000000
     3  H    1.084782   2.143461   0.000000
     4  O    1.369653   2.394289   2.030531   0.000000
     5  C    2.440051   1.478833   2.717413   3.733981   0.000000
     6  H    1.938429   2.464144   2.853827   0.986568   3.933155
     7  O    2.838524   2.389919   2.619618   4.207844   1.223725
     8  H    2.124841   1.081340   3.109906   2.705789   2.193727
     9  H    3.382239   2.177954   3.796720   4.569111   1.102626
    10  O    3.500517   3.540945   4.506240   2.684002   4.971124
    11  H    4.174199   4.207929   5.154750   3.316176   5.607266
    12  H    4.174151   4.207412   5.154822   3.316589   5.606594
                    6          7          8          9         10
     6  H    0.000000
     7  O    4.648722   0.000000
     8  H    2.351618   3.311212   0.000000
     9  H    4.577818   2.032182   2.424864   0.000000
    10  O    1.705778   5.918403   2.886106   5.309095   0.000000
    11  H    2.392680   6.565347   3.519414   5.897138   0.974092
    12  H    2.392988   6.564821   3.518650   5.896238   0.974090
                   11         12
    11  H    0.000000
    12  H    1.517906   0.000000
 Stoichiometry    C3H6O3
 Framework group  C1[X(C3H6O3)]
 Deg. of freedom    30
 Full point group                 C1      NOp   1
 Largest Abelian subgroup         C1      NOp   1
 Largest concise Abelian subgroup C1      NOp   1
                         Standard orientation:                         
 ---------------------------------------------------------------------
 Center     Atomic      Atomic             Coordinates (Angstroms)
 Number     Number       Type             X           Y           Z
 ---------------------------------------------------------------------
      1          6           0        0.152440    0.842875    0.000013
      2          6           0        0.543991   -0.433716   -0.000071
      3          1           0        0.829168    1.690690    0.000090
      4          8           0       -1.153933    1.254382    0.000013
      5          6           0        1.984319   -0.768977   -0.000053
      6          1           0       -1.749344    0.467741   -0.000006
      7          8           0        2.881725    0.062989    0.000067
      8          1           0       -0.153798   -1.259783   -0.000157
      9          1           0        2.197961   -1.850707   -0.000155
     10          8           0       -2.986415   -0.706710    0.000001
     11          1           0       -3.570128   -0.886454   -0.758830
     12          1           0       -3.569372   -0.887870    0.759075
 ---------------------------------------------------------------------
 Rotational constants (GHZ):           8.1664104           1.3194898           1.1419086
 Standard basis: Aug-CC-pVDZ (5D, 7F)
 There are   204 symmetry adapted cartesian basis functions of A   symmetry.
 There are   192 symmetry adapted basis functions of A   symmetry.
   192 basis functions,   324 primitive gaussians,   204 cartesian basis functions
    24 alpha electrons       24 beta electrons
       nuclear repulsion energy       217.3078544978 Hartrees.
 NAtoms=   12 NActive=   12 NUniq=   12 SFac= 1.00D+00 NAtFMM=   60 NAOKFM=F Big=F
 Integral buffers will be    131072 words long.
 Raffenetti 1 integral format.
 Two-electron integral symmetry is turned on.
 One-electron integrals computed using PRISM.
 NBasis=   192 RedAO= T EigKep=  3.22D-05  NBF=   192
 NBsUse=   192 1.00D-06 EigRej= -1.00D+00 NBFU=   192
 ExpMin= 2.97D-02 ExpMax= 1.17D+04 ExpMxC= 4.01D+02 IAcc=3 IRadAn=         5 AccDes= 0.00D+00
 Harris functional with IExCor=  205 and IRadAn=       5 diagonalized for initial guess.
 HarFok:  IExCor=  205 AccDes= 0.00D+00 IRadAn=         5 IDoV= 1 UseB2=F ITyADJ=14
 ICtDFT=  3500011 ScaDFX=  1.000000  1.000000  1.000000  1.000000
 FoFCou: FMM=F IPFlag=           0 FMFlag=      100000 FMFlg1=           0
         NFxFlg=           0 DoJE=T BraDBF=F KetDBF=T FulRan=T
         wScrn=  0.000000 ICntrl=       500 IOpCl=  0 I1Cent=   200000004 NGrid=           0
         NMat0=    1 NMatS0=      1 NMatT0=    0 NMatD0=    1 NMtDS0=    0 NMtDT0=    0
 Petite list used in FoFCou.
 Keep R1 ints in memory in canonical form, NReq=180608894.
 Requested convergence on RMS density matrix=1.00D-08 within 128 cycles.
 Requested convergence on MAX density matrix=1.00D-06.
 Requested convergence on             energy=1.00D-06.
 No special actions if energy rises.
 SCF Done:  E(RHF) =  -341.710960099     A.U. after   14 cycles
            NFock= 14  Conv=0.90D-08     -V/T= 2.0017
 ExpMin= 2.97D-02 ExpMax= 1.17D+04 ExpMxC= 4.01D+02 IAcc=3 IRadAn=         5 AccDes= 0.00D+00
 HarFok:  IExCor=  205 AccDes= 0.00D+00 IRadAn=         5 IDoV=-2 UseB2=F ITyADJ=14
 ICtDFT= 12500011 ScaDFX=  1.000000  1.000000  1.000000  1.000000
 Range of M.O.s used for correlation:     7   192
 NBasis=   192 NAE=    24 NBE=    24 NFC=     6 NFV=     0
 NROrb=    186 NOA=    18 NOB=    18 NVA=   168 NVB=   168

 **** Warning!!: The largest alpha MO coefficient is  0.37388181D+02

 Fully direct method using O(ONN) memory.
 JobTyp=1 Pass  1:  I=   7 to  24 NPSUse= 40 ParTrn=T ParDer=T DoDerP=T.
 Spin components of T(2) and E(2):
     alpha-alpha T2 =       0.4227834615D-01 E2=     -0.1336728514D+00
     alpha-beta  T2 =       0.2330932446D+00 E2=     -0.7557534054D+00
     beta-beta   T2 =       0.4227834615D-01 E2=     -0.1336728514D+00
 ANorm=    0.1147889340D+01
 E2 =    -0.1023099108D+01 EUMP2 =    -0.34273405920725D+03
          IDoAtm=111111111111
          Differentiating once with respect to electric field.
                with respect to dipole field.
          Differentiating once with respect to nuclear coordinates.
 Keep R1 ints in memory in canonical form, NReq=180622462.
          There are     1 degrees of freedom in the 1st order CPHF.  IDoFFX=0 NUNeed=     1.
 LinEq1:  Iter=  0 NonCon=     1 RMS=4.82D-03 Max=1.20D-01 NDo=     1
 AX will form     1 AO Fock derivatives at one time.
 LinEq1:  Iter=  1 NonCon=     1 RMS=1.44D-03 Max=1.98D-02 NDo=     1
 LinEq1:  Iter=  2 NonCon=     1 RMS=5.44D-04 Max=1.15D-02 NDo=     1
 LinEq1:  Iter=  3 NonCon=     1 RMS=1.90D-04 Max=2.78D-03 NDo=     1
 LinEq1:  Iter=  4 NonCon=     1 RMS=6.82D-05 Max=1.08D-03 NDo=     1
 LinEq1:  Iter=  5 NonCon=     1 RMS=2.34D-05 Max=4.31D-04 NDo=     1
 LinEq1:  Iter=  6 NonCon=     1 RMS=9.08D-06 Max=2.94D-04 NDo=     1
 LinEq1:  Iter=  7 NonCon=     1 RMS=2.79D-06 Max=3.79D-05 NDo=     1
 LinEq1:  Iter=  8 NonCon=     1 RMS=1.07D-06 Max=2.61D-05 NDo=     1
 LinEq1:  Iter=  9 NonCon=     1 RMS=3.14D-07 Max=3.57D-06 NDo=     1
 LinEq1:  Iter= 10 NonCon=     1 RMS=8.36D-08 Max=1.06D-06 NDo=     1
 LinEq1:  Iter= 11 NonCon=     1 RMS=3.41D-08 Max=4.90D-07 NDo=     1
 LinEq1:  Iter= 12 NonCon=     1 RMS=8.98D-09 Max=1.37D-07 NDo=     1
 LinEq1:  Iter= 13 NonCon=     1 RMS=2.56D-09 Max=4.12D-08 NDo=     1
 LinEq1:  Iter= 14 NonCon=     1 RMS=7.27D-10 Max=7.18D-09 NDo=     1
 LinEq1:  Iter= 15 NonCon=     1 RMS=2.08D-10 Max=2.93D-09 NDo=     1
 LinEq1:  Iter= 16 NonCon=     0 RMS=3.31D-11 Max=3.37D-10 NDo=     1
 Linear equations converged to 1.000D-10 1.000D-09 after    16 iterations.
 End of Minotr F.D. properties file   721 does not exist.
 End of Minotr F.D. properties file   722 does not exist.
 End of Minotr F.D. properties file   788 does not exist.

 **********************************************************************

            Population analysis using the SCF Density.

 **********************************************************************

 Orbital symmetries:
       Occupied  (A) (A) (A) (A) (A) (A) (A) (A) (A) (A) (A) (A)
                 (A) (A) (A) (A) (A) (A) (A) (A) (A) (A) (A) (A)
       Virtual   (A) (A) (A) (A) (A) (A) (A) (A) (A) (A) (A) (A)
                 (A) (A) (A) (A) (A) (A) (A) (A) (A) (A) (A) (A)
                 (A) (A) (A) (A) (A) (A) (A) (A) (A) (A) (A) (A)
                 (A) (A) (A) (A) (A) (A) (A) (A) (A) (A) (A) (A)
                 (A) (A) (A) (A) (A) (A) (A) (A) (A) (A) (A) (A)
                 (A) (A) (A) (A) (A) (A) (A) (A) (A) (A) (A) (A)
                 (A) (A) (A) (A) (A) (A) (A) (A) (A) (A) (A) (A)
                 (A) (A) (A) (A) (A) (A) (A) (A) (A) (A) (A) (A)
                 (A) (A) (A) (A) (A) (A) (A) (A) (A) (A) (A) (A)
                 (A) (A) (A) (A) (A) (A) (A) (A) (A) (A) (A) (A)
                 (A) (A) (A) (A) (A) (A) (A) (A) (A) (A) (A) (A)
                 (A) (A) (A) (A) (A) (A) (A) (A) (A) (A) (A) (A)
                 (A) (A) (A) (A) (A) (A) (A) (A) (A) (A) (A) (A)
                 (A) (A) (A) (A) (A) (A) (A) (A) (A) (A) (A) (A)
 The electronic state is 1-A.
 Alpha  occ. eigenvalues --  -20.63106 -20.59311 -20.54184 -11.32988 -11.32540
 Alpha  occ. eigenvalues --  -11.22281  -1.40938  -1.39200  -1.36746  -1.05144
 Alpha  occ. eigenvalues --   -0.88063  -0.79387  -0.75808  -0.69521  -0.67750
 Alpha  occ. eigenvalues --   -0.64700  -0.61785  -0.57160  -0.57136  -0.56255
 Alpha  occ. eigenvalues --   -0.53479  -0.51659  -0.41001  -0.34941
 Alpha virt. eigenvalues --    0.01540   0.04385   0.04455   0.05560   0.06908
 Alpha virt. eigenvalues --    0.07460   0.08504   0.11381   0.12155   0.13409
 Alpha virt. eigenvalues --    0.14254   0.14920   0.15304   0.16064   0.16993
 Alpha virt. eigenvalues --    0.17798   0.18750   0.20060   0.20799   0.22674
 Alpha virt. eigenvalues --    0.24338   0.24707   0.25067   0.25815   0.27438
 Alpha virt. eigenvalues --    0.28610   0.30261   0.30496   0.32149   0.33140
 Alpha virt. eigenvalues --    0.33422   0.34444   0.36309   0.36522   0.37056
 Alpha virt. eigenvalues --    0.38577   0.39285   0.40278   0.40456   0.43731
 Alpha virt. eigenvalues --    0.45628   0.47858   0.48868   0.48888   0.50428
 Alpha virt. eigenvalues --    0.52347   0.52688   0.54149   0.54638   0.55449
 Alpha virt. eigenvalues --    0.56149   0.59334   0.60075   0.60598   0.63500
 Alpha virt. eigenvalues --    0.65134   0.66415   0.66673   0.67962   0.68519
 Alpha virt. eigenvalues --    0.69795   0.71919   0.72841   0.74507   0.75003
 Alpha virt. eigenvalues --    0.77144   0.79478   0.80986   0.82934   0.85060
 Alpha virt. eigenvalues --    0.86525   0.88039   0.90593   0.93002   0.93865
 Alpha virt. eigenvalues --    0.95178   0.96997   0.98654   0.99731   1.04758
 Alpha virt. eigenvalues --    1.05926   1.08850   1.10054   1.12682   1.13712
 Alpha virt. eigenvalues --    1.21184   1.22332   1.23450   1.24006   1.26817
 Alpha virt. eigenvalues --    1.30732   1.32845   1.34091   1.35379   1.36049
 Alpha virt. eigenvalues --    1.43132   1.48229   1.49819   1.51155   1.51209
 Alpha virt. eigenvalues --    1.53319   1.53400   1.59616   1.62610   1.64891
 Alpha virt. eigenvalues --    1.67045   1.70361   1.71878   1.71998   1.76599
 Alpha virt. eigenvalues --    1.79079   1.80755   1.84350   1.87320   1.92657
 Alpha virt. eigenvalues --    1.96467   1.97915   1.98995   2.00261   2.00905
 Alpha virt. eigenvalues --    2.04295   2.06478   2.07395   2.10691   2.13528
 Alpha virt. eigenvalues --    2.14844   2.19378   2.20593   2.23125   2.27091
 Alpha virt. eigenvalues --    2.28106   2.36733   2.37643   2.42542   2.43383
 Alpha virt. eigenvalues --    2.45064   2.51071   2.53473   2.58507   2.63611
 Alpha virt. eigenvalues --    2.71894   2.73946   2.80089   2.87117   2.92386
 Alpha virt. eigenvalues --    2.96646   3.03335   3.08700   3.11965   3.12949
 Alpha virt. eigenvalues --    3.30035   3.47189   3.59275   3.66169   3.73618
 Alpha virt. eigenvalues --    3.74602   3.75338   3.79213   3.79240   3.80884
 Alpha virt. eigenvalues --    3.82668   3.87072   3.95099   4.02754   4.09561
 Alpha virt. eigenvalues --    4.15074   4.27800   4.47670
          Condensed to atoms (all electrons):
               1          2          3          4          5          6
     1  C    4.981693   0.143214   0.343394  -0.077147  -0.128633  -0.101873
     2  C    0.143214   5.467449  -0.186021   0.004832  -0.206041  -0.007515
     3  H    0.343394  -0.186021   1.219817  -0.192776   0.023610   0.008044
     4  O   -0.077147   0.004832  -0.192776   8.858050  -0.022232   0.265984
     5  C   -0.128633  -0.206041   0.023610  -0.022232   5.506542   0.020376
     6  H   -0.101873  -0.007515   0.008044   0.265984   0.020376   0.568866
     7  O   -0.054807   0.024726  -0.009388   0.005324   0.240244  -0.001869
     8  H    0.013003  -0.048948   0.044153  -0.070824  -0.118569   0.022617
     9  H   -0.002647   0.066823   0.001087   0.000813   0.187107   0.001121
    10  O    0.044069  -0.013518   0.000330  -0.058788  -0.025202  -0.092259
    11  H   -0.000573   0.001268   0.000193  -0.004264   0.000598   0.000095
    12  H   -0.000571   0.001264   0.000191  -0.004261   0.000599   0.000097
               7          8          9         10         11         12
     1  C   -0.054807   0.013003  -0.002647   0.044069  -0.000573  -0.000571
     2  C    0.024726  -0.048948   0.066823  -0.013518   0.001268   0.001264
     3  H   -0.009388   0.044153   0.001087   0.000330   0.000193   0.000191
     4  O    0.005324  -0.070824   0.000813  -0.058788  -0.004264  -0.004261
     5  C    0.240244  -0.118569   0.187107  -0.025202   0.000598   0.000599
     6  H   -0.001869   0.022617   0.001121  -0.092259   0.000095   0.000097
     7  O    8.581293  -0.001853  -0.054745   0.000598   0.000019   0.000019
     8  H   -0.001853   1.789703  -0.074043  -0.022984   0.001496   0.001485
     9  H   -0.054745  -0.074043   0.982439  -0.001508   0.000135   0.000136
    10  O    0.000598  -0.022984  -0.001508   8.014149   0.350902   0.350910
    11  H    0.000019   0.001496   0.000135   0.350902   0.472094  -0.044071
    12  H    0.000019   0.001485   0.000136   0.350910  -0.044071   0.472023
 Mulliken charges:
               1
     1  C    0.840879
     2  C    0.752470
     3  H   -0.252633
     4  O   -0.704710
     5  C    0.521602
     6  H    0.316316
     7  O   -0.729562
     8  H   -0.535235
     9  H   -0.106717
    10  O   -0.546697
    11  H    0.222108
    12  H    0.222180
 Sum of Mulliken charges =  -0.00000
 Mulliken charges with hydrogens summed into heavy atoms:
               1
     1  C    0.588246
     2  C    0.217234
     4  O   -0.388394
     5  C    0.414885
     7  O   -0.729562
    10  O   -0.102409
 Electronic spatial extent (au):  <R**2>=            947.6292
 Charge=             -0.0000 electrons
 Dipole moment (field-independent basis, Debye):
    X=             -6.5413    Y=             -3.1455    Z=              0.0002  Tot=              7.2583
 Quadrupole moment (field-independent basis, Debye-Ang):
   XX=            -31.0712   YY=            -34.3759   ZZ=            -35.0747
   XY=              4.3669   XZ=             -0.0006   YZ=             -0.0032
 Traceless Quadrupole moment (field-independent basis, Debye-Ang):
   XX=              2.4361   YY=             -0.8686   ZZ=             -1.5675
   XY=              4.3669   XZ=             -0.0006   YZ=             -0.0032
 Octapole moment (field-independent basis, Debye-Ang**2):
  XXX=           -140.7351  YYY=             -3.6855  ZZZ=              0.0017  XYY=              2.6387
  XXY=            -31.0622  XXZ=             -0.0070  XZZ=            -13.5946  YZZ=             -2.0233
  YYZ=              0.0057  XYZ=              0.0114
 Hexadecapole moment (field-independent basis, Debye-Ang**3):
 XXXX=           -733.0702 YYYY=           -184.1287 ZZZZ=            -37.9894 XXXY=             80.3501
 XXXZ=              0.0316 YYYX=             15.1622 YYYZ=             -0.0082 ZZZX=             -0.0021
 ZZZY=             -0.0048 XXYY=           -160.7186 XXZZ=           -124.3827 YYZZ=            -36.8340
 XXYZ=             -0.0336 YYXZ=             -0.0188 ZZXY=             11.3413
 N-N= 2.173078544978D+02 E-N=-1.240256791168D+03  KE= 3.411208284337D+02
 Calling FoFJK, ICntrl=  10002127 FMM=F ISym2X=0 I1Cent= 0 IOpClX= 0 NMat=1 NMatS=1 NMatT=0.
 ***** Axes restored to original set *****
 -------------------------------------------------------------------
 Center     Atomic                   Forces (Hartrees/Bohr)
 Number     Number              X              Y              Z
 -------------------------------------------------------------------
      1        6           0.032013430    0.025996058    0.011987433
      2        6          -0.025196481   -0.018145777   -0.013859820
      3        1          -0.003317531   -0.005030285    0.003224591
      4        8          -0.007905612   -0.008522437    0.001057854
      5        6           0.013227796    0.014730990   -0.002674367
      6        1           0.001220590   -0.002037225    0.006259833
      7        8          -0.005919205   -0.011540375    0.010660127
      8        1           0.002668929    0.006191598   -0.006698997
      9        1          -0.006378601   -0.003588986   -0.005431267
     10        8           0.004927560    0.011872534   -0.013209467
     11        1          -0.004366492   -0.003283683    0.005217944
     12        1          -0.000974384   -0.006642413    0.003466138
 -------------------------------------------------------------------
 Cartesian Forces:  Max     0.032013430 RMS     0.011225761

 GradGradGradGradGradGradGradGradGradGradGradGradGradGradGradGradGradGrad
 Berny optimization.
 FormGI is forming the generalized inverse of G from B-inverse, IUseBI=4.
 Internal  Forces:  Max     0.029631136 RMS     0.006806586
 Search for a local minimum.
 Step number   1 out of a maximum of   49
 All quantities printed in internal units (Hartrees-Bohrs-Radians)
 Mixed Optimization -- RFO/linear search
 Second derivative matrix not updated -- first step.
 ITU=  0
     Eigenvalues ---    0.00230   0.00230   0.00230   0.01046   0.01046
     Eigenvalues ---    0.01975   0.02049   0.02093   0.02705   0.02945
     Eigenvalues ---    0.07324   0.14781   0.16000   0.16000   0.16000
     Eigenvalues ---    0.16000   0.16000   0.22000   0.22000   0.22000
     Eigenvalues ---    0.33393   0.34704   0.35423   0.35833   0.50122
     Eigenvalues ---    0.51043   0.52550   0.52550   0.58274   0.93752
 RFO step:  Lambda=-5.25663034D-03 EMin= 2.30000000D-03
 Linear search not attempted -- first point.
 Maximum step size (   0.300) exceeded in Quadratic search.
    -- Step size scaled by   0.834
 Iteration  1 RMS(Cart)=  0.12872710 RMS(Int)=  0.01547377
 Iteration  2 RMS(Cart)=  0.06903777 RMS(Int)=  0.00130468
 Iteration  3 RMS(Cart)=  0.00190501 RMS(Int)=  0.00015795
 Iteration  4 RMS(Cart)=  0.00000039 RMS(Int)=  0.00015795
 Variable       Old X    -DE/DX   Delta X   Delta X   Delta X     New X
                                 (Linear)    (Quad)   (Total)
    R1        2.52333   0.02963   0.00000   0.04204   0.04204   2.56537
    R2        2.04994   0.00522   0.00000   0.01210   0.01210   2.06205
    R3        2.58827  -0.01119   0.00000  -0.01810  -0.01810   2.57017
    R4        2.79459  -0.00009   0.00000  -0.00021  -0.00021   2.79438
    R5        2.04344   0.00892   0.00000   0.02047   0.02047   2.06391
    R6        1.86434  -0.00157   0.00000  -0.00261  -0.00262   1.86172
    R7        2.31251   0.01585   0.00000   0.01402   0.01402   2.32653
    R8        2.08366   0.00854   0.00000   0.02102   0.02102   2.10468
    R9        3.22345   0.00476   0.00000   0.05073   0.05074   3.27419
   R10        1.84077  -0.00643   0.00000  -0.01010  -0.01010   1.83066
   R11        1.84076  -0.00643   0.00000  -0.01010  -0.01010   1.83066
    A1        2.17034  -0.00806   0.00000  -0.03594  -0.03594   2.13440
    A2        2.17356   0.00707   0.00000   0.02618   0.02618   2.19975
    A3        1.93928   0.00099   0.00000   0.00976   0.00976   1.94904
    A4        2.09710   0.00126   0.00000   0.00468   0.00468   2.10177
    A5        2.14257  -0.00398   0.00000  -0.01924  -0.01924   2.12333
    A6        2.04352   0.00272   0.00000   0.01457   0.01457   2.05808
    A7        1.91354  -0.00084   0.00000  -0.00423  -0.00423   1.90931
    A8        2.16532   0.00635   0.00000   0.02351   0.02351   2.18884
    A9        1.99448   0.00013   0.00000   0.00492   0.00492   1.99940
   A10        2.12338  -0.00648   0.00000  -0.02844  -0.02844   2.09495
   A11        2.16715  -0.00263   0.00000  -0.01341  -0.01357   2.15357
   A12        2.16769  -0.00225   0.00000  -0.01309  -0.01301   2.15467
   A13        1.78659   0.00451   0.00000   0.02343   0.02319   1.80978
   A14        3.30505  -0.00228   0.00000  -0.28080  -0.28057   3.02448
   A15        3.14158   0.00000   0.00000   0.00023   0.00023   3.14181
    D1        0.00001   0.00000   0.00000   0.00000   0.00000   0.00001
    D2       -3.14158   0.00000   0.00000   0.00002   0.00002  -3.14157
    D3       -3.14159  -0.00000   0.00000  -0.00000  -0.00000  -3.14159
    D4        0.00001   0.00000   0.00000   0.00001   0.00001   0.00002
    D5        0.00006   0.00000   0.00000   0.00002   0.00002   0.00007
    D6       -3.14154   0.00000   0.00000   0.00001   0.00001  -3.14152
    D7        0.00003  -0.00000   0.00000  -0.00001  -0.00001   0.00002
    D8       -3.14157   0.00000   0.00000   0.00001   0.00001  -3.14155
    D9       -3.14156  -0.00000   0.00000  -0.00002  -0.00002  -3.14159
   D10        0.00002  -0.00000   0.00000  -0.00000  -0.00000   0.00002
   D11       -1.95158   0.00119   0.00000   0.06460   0.06511  -1.88647
   D12        1.94974  -0.00119   0.00000  -0.06436  -0.06487   1.88487
   D13       -2.57597   0.00091   0.00000   0.00705   0.00761  -2.56836
         Item               Value     Threshold  Converged?
 Maximum Force            0.029631     0.000450     NO 
 RMS     Force            0.006807     0.000300     NO 
 Maximum Displacement     0.414218     0.001800     NO 
 RMS     Displacement     0.195028     0.001200     NO 
 Predicted change in Energy=-2.815434D-03
 GradGradGradGradGradGradGradGradGradGradGradGradGradGradGradGradGradGrad

                          Input orientation:                          
 ---------------------------------------------------------------------
 Center     Atomic      Atomic             Coordinates (Angstroms)
 Number     Number       Type             X           Y           Z
 ---------------------------------------------------------------------
      1          6           0       -0.839237    0.506063   -0.055304
      2          6           0       -1.641694    0.254772   -1.121052
      3          1           0       -0.914174   -0.056934    0.876420
      4          8           0        0.133938    1.454099    0.007598
      5          6           0       -2.664256   -0.811263   -1.053552
      6          1           0        0.172435    1.940713   -0.848152
      7          8           0       -2.877211   -1.534919   -0.080573
      8          1           0       -1.557699    0.824816   -2.048865
      9          1           0       -3.267367   -0.933594   -1.981843
     10          8           0        0.089138    2.676007   -2.414805
     11          1           0        0.773221    2.566917   -3.092004
     12          1           0       -0.242763    3.573373   -2.566598
 ---------------------------------------------------------------------
                    Distance matrix (angstroms):
                    1          2          3          4          5
     1  C    0.000000
     2  C    1.357536   0.000000
     3  H    1.091187   2.148567   0.000000
     4  O    1.360073   2.421798   2.033866   0.000000
     5  C    2.462222   1.478722   2.712303   3.753370   0.000000
     6  H    1.926216   2.491573   2.854025   0.985181   3.957572
     7  O    2.884369   2.410829   2.637004   4.243704   1.231145
     8  H    2.142913   1.092173   3.122323   2.736178   2.211756
     9  H    3.417598   2.189974   3.804697   4.607366   1.113747
    10  O    3.337332   3.245298   4.394060   2.713504   4.647068
    11  H    4.008577   3.881041   5.047800   3.354784   5.232937
    12  H    4.008836   3.880686   5.048197   3.355549   5.232395
                    6          7          8          9         10
     6  H    0.000000
     7  O    4.687168   0.000000
     8  H    2.383339   3.344194   0.000000
     9  H    4.623758   2.031906   2.453459   0.000000
    10  O    1.732628   5.655066   2.504575   4.948010   0.000000
    11  H    2.405815   6.262542   3.091317   5.460071   0.968745
    12  H    2.406455   6.262211   3.090577   5.459204   0.968744
                   11         12
    11  H    0.000000
    12  H    1.523557   0.000000
 Stoichiometry    C3H6O3
 Framework group  C1[X(C3H6O3)]
 Deg. of freedom    30
 Full point group                 C1      NOp   1
 Largest Abelian subgroup         C1      NOp   1
 Largest concise Abelian subgroup C1      NOp   1
                         Standard orientation:                         
 ---------------------------------------------------------------------
 Center     Atomic      Atomic             Coordinates (Angstroms)
 Number     Number       Type             X           Y           Z
 ---------------------------------------------------------------------
      1          6           0        0.092735    0.909097    0.000018
      2          6           0        0.457383   -0.398548    0.000029
      3          1           0        0.824670    1.718393   -0.000029
      4          8           0       -1.181584    1.384396    0.000057
      5          6           0        1.886774   -0.777308   -0.000014
      6          1           0       -1.812868    0.628048    0.000163
      7          8           0        2.833360    0.009898   -0.000040
      8          1           0       -0.284135   -1.200416    0.000052
      9          1           0        2.074740   -1.875079   -0.000042
     10          8           0       -2.760071   -0.822747   -0.000025
     11          1           0       -3.279009   -1.120555   -0.761918
     12          1           0       -3.278386   -1.122220    0.761638
 ---------------------------------------------------------------------
 Rotational constants (GHZ):           6.9736268           1.4485920           1.2061359
 Standard basis: Aug-CC-pVDZ (5D, 7F)
 There are   204 symmetry adapted cartesian basis functions of A   symmetry.
 There are   192 symmetry adapted basis functions of A   symmetry.
   192 basis functions,   324 primitive gaussians,   204 cartesian basis functions
    24 alpha electrons       24 beta electrons
       nuclear repulsion energy       218.5337138477 Hartrees.
 NAtoms=   12 NActive=   12 NUniq=   12 SFac= 1.00D+00 NAtFMM=   60 NAOKFM=F Big=F
 Integral buffers will be    131072 words long.
 Raffenetti 1 integral format.
 Two-electron integral symmetry is turned on.
 One-electron integrals computed using PRISM.
 NBasis=   192 RedAO= T EigKep=  3.31D-05  NBF=   192
 NBsUse=   192 1.00D-06 EigRej= -1.00D+00 NBFU=   192
 Initial guess from the checkpoint file:  "/scr/Gau-88468.chk"
 B after Tr=    -0.000000    0.000000    0.000000
         Rot=    0.999978   -0.000003    0.000001   -0.006664 Ang=  -0.76 deg.
 ExpMin= 2.97D-02 ExpMax= 1.17D+04 ExpMxC= 4.01D+02 IAcc=3 IRadAn=         5 AccDes= 0.00D+00
 Harris functional with IExCor=  205 and IRadAn=       5 diagonalized for initial guess.
 HarFok:  IExCor=  205 AccDes= 0.00D+00 IRadAn=         5 IDoV= 1 UseB2=F ITyADJ=14
 ICtDFT=  3500011 ScaDFX=  1.000000  1.000000  1.000000  1.000000
 FoFCou: FMM=F IPFlag=           0 FMFlag=      100000 FMFlg1=           0
         NFxFlg=           0 DoJE=T BraDBF=F KetDBF=T FulRan=T
         wScrn=  0.000000 ICntrl=       500 IOpCl=  0 I1Cent=   200000004 NGrid=           0
         NMat0=    1 NMatS0=      1 NMatT0=    0 NMatD0=    1 NMtDS0=    0 NMtDT0=    0
 Petite list used in FoFCou.
 Keep R1 ints in memory in canonical form, NReq=180612800.
 Requested convergence on RMS density matrix=1.00D-08 within 128 cycles.
 Requested convergence on MAX density matrix=1.00D-06.
 Requested convergence on             energy=1.00D-06.
 No special actions if energy rises.
 SCF Done:  E(RHF) =  -341.711030402     A.U. after   13 cycles
            NFock= 13  Conv=0.45D-08     -V/T= 2.0020
 ExpMin= 2.97D-02 ExpMax= 1.17D+04 ExpMxC= 4.01D+02 IAcc=3 IRadAn=         5 AccDes= 0.00D+00
 HarFok:  IExCor=  205 AccDes= 0.00D+00 IRadAn=         5 IDoV=-2 UseB2=F ITyADJ=14
 ICtDFT= 12500011 ScaDFX=  1.000000  1.000000  1.000000  1.000000
 Range of M.O.s used for correlation:     7   192
 NBasis=   192 NAE=    24 NBE=    24 NFC=     6 NFV=     0
 NROrb=    186 NOA=    18 NOB=    18 NVA=   168 NVB=   168

 **** Warning!!: The largest alpha MO coefficient is  0.46405004D+02

 Fully direct method using O(ONN) memory.
 JobTyp=1 Pass  1:  I=   7 to  24 NPSUse= 40 ParTrn=T ParDer=T DoDerP=T.
 Spin components of T(2) and E(2):
     alpha-alpha T2 =       0.4255920093D-01 E2=     -0.1339808904D+00
     alpha-beta  T2 =       0.2345474581D+00 E2=     -0.7571279414D+00
     beta-beta   T2 =       0.4255920093D-01 E2=     -0.1339808904D+00
 ANorm=    0.1148767104D+01
 E2 =    -0.1025089722D+01 EUMP2 =    -0.34273612012402D+03
          IDoAtm=111111111111
          Differentiating once with respect to electric field.
                with respect to dipole field.
          Differentiating once with respect to nuclear coordinates.
 Keep R1 ints in memory in canonical form, NReq=180628374.
          There are     1 degrees of freedom in the 1st order CPHF.  IDoFFX=0 NUNeed=     1.
 LinEq1:  Iter=  0 NonCon=     1 RMS=4.88D-03 Max=1.18D-01 NDo=     1
 AX will form     1 AO Fock derivatives at one time.
 LinEq1:  Iter=  1 NonCon=     1 RMS=1.47D-03 Max=2.03D-02 NDo=     1
 LinEq1:  Iter=  2 NonCon=     1 RMS=5.61D-04 Max=1.19D-02 NDo=     1
 LinEq1:  Iter=  3 NonCon=     1 RMS=2.03D-04 Max=2.92D-03 NDo=     1
 LinEq1:  Iter=  4 NonCon=     1 RMS=7.27D-05 Max=1.11D-03 NDo=     1
 LinEq1:  Iter=  5 NonCon=     1 RMS=2.57D-05 Max=5.75D-04 NDo=     1
 LinEq1:  Iter=  6 NonCon=     1 RMS=9.71D-06 Max=3.00D-04 NDo=     1
 LinEq1:  Iter=  7 NonCon=     1 RMS=2.95D-06 Max=3.73D-05 NDo=     1
 LinEq1:  Iter=  8 NonCon=     1 RMS=1.13D-06 Max=2.56D-05 NDo=     1
 LinEq1:  Iter=  9 NonCon=     1 RMS=3.24D-07 Max=3.46D-06 NDo=     1
 LinEq1:  Iter= 10 NonCon=     1 RMS=8.17D-08 Max=1.00D-06 NDo=     1
 LinEq1:  Iter= 11 NonCon=     1 RMS=3.33D-08 Max=4.33D-07 NDo=     1
 LinEq1:  Iter= 12 NonCon=     1 RMS=9.19D-09 Max=1.26D-07 NDo=     1
 LinEq1:  Iter= 13 NonCon=     1 RMS=2.74D-09 Max=4.43D-08 NDo=     1
 LinEq1:  Iter= 14 NonCon=     1 RMS=7.90D-10 Max=7.34D-09 NDo=     1
 LinEq1:  Iter= 15 NonCon=     1 RMS=2.23D-10 Max=2.76D-09 NDo=     1
 LinEq1:  Iter= 16 NonCon=     0 RMS=3.53D-11 Max=3.27D-10 NDo=     1
 Linear equations converged to 1.000D-10 1.000D-09 after    16 iterations.
 End of Minotr F.D. properties file   721 does not exist.
 End of Minotr F.D. properties file   722 does not exist.
 End of Minotr F.D. properties file   788 does not exist.
 Calling FoFJK, ICntrl=  10002127 FMM=F ISym2X=0 I1Cent= 0 IOpClX= 0 NMat=1 NMatS=1 NMatT=0.
 ***** Axes restored to original set *****
 -------------------------------------------------------------------
 Center     Atomic                   Forces (Hartrees/Bohr)
 Number     Number              X              Y              Z
 -------------------------------------------------------------------
      1        6           0.011054394    0.009890637    0.002391855
      2        6          -0.008872004   -0.006787305   -0.004116323
      3        1          -0.001904068   -0.002003744    0.000161034
      4        8          -0.004072461   -0.003907881   -0.000375474
      5        6           0.005891314    0.006542864   -0.001161331
      6        1          -0.001247210   -0.003105903    0.003546456
      7        8          -0.001566205   -0.003434189    0.003548672
      8        1           0.000854097    0.000578412    0.000536528
      9        1          -0.001055450   -0.000522231   -0.001033161
     10        8           0.001554401    0.005553462   -0.007642732
     11        1          -0.000438421   -0.001284690    0.002130272
     12        1          -0.000198388   -0.001519431    0.002014204
 -------------------------------------------------------------------
 Cartesian Forces:  Max     0.011054394 RMS     0.004232408

 GradGradGradGradGradGradGradGradGradGradGradGradGradGradGradGradGradGrad
 Berny optimization.
 Using GEDIIS/GDIIS optimizer.
 FormGI is forming the generalized inverse of G from B-inverse, IUseBI=4.
 Internal  Forces:  Max     0.006137484 RMS     0.002650782
 Search for a local minimum.
 Step number   2 out of a maximum of   49
 All quantities printed in internal units (Hartrees-Bohrs-Radians)
 Mixed Optimization -- RFO/linear search
 Update second derivatives using D2CorX and points    1    2
 DE= -2.06D-03 DEPred=-2.82D-03 R= 7.32D-01
 TightC=F SS=  1.41D+00  RLast= 3.13D-01 DXNew= 5.0454D-01 9.4049D-01
 Trust test= 7.32D-01 RLast= 3.13D-01 DXMaxT set to 5.05D-01
 ITU=  1  0
 Use linear search instead of GDIIS.
     Eigenvalues ---    0.00230   0.00230   0.00718   0.01046   0.01046
     Eigenvalues ---    0.01940   0.02031   0.02093   0.02696   0.02945
     Eigenvalues ---    0.05944   0.12199   0.15194   0.16000   0.16000
     Eigenvalues ---    0.16000   0.16832   0.19933   0.22000   0.22468
     Eigenvalues ---    0.32494   0.34537   0.35391   0.36414   0.46238
     Eigenvalues ---    0.50138   0.52357   0.52550   0.55723   0.91524
 RFO step:  Lambda=-6.68693683D-03 EMin= 2.29999941D-03
 Quartic linear search produced a step of -0.09947.
 Maximum step size (   0.505) exceeded in Quadratic search.
    -- Step size scaled by   0.856
 Iteration  1 RMS(Cart)=  0.22557434 RMS(Int)=  0.04812475
 Iteration  2 RMS(Cart)=  0.15594625 RMS(Int)=  0.01542909
 Iteration  3 RMS(Cart)=  0.05278576 RMS(Int)=  0.00289802
 Iteration  4 RMS(Cart)=  0.00205508 RMS(Int)=  0.00270510
 Iteration  5 RMS(Cart)=  0.00000259 RMS(Int)=  0.00270510
 Iteration  6 RMS(Cart)=  0.00000001 RMS(Int)=  0.00270510
 Variable       Old X    -DE/DX   Delta X   Delta X   Delta X     New X
                                 (Linear)    (Quad)   (Total)
    R1        2.56537   0.00522  -0.00418   0.08438   0.08020   2.64557
    R2        2.06205   0.00130  -0.00120   0.02511   0.02390   2.08595
    R3        2.57017  -0.00614   0.00180  -0.04368  -0.04188   2.52828
    R4        2.79438  -0.00406   0.00002  -0.01093  -0.01091   2.78347
    R5        2.06391  -0.00009  -0.00204   0.03664   0.03461   2.09852
    R6        1.86172  -0.00022   0.00026  -0.00513  -0.00445   1.85728
    R7        2.32653   0.00509  -0.00139   0.03049   0.02910   2.35562
    R8        2.10468   0.00149  -0.00209   0.04182   0.03973   2.14440
    R9        3.27419   0.00428  -0.00505   0.13462   0.12934   3.40353
   R10        1.83066  -0.00165   0.00101  -0.02116  -0.02015   1.81051
   R11        1.83066  -0.00166   0.00101  -0.02116  -0.02015   1.81051
    A1        2.13440  -0.00514   0.00358  -0.08810  -0.08453   2.04987
    A2        2.19975   0.00524  -0.00260   0.06789   0.06529   2.26503
    A3        1.94904  -0.00010  -0.00097   0.02021   0.01924   1.96828
    A4        2.10177  -0.00148  -0.00047   0.00234   0.00187   2.10364
    A5        2.12333  -0.00046   0.00191  -0.03755  -0.03564   2.08769
    A6        2.05808   0.00194  -0.00145   0.03522   0.03377   2.09185
    A7        1.90931   0.00547   0.00042   0.02268   0.02310   1.93241
    A8        2.18884   0.00112  -0.00234   0.04644   0.04410   2.23293
    A9        1.99940  -0.00005  -0.00049   0.00898   0.00849   2.00789
   A10        2.09495  -0.00107   0.00283  -0.05541  -0.05258   2.04236
   A11        2.15357  -0.00111   0.00135  -0.02586  -0.02629   2.12728
   A12        2.15467  -0.00125   0.00129  -0.02591  -0.02296   2.13172
   A13        1.80978   0.00270  -0.00231   0.06066   0.05291   1.86269
   A14        3.02448   0.00595   0.02791   0.44191   0.47313   3.49762
   A15        3.14181  -0.00000  -0.00002  -0.00003  -0.00005   3.14176
    D1        0.00001   0.00000  -0.00000   0.00001   0.00001   0.00002
    D2       -3.14157   0.00000  -0.00000   0.00006   0.00005  -3.14151
    D3       -3.14159   0.00000   0.00000  -0.00001  -0.00001   3.14159
    D4        0.00002   0.00000  -0.00000   0.00003   0.00003   0.00005
    D5        0.00007   0.00000  -0.00000   0.00009   0.00009   0.00016
    D6       -3.14152   0.00000  -0.00000   0.00007   0.00007  -3.14146
    D7        0.00002   0.00000   0.00000   0.00003   0.00003   0.00006
    D8       -3.14155  -0.00000  -0.00000  -0.00001  -0.00001  -3.14157
    D9       -3.14159   0.00000   0.00000  -0.00001  -0.00001   3.14159
   D10        0.00002  -0.00000   0.00000  -0.00005  -0.00005  -0.00003
   D11       -1.88647  -0.00068  -0.00648  -0.08633  -0.08368  -1.97015
   D12        1.88487   0.00069   0.00645   0.08685   0.08418   1.96906
   D13       -2.56836  -0.00030  -0.00076  -0.00944  -0.00171  -2.57007
         Item               Value     Threshold  Converged?
 Maximum Force            0.006137     0.000450     NO 
 RMS     Force            0.002651     0.000300     NO 
 Maximum Displacement     0.868777     0.001800     NO 
 RMS     Displacement     0.422519     0.001200     NO 
 Predicted change in Energy=-4.310521D-03
 GradGradGradGradGradGradGradGradGradGradGradGradGradGradGradGradGradGrad

                          Input orientation:                          
 ---------------------------------------------------------------------
 Center     Atomic      Atomic             Coordinates (Angstroms)
 Number     Number       Type             X           Y           Z
 ---------------------------------------------------------------------
      1          6           0       -0.916449    0.501136   -0.195165
      2          6           0       -1.840465    0.072584   -1.155616
      3          1           0       -0.920973   -0.014392    0.780881
      4          8           0        0.005814    1.467784   -0.266044
      5          6           0       -2.775172   -1.025893   -0.856878
      6          1           0       -0.016537    1.905874   -1.145549
      7          8           0       -2.876143   -1.680404    0.199193
      8          1           0       -1.867187    0.566124   -2.150043
      9          1           0       -3.483002   -1.297343   -1.701268
     10          8           0        0.413262    3.037299   -2.479345
     11          1           0        1.232958    2.954907   -2.968457
     12          1           0        0.208224    3.972373   -2.440438
 ---------------------------------------------------------------------
                    Distance matrix (angstroms):
                    1          2          3          4          5
     1  C    0.000000
     2  C    1.399975   0.000000
     3  H    1.103837   2.145473   0.000000
     4  O    1.337910   2.479248   2.037604   0.000000
     5  C    2.494901   1.472947   2.672723   3.781719   0.000000
     6  H    1.919989   2.586072   2.866454   0.982829   4.035920
     7  O    2.958891   2.445629   2.633752   4.293392   1.246542
     8  H    2.174781   1.110487   3.134109   2.805455   2.243040
     9  H    3.477077   2.207343   3.790914   4.677354   1.134770
    10  O    3.663022   3.952351   4.660695   2.743737   5.413690
    11  H    4.281599   4.586950   5.245349   3.319707   6.030807
    12  H    4.284347   4.588709   5.248455   3.322939   6.032493
                    6          7          8          9         10
     6  H    0.000000
     7  O    4.779860   0.000000
     8  H    2.495764   3.403497   0.000000
     9  H    4.752452   2.031444   2.506944   0.000000
    10  O    1.801073   6.344405   3.378697   5.880085   0.000000
    11  H    2.446365   6.957357   3.998372   6.475158   0.958082
    12  H    2.449015   6.959516   3.999274   6.476220   0.958080
                   11         12
    11  H    0.000000
    12  H    1.537570   0.000000
 Stoichiometry    C3H6O3
 Framework group  C1[X(C3H6O3)]
 Deg. of freedom    30
 Full point group                 C1      NOp   1
 Largest Abelian subgroup         C1      NOp   1
 Largest concise Abelian subgroup C1      NOp   1
                         Standard orientation:                         
 ---------------------------------------------------------------------
 Center     Atomic      Atomic             Coordinates (Angstroms)
 Number     Number       Type             X           Y           Z
 ---------------------------------------------------------------------
      1          6           0        0.119038    0.756310    0.000058
      2          6           0        0.672586   -0.529580   -0.000055
      3          1           0        0.817596    1.610987    0.000109
      4          8           0       -1.163869    1.135983    0.000090
      5          6           0        2.133792   -0.715185   -0.000075
      6          1           0       -1.758154    0.353182    0.000169
      7          8           0        3.017943    0.163533    0.000053
      8          1           0        0.002835   -1.415365   -0.000185
      9          1           0        2.480775   -1.795604   -0.000196
     10          8           0       -3.278910   -0.611786    0.000105
     11          1           0       -3.847478   -0.660240   -0.769508
     12          1           0       -3.849379   -0.664070    0.768056
 ---------------------------------------------------------------------
 Rotational constants (GHZ):           9.4588329           1.1481329           1.0288213
 Standard basis: Aug-CC-pVDZ (5D, 7F)
 There are   204 symmetry adapted cartesian basis functions of A   symmetry.
 There are   192 symmetry adapted basis functions of A   symmetry.
   192 basis functions,   324 primitive gaussians,   204 cartesian basis functions
    24 alpha electrons       24 beta electrons
       nuclear repulsion energy       211.9991085734 Hartrees.
 NAtoms=   12 NActive=   12 NUniq=   12 SFac= 1.00D+00 NAtFMM=   60 NAOKFM=F Big=F
 Integral buffers will be    131072 words long.
 Raffenetti 1 integral format.
 Two-electron integral symmetry is turned on.
 One-electron integrals computed using PRISM.
 NBasis=   192 RedAO= T EigKep=  4.09D-05  NBF=   192
 NBsUse=   192 1.00D-06 EigRej= -1.00D+00 NBFU=   192
 Initial guess from the checkpoint file:  "/scr/Gau-88468.chk"
 B after Tr=     0.000000   -0.000000   -0.000000
         Rot=    0.999978   -0.000061    0.000008    0.006561 Ang=  -0.75 deg.
 ExpMin= 2.97D-02 ExpMax= 1.17D+04 ExpMxC= 4.01D+02 IAcc=3 IRadAn=         5 AccDes= 0.00D+00
 Harris functional with IExCor=  205 and IRadAn=       5 diagonalized for initial guess.
 HarFok:  IExCor=  205 AccDes= 0.00D+00 IRadAn=         5 IDoV= 1 UseB2=F ITyADJ=14
 ICtDFT=  3500011 ScaDFX=  1.000000  1.000000  1.000000  1.000000
 FoFCou: FMM=F IPFlag=           0 FMFlag=      100000 FMFlg1=           0
         NFxFlg=           0 DoJE=T BraDBF=F KetDBF=T FulRan=T
         wScrn=  0.000000 ICntrl=       500 IOpCl=  0 I1Cent=   200000004 NGrid=           0
         NMat0=    1 NMatS0=      1 NMatT0=    0 NMatD0=    1 NMtDS0=    0 NMtDT0=    0
 Petite list used in FoFCou.
 Keep R1 ints in memory in canonical form, NReq=180600027.
 Requested convergence on RMS density matrix=1.00D-08 within 128 cycles.
 Requested convergence on MAX density matrix=1.00D-06.
 Requested convergence on             energy=1.00D-06.
 No special actions if energy rises.
 SCF Done:  E(RHF) =  -341.706582706     A.U. after   14 cycles
            NFock= 14  Conv=0.60D-08     -V/T= 2.0026
 ExpMin= 2.97D-02 ExpMax= 1.17D+04 ExpMxC= 4.01D+02 IAcc=3 IRadAn=         5 AccDes= 0.00D+00
 HarFok:  IExCor=  205 AccDes= 0.00D+00 IRadAn=         5 IDoV=-2 UseB2=F ITyADJ=14
 ICtDFT= 12500011 ScaDFX=  1.000000  1.000000  1.000000  1.000000
 Range of M.O.s used for correlation:     7   192
 NBasis=   192 NAE=    24 NBE=    24 NFC=     6 NFV=     0
 NROrb=    186 NOA=    18 NOB=    18 NVA=   168 NVB=   168

 **** Warning!!: The largest alpha MO coefficient is  0.38507845D+02

 Fully direct method using O(ONN) memory.
 JobTyp=1 Pass  1:  I=   7 to  24 NPSUse= 40 ParTrn=T ParDer=T DoDerP=T.
 Spin components of T(2) and E(2):
     alpha-alpha T2 =       0.4294335386D-01 E2=     -0.1340499482D+00
     alpha-beta  T2 =       0.2370026912D+00 E2=     -0.7584195894D+00
     beta-beta   T2 =       0.4294335386D-01 E2=     -0.1340499482D+00
 ANorm=    0.1150169291D+01
 E2 =    -0.1026519486D+01 EUMP2 =    -0.34273310219146D+03
          IDoAtm=111111111111
          Differentiating once with respect to electric field.
                with respect to dipole field.
          Differentiating once with respect to nuclear coordinates.
 Keep R1 ints in memory in canonical form, NReq=180614898.
          There are     1 degrees of freedom in the 1st order CPHF.  IDoFFX=0 NUNeed=     1.
 LinEq1:  Iter=  0 NonCon=     1 RMS=5.01D-03 Max=1.16D-01 NDo=     1
 AX will form     1 AO Fock derivatives at one time.
 LinEq1:  Iter=  1 NonCon=     1 RMS=1.54D-03 Max=2.96D-02 NDo=     1
 LinEq1:  Iter=  2 NonCon=     1 RMS=6.09D-04 Max=1.25D-02 NDo=     1
 LinEq1:  Iter=  3 NonCon=     1 RMS=2.35D-04 Max=4.28D-03 NDo=     1
 LinEq1:  Iter=  4 NonCon=     1 RMS=8.63D-05 Max=1.54D-03 NDo=     1
 LinEq1:  Iter=  5 NonCon=     1 RMS=3.18D-05 Max=8.15D-04 NDo=     1
 LinEq1:  Iter=  6 NonCon=     1 RMS=1.10D-05 Max=2.66D-04 NDo=     1
 LinEq1:  Iter=  7 NonCon=     1 RMS=3.22D-06 Max=5.80D-05 NDo=     1
 LinEq1:  Iter=  8 NonCon=     1 RMS=1.22D-06 Max=2.39D-05 NDo=     1
 LinEq1:  Iter=  9 NonCon=     1 RMS=3.51D-07 Max=3.74D-06 NDo=     1
 LinEq1:  Iter= 10 NonCon=     1 RMS=7.93D-08 Max=8.80D-07 NDo=     1
 LinEq1:  Iter= 11 NonCon=     1 RMS=2.95D-08 Max=5.30D-07 NDo=     1
 LinEq1:  Iter= 12 NonCon=     1 RMS=8.70D-09 Max=1.13D-07 NDo=     1
 LinEq1:  Iter= 13 NonCon=     1 RMS=2.85D-09 Max=4.73D-08 NDo=     1
 LinEq1:  Iter= 14 NonCon=     1 RMS=8.72D-10 Max=1.03D-08 NDo=     1
 LinEq1:  Iter= 15 NonCon=     1 RMS=2.48D-10 Max=3.02D-09 NDo=     1
 LinEq1:  Iter= 16 NonCon=     0 RMS=3.88D-11 Max=3.47D-10 NDo=     1
 Linear equations converged to 1.000D-10 1.000D-09 after    16 iterations.
 End of Minotr F.D. properties file   721 does not exist.
 End of Minotr F.D. properties file   722 does not exist.
 End of Minotr F.D. properties file   788 does not exist.
 Calling FoFJK, ICntrl=  10002127 FMM=F ISym2X=0 I1Cent= 0 IOpClX= 0 NMat=1 NMatS=1 NMatT=0.
 ***** Axes restored to original set *****
 -------------------------------------------------------------------
 Center     Atomic                   Forces (Hartrees/Bohr)
 Number     Number              X              Y              Z
 -------------------------------------------------------------------
      1        6          -0.026836709   -0.023288814   -0.007193521
      2        6           0.024483536    0.017925214    0.012890436
      3        1           0.001202578    0.003668256   -0.004688432
      4        8          -0.001955419    0.000967354   -0.005630137
      5        6          -0.012123802   -0.012317776    0.000197881
      6        1           0.002703375    0.001755299    0.001924022
      7        8           0.007158716    0.012553226   -0.010202027
      8        1          -0.001983923   -0.006402925    0.008418477
      9        1           0.008480268    0.005530306    0.005760439
     10        8          -0.007747326   -0.009166861    0.002579065
     11        1           0.006390535    0.001339914   -0.003623105
     12        1           0.000228172    0.007436807   -0.000433098
 -------------------------------------------------------------------
 Cartesian Forces:  Max     0.026836709 RMS     0.010019204

 GradGradGradGradGradGradGradGradGradGradGradGradGradGradGradGradGradGrad
 Berny optimization.
 Using GEDIIS/GDIIS optimizer.
 FormGI is forming the generalized inverse of G from B-inverse, IUseBI=4.
 Internal  Forces:  Max     0.034170059 RMS     0.007655275
 Search for a local minimum.
 Step number   3 out of a maximum of   49
 All quantities printed in internal units (Hartrees-Bohrs-Radians)
 Mixed Optimization -- RFO/linear search
 Update second derivatives using D2CorX and points    1    3    2
 DE=  3.02D-03 DEPred=-4.31D-03 R=-7.00D-01
 Trust test=-7.00D-01 RLast= 5.40D-01 DXMaxT set to 2.52D-01
 ITU= -1  1  0
 Use linear search instead of GDIIS.
     Eigenvalues ---    0.00230   0.00230   0.01046   0.01046   0.01882
     Eigenvalues ---    0.01993   0.02093   0.02425   0.02675   0.02945
     Eigenvalues ---    0.06239   0.13869   0.15079   0.16000   0.16000
     Eigenvalues ---    0.16159   0.16608   0.21816   0.22056   0.23021
     Eigenvalues ---    0.33096   0.34385   0.35506   0.36906   0.47928
     Eigenvalues ---    0.50110   0.52550   0.52760   0.62489   0.93104
 RFO step:  Lambda=-4.48863509D-04 EMin= 2.29999808D-03
 Quartic linear search produced a step of -0.71638.
 Iteration  1 RMS(Cart)=  0.17260432 RMS(Int)=  0.02373499
 Iteration  2 RMS(Cart)=  0.10251138 RMS(Int)=  0.00315506
 Iteration  3 RMS(Cart)=  0.00483555 RMS(Int)=  0.00075416
 Iteration  4 RMS(Cart)=  0.00000271 RMS(Int)=  0.00075416
 Iteration  5 RMS(Cart)=  0.00000001 RMS(Int)=  0.00075416
 Variable       Old X    -DE/DX   Delta X   Delta X   Delta X     New X
                                 (Linear)    (Quad)   (Total)
    R1        2.64557  -0.03417  -0.05745  -0.00604  -0.06349   2.58208
    R2        2.08595  -0.00586  -0.01712  -0.00098  -0.01810   2.06785
    R3        2.52828   0.00170   0.03000  -0.00962   0.02038   2.54866
    R4        2.78347  -0.00739   0.00782  -0.01468  -0.00686   2.77660
    R5        2.09852  -0.01034  -0.02479  -0.00665  -0.03145   2.06707
    R6        1.85728   0.00016   0.00319  -0.00041   0.00277   1.86005
    R7        2.35562  -0.01581  -0.02084   0.00067  -0.02017   2.33545
    R8        2.14440  -0.01090  -0.02846  -0.00425  -0.03271   2.11169
    R9        3.40353   0.00058  -0.09266   0.04158  -0.05108   3.35245
   R10        1.81051   0.00720   0.01444   0.00062   0.01506   1.82557
   R11        1.81051   0.00719   0.01444   0.00062   0.01505   1.82556
    A1        2.04987   0.00729   0.06055  -0.01190   0.04865   2.09852
    A2        2.26503  -0.01128  -0.04677   0.00462  -0.04215   2.22288
    A3        1.96828   0.00399  -0.01378   0.00729  -0.00650   1.96179
    A4        2.10364  -0.00310  -0.00134  -0.00857  -0.00991   2.09373
    A5        2.08769   0.00469   0.02553   0.00358   0.02911   2.11680
    A6        2.09185  -0.00159  -0.02419   0.00499  -0.01920   2.07265
    A7        1.93241  -0.00152  -0.01655   0.02169   0.00514   1.93755
    A8        2.23293  -0.00951  -0.03159  -0.00693  -0.03852   2.19441
    A9        2.00789   0.00035  -0.00608  -0.00117  -0.00725   2.00064
   A10        2.04236   0.00916   0.03767   0.00810   0.04577   2.08813
   A11        2.12728   0.00070   0.01883  -0.00519   0.01433   2.14161
   A12        2.13172   0.00104   0.01645  -0.00492   0.01114   2.14286
   A13        1.86269  -0.00247  -0.03790   0.00772  -0.02889   1.83379
   A14        3.49762  -0.00553  -0.33894  -0.00428  -0.34429   3.15333
   A15        3.14176   0.00002   0.00003   0.00177   0.00180   3.14357
    D1        0.00002  -0.00000  -0.00001  -0.00001  -0.00002   0.00001
    D2       -3.14151  -0.00000  -0.00004  -0.00002  -0.00005  -3.14157
    D3        3.14159   0.00000   0.00001   0.00001   0.00001  -3.14158
    D4        0.00005  -0.00000  -0.00002  -0.00000  -0.00002   0.00003
    D5        0.00016  -0.00001  -0.00006  -0.00002  -0.00009   0.00007
    D6       -3.14146  -0.00000  -0.00005  -0.00001  -0.00006  -3.14152
    D7        0.00006  -0.00000  -0.00002  -0.00000  -0.00003   0.00003
    D8       -3.14157   0.00000   0.00001  -0.00001   0.00000  -3.14157
    D9        3.14159  -0.00000   0.00000   0.00001   0.00001  -3.14158
   D10       -0.00003   0.00000   0.00004   0.00000   0.00004   0.00001
   D11       -1.97015  -0.00020   0.05995   0.00110   0.05858  -1.91157
   D12        1.96906   0.00019  -0.06031  -0.00145  -0.05929   1.90977
   D13       -2.57007   0.00094   0.00122   0.00489   0.00354  -2.56652
         Item               Value     Threshold  Converged?
 Maximum Force            0.034170     0.000450     NO 
 RMS     Force            0.007655     0.000300     NO 
 Maximum Displacement     0.546401     0.001800     NO 
 RMS     Displacement     0.273820     0.001200     NO 
 Predicted change in Energy=-1.264311D-04
 GradGradGradGradGradGradGradGradGradGradGradGradGradGradGradGradGradGrad

                          Input orientation:                          
 ---------------------------------------------------------------------
 Center     Atomic      Atomic             Coordinates (Angstroms)
 Number     Number       Type             X           Y           Z
 ---------------------------------------------------------------------
      1          6           0       -0.875229    0.491276   -0.096384
      2          6           0       -1.713782    0.188490   -1.131825
      3          1           0       -0.937619   -0.064894    0.843927
      4          8           0        0.081246    1.441736   -0.068891
      5          6           0       -2.703479   -0.887403   -0.984047
      6          1           0        0.119566    1.928729   -0.923411
      7          8           0       -2.868509   -1.582721    0.024251
      8          1           0       -1.666279    0.733288   -2.079158
      9          1           0       -3.342272   -1.059452   -1.884636
     10          8           0        0.206448    2.815871   -2.457249
     11          1           0        0.943815    2.720922   -3.074118
     12          1           0       -0.079577    3.734209   -2.547189
 ---------------------------------------------------------------------
                    Distance matrix (angstroms):
                    1          2          3          4          5
     1  C    0.000000
     2  C    1.366378   0.000000
     3  H    1.094259   2.137810   0.000000
     4  O    1.348694   2.433635   2.035008   0.000000
     5  C    2.455850   1.469315   2.671381   3.743942   0.000000
     6  H    1.933873   2.536343   2.866297   0.984295   3.987965
     7  O    2.879093   2.409791   2.589209   4.225762   1.235866
     8  H    2.148423   1.093846   3.116483   2.756250   2.213977
     9  H    3.418904   2.185421   3.770486   4.612304   1.117460
    10  O    3.485319   3.513853   4.528296   2.758293   4.934799
    11  H    4.140911   4.153136   5.162523   3.378126   5.539961
    12  H    4.141995   4.152831   5.164212   3.379831   5.539637
                    6          7          8          9         10
     6  H    0.000000
     7  O    4.707116   0.000000
     8  H    2.440097   3.351653   0.000000
     9  H    4.673062   2.035218   2.461851   0.000000
    10  O    1.774043   5.912767   2.826165   5.285776   0.000000
    11  H    2.435672   6.531083   3.428298   5.837520   0.966050
    12  H    2.436405   6.531476   3.426690   5.836381   0.966045
                   11         12
    11  H    0.000000
    12  H    1.533537   0.000000
 Stoichiometry    C3H6O3
 Framework group  C1[X(C3H6O3)]
 Deg. of freedom    30
 Full point group                 C1      NOp   1
 Largest Abelian subgroup         C1      NOp   1
 Largest concise Abelian subgroup C1      NOp   1
                         Standard orientation:                         
 ---------------------------------------------------------------------
 Center     Atomic      Atomic             Coordinates (Angstroms)
 Number     Number       Type             X           Y           Z
 ---------------------------------------------------------------------
      1          6           0        0.126651    0.856079    0.000080
      2          6           0        0.530829   -0.449153    0.000725
      3          1           0        0.866738    1.662101   -0.000836
      4          8           0       -1.139446    1.320808    0.000441
      5          6           0        1.963879   -0.773583    0.000196
      6          1           0       -1.787394    0.579864    0.001337
      7          8           0        2.889297    0.045543   -0.000789
      8          1           0       -0.194125   -1.268262    0.001619
      9          1           0        2.193772   -1.867139    0.000766
     10          8           0       -2.970817   -0.741776   -0.000520
     11          1           0       -3.519768   -0.949807   -0.767743
     12          1           0       -3.519651   -0.953422    0.765790
 ---------------------------------------------------------------------
 Rotational constants (GHZ):           7.6249326           1.3299989           1.1385124
 Standard basis: Aug-CC-pVDZ (5D, 7F)
 There are   204 symmetry adapted cartesian basis functions of A   symmetry.
 There are   192 symmetry adapted basis functions of A   symmetry.
   192 basis functions,   324 primitive gaussians,   204 cartesian basis functions
    24 alpha electrons       24 beta electrons
       nuclear repulsion energy       216.2449290585 Hartrees.
 NAtoms=   12 NActive=   12 NUniq=   12 SFac= 1.00D+00 NAtFMM=   60 NAOKFM=F Big=F
 Integral buffers will be    131072 words long.
 Raffenetti 1 integral format.
 Two-electron integral symmetry is turned on.
 One-electron integrals computed using PRISM.
 NBasis=   192 RedAO= T EigKep=  3.55D-05  NBF=   192
 NBsUse=   192 1.00D-06 EigRej= -1.00D+00 NBFU=   192
 Lowest energy guess from the checkpoint file:  "/scr/Gau-88468.chk"
 B after Tr=     0.000000   -0.000000   -0.000000
         Rot=    0.999975   -0.000057   -0.000003    0.007076 Ang=  -0.81 deg.
 B after Tr=    -0.000000   -0.000000   -0.000000
         Rot=    1.000000    0.000058   -0.000001    0.000010 Ang=   0.01 deg.
 Keep R1 ints in memory in canonical form, NReq=180607878.
 Requested convergence on RMS density matrix=1.00D-08 within 128 cycles.
 Requested convergence on MAX density matrix=1.00D-06.
 Requested convergence on             energy=1.00D-06.
 No special actions if energy rises.
 SCF Done:  E(RHF) =  -341.712714582     A.U. after   12 cycles
            NFock= 12  Conv=0.28D-08     -V/T= 2.0021
 ExpMin= 2.97D-02 ExpMax= 1.17D+04 ExpMxC= 4.01D+02 IAcc=3 IRadAn=         5 AccDes= 0.00D+00
 HarFok:  IExCor=  205 AccDes= 0.00D+00 IRadAn=         5 IDoV=-2 UseB2=F ITyADJ=14
 ICtDFT= 12500011 ScaDFX=  1.000000  1.000000  1.000000  1.000000
 Range of M.O.s used for correlation:     7   192
 NBasis=   192 NAE=    24 NBE=    24 NFC=     6 NFV=     0
 NROrb=    186 NOA=    18 NOB=    18 NVA=   168 NVB=   168

 **** Warning!!: The largest alpha MO coefficient is  0.35938369D+02

 Fully direct method using O(ONN) memory.
 JobTyp=1 Pass  1:  I=   7 to  24 NPSUse= 40 ParTrn=T ParDer=T DoDerP=T.
 Spin components of T(2) and E(2):
     alpha-alpha T2 =       0.4255018896D-01 E2=     -0.1338404350D+00
     alpha-beta  T2 =       0.2345452430D+00 E2=     -0.7566042825D+00
     beta-beta   T2 =       0.4255018896D-01 E2=     -0.1338404350D+00
 ANorm=    0.1148758295D+01
 E2 =    -0.1024285153D+01 EUMP2 =    -0.34273699973434D+03
          IDoAtm=111111111111
          Differentiating once with respect to electric field.
                with respect to dipole field.
          Differentiating once with respect to nuclear coordinates.
 Keep R1 ints in memory in canonical form, NReq=180622337.
          There are     1 degrees of freedom in the 1st order CPHF.  IDoFFX=0 NUNeed=     1.
 LinEq1:  Iter=  0 NonCon=     1 RMS=4.90D-03 Max=1.18D-01 NDo=     1
 AX will form     1 AO Fock derivatives at one time.
 LinEq1:  Iter=  1 NonCon=     1 RMS=1.48D-03 Max=2.05D-02 NDo=     1
 LinEq1:  Iter=  2 NonCon=     1 RMS=5.72D-04 Max=1.22D-02 NDo=     1
 LinEq1:  Iter=  3 NonCon=     1 RMS=2.11D-04 Max=2.95D-03 NDo=     1
 LinEq1:  Iter=  4 NonCon=     1 RMS=7.65D-05 Max=1.13D-03 NDo=     1
 LinEq1:  Iter=  5 NonCon=     1 RMS=2.74D-05 Max=6.58D-04 NDo=     1
 LinEq1:  Iter=  6 NonCon=     1 RMS=1.01D-05 Max=2.89D-04 NDo=     1
 LinEq1:  Iter=  7 NonCon=     1 RMS=3.02D-06 Max=4.09D-05 NDo=     1
 LinEq1:  Iter=  8 NonCon=     1 RMS=1.14D-06 Max=2.48D-05 NDo=     1
 LinEq1:  Iter=  9 NonCon=     1 RMS=3.27D-07 Max=3.31D-06 NDo=     1
 LinEq1:  Iter= 10 NonCon=     1 RMS=8.08D-08 Max=1.01D-06 NDo=     1
 LinEq1:  Iter= 11 NonCon=     1 RMS=3.24D-08 Max=4.39D-07 NDo=     1
 LinEq1:  Iter= 12 NonCon=     1 RMS=9.22D-09 Max=1.24D-07 NDo=     1
 LinEq1:  Iter= 13 NonCon=     1 RMS=2.78D-09 Max=4.39D-08 NDo=     1
 LinEq1:  Iter= 14 NonCon=     1 RMS=8.05D-10 Max=7.60D-09 NDo=     1
 LinEq1:  Iter= 15 NonCon=     1 RMS=2.25D-10 Max=2.94D-09 NDo=     1
 LinEq1:  Iter= 16 NonCon=     0 RMS=3.51D-11 Max=3.11D-10 NDo=     1
 Linear equations converged to 1.000D-10 1.000D-09 after    16 iterations.
 End of Minotr F.D. properties file   721 does not exist.
 End of Minotr F.D. properties file   722 does not exist.
 End of Minotr F.D. properties file   788 does not exist.
 Calling FoFJK, ICntrl=  10002127 FMM=F ISym2X=0 I1Cent= 0 IOpClX= 0 NMat=1 NMatS=1 NMatT=0.
 ***** Axes restored to original set *****
 -------------------------------------------------------------------
 Center     Atomic                   Forces (Hartrees/Bohr)
 Number     Number              X              Y              Z
 -------------------------------------------------------------------
      1        6          -0.000485085    0.000422053   -0.001733060
      2        6           0.002613278    0.001690461    0.001809277
      3        1          -0.000109129    0.000113647   -0.000431912
      4        8           0.000155044    0.000330638   -0.000285493
      5        6          -0.000936992   -0.000731496   -0.000405376
      6        1          -0.001724188   -0.002690392    0.001748379
      7        8           0.000143288    0.000474697   -0.000630962
      8        1           0.000137204    0.000052547    0.000153653
      9        1           0.000353170   -0.000087981    0.000846935
     10        8          -0.000702818    0.000122011   -0.001568385
     11        1           0.000320124    0.000106141    0.000226467
     12        1           0.000236104    0.000197673    0.000270476
 -------------------------------------------------------------------
 Cartesian Forces:  Max     0.002690392 RMS     0.001006774

 GradGradGradGradGradGradGradGradGradGradGradGradGradGradGradGradGradGrad
 Berny optimization.
 Using GEDIIS/GDIIS optimizer.
 FormGI is forming the generalized inverse of G from B-inverse, IUseBI=4.
 Internal  Forces:  Max     0.004520995 RMS     0.001134948
 Search for a local minimum.
 Step number   4 out of a maximum of   49
 All quantities printed in internal units (Hartrees-Bohrs-Radians)
 Mixed Optimization -- RFO/linear search
 Update second derivatives using D2CorX and points    1    3    2    4
 DE= -8.80D-04 DEPred=-1.26D-04 R= 6.96D+00
 TightC=F SS=  1.41D+00  RLast= 1.71D-01 DXNew= 4.2426D-01 5.1359D-01
 Trust test= 6.96D+00 RLast= 1.71D-01 DXMaxT set to 4.24D-01
 ITU=  1 -1  1  0
 Use linear search instead of GDIIS.
     Eigenvalues ---    0.00230   0.00230   0.01046   0.01046   0.01833
     Eigenvalues ---    0.02020   0.02093   0.02582   0.02686   0.02945
     Eigenvalues ---    0.05330   0.13716   0.15227   0.15999   0.16000
     Eigenvalues ---    0.16191   0.18870   0.21926   0.22770   0.24768
     Eigenvalues ---    0.33261   0.34224   0.35524   0.36939   0.46112
     Eigenvalues ---    0.50435   0.52550   0.52801   0.63270   0.93337
 RFO step:  Lambda=-1.86961294D-04 EMin= 2.29999993D-03
 Quartic linear search produced a step of -0.07158.
 Iteration  1 RMS(Cart)=  0.02226215 RMS(Int)=  0.00010648
 Iteration  2 RMS(Cart)=  0.00015934 RMS(Int)=  0.00002004
 Iteration  3 RMS(Cart)=  0.00000001 RMS(Int)=  0.00002004
 Variable       Old X    -DE/DX   Delta X   Delta X   Delta X     New X
                                 (Linear)    (Quad)   (Total)
    R1        2.58208  -0.00307  -0.00120  -0.00222  -0.00342   2.57866
    R2        2.06785  -0.00042  -0.00042  -0.00018  -0.00060   2.06725
    R3        2.54866  -0.00257   0.00154  -0.00787  -0.00633   2.54233
    R4        2.77660   0.00053   0.00127  -0.00121   0.00006   2.77667
    R5        2.06707  -0.00010  -0.00023   0.00026   0.00003   2.06710
    R6        1.86005  -0.00178   0.00012  -0.00354  -0.00342   1.85663
    R7        2.33545  -0.00080  -0.00064   0.00060  -0.00004   2.33541
    R8        2.11169  -0.00087  -0.00050  -0.00126  -0.00176   2.10993
    R9        3.35245   0.00113  -0.00560   0.02526   0.01966   3.37211
   R10        1.82557   0.00009   0.00036  -0.00064  -0.00028   1.82529
   R11        1.82556   0.00009   0.00036  -0.00064  -0.00027   1.82529
    A1        2.09852   0.00086   0.00257  -0.00219   0.00038   2.09890
    A2        2.22288  -0.00209  -0.00166  -0.00500  -0.00666   2.21622
    A3        1.96179   0.00123  -0.00091   0.00719   0.00628   1.96807
    A4        2.09373   0.00011   0.00058  -0.00071  -0.00014   2.09359
    A5        2.11680  -0.00025   0.00047  -0.00239  -0.00193   2.11488
    A6        2.07265   0.00014  -0.00104   0.00311   0.00206   2.07472
    A7        1.93755  -0.00452  -0.00202  -0.02163  -0.02366   1.91389
    A8        2.19441  -0.00029  -0.00040  -0.00022  -0.00062   2.19379
    A9        2.00064   0.00046  -0.00009   0.00265   0.00256   2.00321
   A10        2.08813  -0.00017   0.00049  -0.00243  -0.00195   2.08619
   A11        2.14161  -0.00027   0.00086  -0.00636  -0.00556   2.13605
   A12        2.14286  -0.00008   0.00085  -0.00574  -0.00497   2.13789
   A13        1.83379   0.00006  -0.00172   0.00058  -0.00120   1.83259
   A14        3.15333  -0.00009  -0.00922   0.02245   0.01323   3.16656
   A15        3.14357  -0.00003  -0.00013  -0.01259  -0.01272   3.13085
    D1        0.00001   0.00000   0.00000   0.00004   0.00004   0.00005
    D2       -3.14157   0.00000   0.00000   0.00011   0.00011  -3.14145
    D3       -3.14158  -0.00000  -0.00000  -0.00002  -0.00002   3.14158
    D4        0.00003   0.00000  -0.00000   0.00005   0.00005   0.00008
    D5        0.00007   0.00000   0.00000   0.00014   0.00014   0.00021
    D6       -3.14152   0.00000  -0.00000   0.00008   0.00008  -3.14144
    D7        0.00003   0.00000  -0.00000  -0.00001  -0.00001   0.00002
    D8       -3.14157   0.00000   0.00000   0.00003   0.00004  -3.14153
    D9       -3.14158  -0.00000  -0.00000  -0.00008  -0.00008   3.14153
   D10        0.00001  -0.00000   0.00000  -0.00003  -0.00003  -0.00003
   D11       -1.91157  -0.00022   0.00180  -0.01395  -0.01216  -1.92374
   D12        1.90977   0.00023  -0.00178   0.01653   0.01475   1.92452
   D13       -2.56652   0.00044  -0.00013   0.01944   0.01926  -2.54726
         Item               Value     Threshold  Converged?
 Maximum Force            0.004521     0.000450     NO 
 RMS     Force            0.001135     0.000300     NO 
 Maximum Displacement     0.054170     0.001800     NO 
 RMS     Displacement     0.022301     0.001200     NO 
 Predicted change in Energy=-1.046819D-04
 GradGradGradGradGradGradGradGradGradGradGradGradGradGradGradGradGradGrad

                          Input orientation:                          
 ---------------------------------------------------------------------
 Center     Atomic      Atomic             Coordinates (Angstroms)
 Number     Number       Type             X           Y           Z
 ---------------------------------------------------------------------
      1          6           0       -0.869174    0.492700   -0.086867
      2          6           0       -1.698610    0.196798   -1.129232
      3          1           0       -0.943088   -0.064368    0.851707
      4          8           0        0.087936    1.437695   -0.057296
      5          6           0       -2.695605   -0.873840   -0.992401
      6          1           0        0.114592    1.908209   -0.919379
      7          8           0       -2.873230   -1.569489    0.013500
      8          1           0       -1.637613    0.744088   -2.074372
      9          1           0       -3.327837   -1.042848   -1.897029
     10          8           0        0.183560    2.800658   -2.463084
     11          1           0        0.920010    2.708875   -3.081295
     12          1           0       -0.096611    3.721573   -2.542982
 ---------------------------------------------------------------------
                    Distance matrix (angstroms):
                    1          2          3          4          5
     1  C    0.000000
     2  C    1.364569   0.000000
     3  H    1.093942   2.136151   0.000000
     4  O    1.345344   2.424999   2.036047   0.000000
     5  C    2.454236   1.469349   2.669700   3.737074   0.000000
     6  H    1.914298   2.502133   2.854206   0.982488   3.955040
     7  O    2.877314   2.409427   2.587166   4.220980   1.235845
     8  H    2.145664   1.093863   3.114146   2.743576   2.215333
     9  H    3.417546   2.186461   3.768289   4.604912   1.116527
    10  O    3.475820   3.478766   4.523886   2.766699   4.894327
    11  H    4.132700   4.120467   5.160476   3.384201   5.502000
    12  H    4.129767   4.121787   5.154976   3.380650   5.502444
                    6          7          8          9         10
     6  H    0.000000
     7  O    4.678860   0.000000
     8  H    2.399877   3.352401   0.000000
     9  H    4.638411   2.033258   2.466059   0.000000
[...]
 5560,0.00007103,-0.00005360,0.00004480,-0.00017141,-0.00047347,0.00017
 778,0.00009100,0.00041612,-0.00031589,-0.00022711,-0.00038984,0.000004
 82,-0.00004345,0.00000639,-0.00011849,-0.00038217,0.00005228,0.0005733
 9,0.00025045,0.00125609,-0.00009597,0.00057600,-0.00077210,-0.00001499
 ,0.00017678,-0.00042472,-0.00001262,-0.00007772,0.00001532,-0.00015587
 ,-0.00002787,-0.00070666,0.00231939,0.00175277,0.00102106,-0.00079234,
 -0.00044241,-0.00079200,-0.00046817,-0.00008490,0.00012467,0.00096317,
 -0.00410454,0.00301805,0.00048233,0.00053609,-0.00021057,-0.01795451,0
 .01296992,-0.00368951,-0.00011413,-0.00019892,0.00013833,-0.00015192,-
 0.00047024,-0.00006913,-0.00008850,-0.00002500,-0.00006759,0.01964633,
 0.00738859,0.00449695,0.00573626,-0.00288961,-0.00165375,-0.00230050,-
 0.00117029,-0.00144006,-0.00036713,-0.00518909,-0.00557750,0.00728502,
 0.00163902,0.00210722,-0.00073465,0.01362367,-0.00256769,-0.02431037,-
 0.00056823,-0.00090470,0.00065171,-0.00083763,-0.00032552,-0.00032989,
 -0.00025829,-0.00011864,-0.00032499,-0.02446030,0.01340409,-0.00976583
 ,-0.00512254,-0.00896669,0.00389252,0.00241702,0.00293324,0.00220452,0
 .00173298,0.00049301,0.00510980,0.00938171,-0.00462716,-0.00232868,-0.
 00287905,0.00106306,-0.00499435,-0.02551240,0.01024366,0.00084588,0.00
 137107,-0.00096960,0.00063768,0.00038407,0.00084429,0.00037777,0.00012
 532,0.00046269,-0.00183925,0.01360450,0.01567352,-0.00106842,-0.000796
 08,-0.00038527,0.00058540,0.00033480,0.00036175,0.00014555,0.00013701,
 -0.00007580,0.00054187,0.00196353,-0.00196850,-0.00036318,-0.00037206,
 0.00005474,0.00092377,-0.00673120,0.00542813,0.00014002,0.00023959,-0.
 00017820,-0.00008687,0.00000228,-0.00003688,0.00005014,0.00001534,0.00
 004775,-0.00874697,0.00882567,0.00138619,0.00722851,0.00135527,0.00096
 508,0.00089221,-0.00049293,-0.00038342,-0.00048608,-0.00025726,-0.0001
 6038,-0.00001496,-0.00043476,-0.00143290,0.00081952,0.00028418,0.00032
 783,-0.00012423,-0.00437857,0.00425518,-0.00664932,-0.00008646,-0.0001
 4229,0.00010642,-0.00016402,-0.00013063,-0.00003596,-0.00004822,-0.000
 02019,-0.00004120,0.00988033,-0.00204074,0.00596429,-0.00484733,-0.002
 35157,-0.00096455,-0.00043877,-0.00068451,0.00041381,0.00015163,0.0001
 2524,0.00021957,0.00007823,0.00004910,0.00026575,0.00090578,-0.0003798
 2,-0.00013684,-0.00020348,0.00011719,0.00532287,-0.00377871,0.00062614
 ,0.00004545,0.00007237,-0.00004143,0.00002702,0.00014952,0.00010494,0.
 00002728,0.00001225,0.00002173,-0.00366378,0.00759302,-0.00344573,-0.0
 0278298,-0.00189393,0.00235787,0.00075791,0.00043091,0.00035849,-0.000
 37380,-0.00003638,-0.00022620,-0.00009110,-0.00010770,-0.00000875,-0.0
 0041755,-0.00040194,0.00043342,0.00012976,0.00016967,-0.00004078,-0.00
 136325,0.00124285,-0.00494687,-0.00003622,-0.00006719,0.00005252,-0.00
 005238,-0.00013553,-0.00003415,-0.00002173,-0.00001293,-0.00002232,0.0
 0490534,0.00389650,0.00447375,0.00065019,-0.00081023,0.00122639,-0.004
 08716,-0.00034433,-0.00038661,0.00008284,0.00028337,0.00016588,0.00019
 602,0.00001579,0.00004745,-0.00010181,0.00037074,0.00109542,-0.0014983
 0,-0.00020634,-0.00021350,-0.00002999,-0.00181735,-0.00404039,0.003553
 19,0.00009405,0.00015988,-0.00012642,-0.00012391,-0.00006704,-0.000076
 91,0.00002034,0.00001128,0.00003028,0.00464723,-0.00537964,-0.00146698
 ,0.00122845,0.00111404,-0.00264791,-0.00416803,0.00749322,-0.00172707,
 -0.00126931,-0.00117659,0.00070909,0.00055022,0.00054010,0.00021786,0.
 00033099,0.00008087,0.00132266,0.00157888,-0.00192281,-0.00038804,-0.0
 0049289,0.00016574,-0.00344738,0.00196150,0.01117546,0.00014407,0.0002
 2647,-0.00016558,0.00019880,0.00003304,0.00000754,0.00005673,0.0000348
 6,0.00006271,0.00602972,-0.00650299,-0.01370427,-0.00185092,0.00146322
 ,0.00114927,-0.00126552,0.00208601,0.00378756,-0.00005589,0.00011352,0
 .00010392,0.00006608,-0.00006732,0.00025477,-0.00016833,0.00016875,0.0
 0021495,0.00033007,0.00028174,-0.00017205,-0.00005099,-0.00025343,0.00
 019029,-0.00010724,-0.00037234,-0.00002615,-0.00019119,0.00030334,-0.0
 0022925,0.00003027,-0.00000715,0.00002704,0.00000579,-0.00007137,-0.00
 001935,-0.00004432,-0.00004380,-0.00001140,0.00004242,-0.00002723,0.00
 001512,0.00003937,-0.00005564,-0.00003167,0.00004864,0.00010118,-0.000
 11389,-0.00002815,-0.00000418,0.00004980,-0.00000580,-0.00003081,0.000
 08827,-0.00000604,-0.00011717,-0.00045369,0.00004107,-0.00004246,0.000
 20765,0.00001429,0.00010227,0.00000035,-0.00263829,-0.00036140,0.00007
 834,-0.00044358,0.00008698,-0.00002270,0.00031139,0.00010641,0.0000525
 6,-0.00001013,0.00032348,0.00065916,0.00004176,0.00006825,0.00023783,-
 0.00013626,-0.00006872,-0.00016193,-0.00005044,-0.00005416,-0.00004623
 ,0.00033625,-0.00641693,0.00983025,0.00013909,-0.00003373,-0.00007746,
 -0.00019266,0.00005369,0.00006841,0.00001123,0.00001150,-0.00002189,-0
 .00008242,-0.00007749,0.00006809,0.00041713,-0.00001982,0.00013038,0.0
 0003349,0.00020729,0.00007138,0.00007693,0.00002762,0.00001639,-0.0000
 4372,-0.00004520,-0.00007575,0.00005560,-0.00002644,-0.00043703,-0.000
 11554,0.00000980,0.00001731,0.00003693,-0.00020388,-0.00003518,-0.0000
 0257,-0.00001035,0.00001693,0.00002437,-0.00000228,-0.00002112,0.00003
 239,-0.00005673,0.00049920,-0.00005858,0.00000074,0.00008481,0.0001426
 6,-0.00007259,0.00001851,-0.00001443,-0.00000512,-0.00000930,0.0031194
 1,-0.00021510,-0.00021448,-0.00003012,0.00003127,0.00002961,-0.0042574
 7,0.00042660,0.00012768,0.00037728,-0.00012897,0.00008796,-0.00004044,
 -0.00006908,-0.00005817,-0.00004142,-0.00038781,-0.00079067,0.00733829
 ,0.00008083,0.00004390,-0.00005031,0.00043831,0.00019851,-0.00068733,-
 0.00040795,-0.00065016,0.00011332,0.00006049,0.00029598,0.00011398,0.0
 0008540,0.00005861,0.00008697,0.00764293,-0.01098531,-0.00007586,-0.00
 013808,0.00007708,0.00053549,-0.00899675,0.01323817,-0.00003063,-0.000
 02233,-0.00001995,-0.00001259,0.00002418,0.00000620,0.00000352,0.00001
 287,0.00000327,0.00002647,0.00004038,-0.00001476,-0.00014103,-0.000017
 22,0.00005243,0.00000026,-0.00001819,0.00002730,0.00009940,-0.00005948
 ,-0.00004059,-0.00002740,-0.00002407,-0.00005263,-0.00013814,0.0000071
 7,-0.00000902,0.00001233,0.00002812,0.00004044,-0.00001347,0.00005751,
 0.00027897,0.00007409,-0.00000152,-0.00001664,0.00003811,-0.00004318,-
 0.00017815,0.00008507,0.00002958,0.00005856,-0.00008647,0.00004144,-0.
 00006887,0.00002064,0.00001272,-0.00002848,-0.00004716,-0.00003985,0.0
 0000660,0.00000043,-0.00016634,-0.00022387,-0.00001138,0.00001298,-0.0
 0002737,-0.00001503,0.00008743,0.00018743,-0.00011907,-0.00025446,0.00
 002876,-0.00000444,0.00015312,-0.00000536,-0.00000686,0.00003845,0.000
 04111,0.00008711,0.00016305,-0.00012729,0.00014484,-0.00013750,0.00002
 848,-0.00004326,-0.00008777,0.00014118,-0.00004084,0.00002337,0.000015
 64,-0.00002472,-0.00025552,-0.00017053,0.00010851,0.00003595,0.0000028
 6,-0.00029582,0.00005824,-0.00002239,0.00000943,0.00009077,0.00016536,
 -0.00014154,-0.00002030,0.00008529,0.00018660,0.00001667,-0.00007899,0
 .00012762,-0.00001896,-0.00004920,0.00001039,-0.00016644,-0.00008054,0
 .00005093,0.00012220,-0.00001732,0.00021614,-0.00002609,0.00027790,0.0
 0001309,-0.00001775,-0.00001085,-0.00003215,-0.00004317,0.00002853,-0.
 00010621,0.00003270,-0.00005090,-0.00006223,-0.00007364,-0.00001329,0.
 00003727,0.00001609,-0.00000183,-0.00004374,0.00015771,-0.00015794,-0.
 00002159,0.00001116,0.00001443,-0.00000677,-0.00004360,-0.00005897,0.0
 0000506,-0.00000639,-0.00000262,0.00001446,0.00000589,-0.00001168,-0.0
 0019741,0.00001518,-0.00002456,-0.00000520,-0.00000946,0.00001507,0.00
 004888,-0.00002680,0.00004726,-0.00002478,0.00005013,0.00001358,0.0001
 6257,0.00003130,-0.00000961,0.00000134,-0.00014649,0.00001574,-0.00001
 296,-0.00000524,0.00000510,0.00000700,-0.00000718,-0.00000784,0.000000
 31,0.00008103,-0.00000267,0.00008589,-0.00000335,-0.00000750,0.0000042
 8,-0.00000744,-0.00004784,0.00003201,0.00006252,-0.00000030,-0.0000316
 6,-0.00001430,0.00002607,0.00002684,0.00000696,-0.00002505,-0.00001642
 ,0.00003208,0.00013350,-0.00000362,0.00000122,0.00000045,0.00000850,0.
 00001285,-0.00000113,0.00000213,0.00006711,-0.00022304,0.00000066,-0.0
 0000722,0.00001342,-0.00004557,-0.00000872,0.00006386,0.00000141,-0.00
 003567,-0.00001613,0.00002697,-0.00008134,0.00006329,0.00019807,-0.000
 03376,0.00016191,-0.00012977,0.00042173,0.00012210,-0.00002012,-0.0000
 6783,-0.00001692,-0.00015316,-0.00009902,0.00021793,0.00018063,-0.0002
 0489,-0.00017243,-0.00056517,0.00016216,-0.00030635,0.00000352,0.00003
 823,0.00000680,-0.00030275,0.00039890,-0.00008830,-0.00001235,0.000025
 06,0.00003444,1.70685864,0.00002551,0.00002300,0.00028869,0.00041122,-
 0.00012032,-0.00015033,-0.00007303,-0.00002848,0.00001825,-0.00016695,
 -0.00006729,-0.00051311,-0.00023081,0.00020869,0.00007717,0.00049122,-
 0.00012729,0.00012561,0.00003144,0.00000721,-0.00002589,0.00033739,-0.
 00013259,-0.00037112,0.00003313,-0.00002602,0.00000767,-1.06754648,2.5
 3135501,0.00004063,0.00016895,-0.00009240,0.00013953,-0.00013552,-0.00
 008881,-0.00000510,0.00003014,-0.00001121,0.00034462,-0.00038382,0.001
 22806,-0.00012949,0.00011348,-0.00000085,-0.00092637,-0.00050887,-0.00
 139198,0.00001915,-0.00001075,0.00002493,0.00004280,-0.00023173,-0.000
 11830,0.00001923,-0.00000577,-0.00000420,-1.82517378,0.19646122,-0.202
 32023,0.00031994,0.00037028,0.00004573,-0.00012849,-0.00041718,-0.0004
 7660,0.00001619,0.00004025,-0.00001445,-0.00038752,-0.00028166,0.00012
 476,0.00005395,0.00037497,0.00007694,0.00082835,0.00018199,-0.00096080
 ,-0.00007302,-0.00015500,0.00009876,0.00028081,0.00019210,0.00019482,0
 .00001735,-0.00002839,-0.00004377,-2.17539229,0.28889659,1.79217813,2.
 18483991,-0.00033771,-0.00031465,-0.00020063,0.00023709,-0.00008785,0.
 00045076,0.00001287,0.00003563,0.00001115,0.00033144,0.00023188,-0.000
 32954,-0.00024459,-0.00033201,-0.00001530,-0.00041539,0.00003818,0.001
 75604,0.00010733,0.00018473,-0.00010559,-0.00038028,0.00004950,0.00002
 767,0.00002462,0.00001737,0.00001268,0.21477403,0.61181394,-0.12927587
 ,-0.29547888,-0.60161823,0.00004241,0.00011547,0.00019196,-0.00000624,
 0.00006612,0.00013069,-0.00002083,-0.00008669,-0.00001095,-0.00019182,
 -0.00011934,-0.00012741,0.00002225,-0.00013172,-0.00003621,0.00067093,
 0.00041994,-0.00000068,0.00002304,0.00006579,-0.00005024,-0.00026040,0
 .00004230,0.00001204,-0.00001443,0.00000671,0.00000878,1.79938244,-0.1
 7517627,-0.45650182,-1.81803549,0.17427590,0.43371695,-0.00022717,-0.0
 0019581,-0.00009257,0.00012341,-0.00003390,0.00043582,-0.00000060,0.00
 000067,0.00000577,-0.00003534,0.00030846,-0.00023386,-0.00030323,-0.00
 020526,0.00003390,0.00088355,-0.00058863,0.00099702,0.00011605,0.00015
 564,-0.00011456,0.00005397,-0.00038151,-0.00019321,0.00001978,0.000012
 48,0.00000842,0.46933478,0.77779077,0.03345067,-0.01037518,0.08136947,
 0.01838814,-0.45959002,0.00019907,0.00025549,-0.00006173,-0.00056711,0
 .00007219,-0.00017175,0.00006918,0.00003630,-0.00002909,-0.00010931,-0
 .00026348,0.00007504,0.00034882,0.00001251,-0.00009479,-0.00026515,0.0
 0058303,-0.00029771,-0.00008888,-0.00011729,0.00011111,0.00024857,0.00
 023154,0.00020707,-0.00003956,0.00003749,-0.00000760,0.85213186,-3.142
 90584,-0.06622146,0.00630492,-0.01001850,0.00052180,-0.85823239,3.1520
 7658,0.00050785,0.00022536,0.00016448,-0.00025624,-0.00001415,-0.00027
 770,-0.00006701,-0.00001150,0.00000757,-0.00028388,-0.00050809,0.00001
 190,0.00021718,0.00015722,-0.00001928,-0.00011625,0.00157017,-0.000614
 48,-0.00007336,-0.00009537,0.00005927,0.00013740,0.00006222,0.00006810
 ,-0.00002429,-0.00000582,-0.00001374,0.02583215,-0.02074188,0.65927685
 ,0.02681197,-0.04660727,0.02266690,-0.05268554,0.06596911,-0.68132985,
 0.00038762,-0.00018598,0.00057923,-0.00038789,0.00031266,-0.00036739,-
 0.00022368,0.00027077,0.00021809,0.00058864,0.00018004,-0.00039622,-0.
 00012263,-0.00048429,0.00064051,0.00028926,-0.00004976,-0.00004028,-0.
 00018484,-0.00007515,0.00099192,-0.00011778,-0.00001369,0.00012887,0.0
 0001448,-0.00007985,-0.00009922,0.00008663,0.00001901,-0.00007816,-0.0
 0008146,-0.00006639,0.00002342,0.00005975,0.00005079,0.00008627,0.0000
 1828,-0.00015543,0.00012517,-0.00005040,0.00007420,-0.00008469,-0.0000
 3204,0.00002531,-0.00003139,0.00005037,0.00005438,0.00021010,-0.000051
 06,-0.00001290,-0.00012923,-0.00002767,-0.00001075,0.00002502,-0.00007
 504,0.00009451,-0.00022109,0.00013091,-0.00010569,0.00004219,-0.000084
 50,-0.00002024,-0.00003841,0.00002844,-0.00012369,0.00036834,0.0001560
 9,0.00008988,-0.00004091,-0.00004496,-0.00003363,-0.00000061,0.0000008
 3,0.00001111,-0.00001517,-0.00022767,-0.00042709,0.00062476,0.00001014
 ,-0.00008781,-0.00000375,-0.00017715,0.00027870,0.00006562,-0.00002114
 ,-0.00000893,0.00002553,0.00005531,0.00007295,0.00000563,0.00072507,-0
 .00013330,-0.00007495,-0.00000850,0.00047166,0.00002203,0.00028024,0.0
 0002811,-0.00003813,-0.00000844,0.00008803,0.00011034,-0.00000405,-0.0
 0004608,0.00021738,0.00007063,0.00008187,0.00012515,-0.00003796,-0.000
 07238,-0.00063649,0.00000458,-0.00001576,0.00000434,-0.00000532,-0.000
 02874,-0.00000613,-0.00031729,-0.00036709,0.00093009,-0.00013456,0.000
 25059,-0.00003922,0.00009096,-0.00015367,-0.00002959,0.00004056,-0.000
 05010,-0.00000667,-0.00018707,-0.00006822,0.00014620,-0.00002671,0.000
 01291,0.00002856,0.00077337,0.00003555,-0.00015076,-0.00033817,-0.0000
 4834,0.00013495,0.00012393,-0.00002207,0.00004406,0.00004223,0.0000672
 8,-0.00019654,0.00014916,-0.00001720,-0.00006067,0.00000436,0.00016463
 ,0.00065294,0.00041076,0.00011096,0.00021657,-0.00024212,-0.00008625,-
 0.00005729,-0.00005974,-0.00000910,0.00000285,-0.00013763,-0.00014140,
 -0.00021502,0.00007454,0.00006987,-0.00000655,-0.00019863,0.00043534,-
 0.00050210,0.00003365,0.00003956,0.00002643,0.00002072,-0.00004825,0.0
 0004861,0.00001827,0.00000488,0.00000769,-0.00001230,0.00000232,0.0000
 0213,-0.00021128,-0.00010962,0.00013665,0.00000395,0.00000396,-0.00001
 453,0.00007788,0.00014088,0.00007758,0.00009393,-0.00010331,-0.0000613
 6,-0.00011561,0.00000772,0.00001280,0.00001079,-0.00006178,-0.00006548
 ,-0.00000269,-0.00014047,-0.00001357,0.00020665,-0.00000126,0.00002499
 ,-0.00003462,0.00012502,0.00005390,-0.00013358,-0.00011660,-0.00010466
 ,-0.00003010,0.00007696,0.00005413,0.00000862,-0.00000531,0.00000324,0
 .00006861,0.00007057,0.00000868,0.00028591,0.00017024,-0.00033815,-0.0
 0001138,-0.00001738,0.00003415,-0.00017898,-0.00022772,0.00036961,0.00
 012598,-0.00009652,-0.00007502,-0.00024797,0.00027235,0.00023546,-0.00
 000592,0.00004038,-0.00000056,-0.00001487,0.00000508,0.00000939,-0.000
 08924,-0.00015340,0.00001992,-0.00009573,0.00001019,-0.00010364,0.0000
 2337,0.00001283,-0.00001808,0.00022587,-0.00008651,0.00019676,0.000006
 13,0.00034279,-0.00034733,0.00003306,0.00003201,-0.00000825,-0.0000287
 9,-0.00002491,-0.00005035,0.00001610,-0.00009580,-0.00011453,0.0000162
 1,-0.00003834,-0.00003500,-0.00010479,-0.00001544,0.00004416,0.0000148
 9,-0.00043701,0.00029694,-0.00007379,-0.00000136,0.00012044,0.00010094
 ,-0.00005769,-0.00037205,0.00002505,-0.00000148,0.00000223,0.00002416,
 0.00003389,-0.00002558,-0.00000235,-0.00002352,0.00004297,-0.00001606,
 -0.00001087,-0.00006683,-0.00002309,-0.00000635,0.00001682,-0.00019402
 ,0.00005249,0.00035007,-0.00001645,-0.00003083,0.00000815,0.00011221,0
 .00005903,-0.00006721,0.00000655,-0.00000034,0.00000078,0.00000871,0.0
 0000878,0.00000206,-0.00030886,-0.00009613,0.00007198,-0.00000929,0.00
 000464,-0.00001053,0.00005965,0.00003474,-0.00001385,-0.00000735,0.000
 05556,0.00002014,0.00013664,0.00000052,0.00000462,0.00001088,-0.000095
 08,0.00008312,-0.00000131,0.00000082,0.00000634,0.00000437,0.00001058,
 -0.00000748,0.00000416,0.00003412,-0.00011467,0.00010838,-0.00000430,-
 0.00000579,-0.00001010,0.00001712,-0.00002112,-0.00000638,0.00006210,0
 .00000113,-0.00001878,-0.00004883,0.00003793,-0.00000157,-0.00000591,-
 0.00000491,0.00007340,0.00014282,0.00011671,-0.00000020,-0.00000133,0.
 00000562,-0.00000635,-0.00001205,0.00000212,-0.00002350,-0.00003405,-0
 .00013384,0.00000388,0.00000742,-0.00001324,-0.00003592,0.00002442,0.0
 0000118,0.00001851,-0.00001202,-0.00001958,-0.00002782,-0.00009862,0.0
 0002989,-0.00084938,-0.00073564,-0.00017964,0.00024798,0.00054047,0.00
 006251,0.00004273,0.00003869,0.00000993,0.00122534,0.00042550,0.000022
 68,0.00010106,-0.00037698,-0.00008305,-0.00227709,-0.00061741,0.000937
 13,0.00000125,0.00005953,-0.00000535,-0.00015509,0.00016824,0.00016808
 ,-0.00002120,0.00004793,0.00005522,1.67748297,-0.00031743,-0.00034517,
 -0.00000433,0.00033169,0.00007725,-0.00013303,0.00000165,-0.00000209,0
 .00000430,0.00010314,0.00086085,0.00007219,-0.00027147,0.00019182,0.00
 011860,0.00004238,-0.00208645,-0.00001858,0.00002472,-0.00002378,-0.00
 001228,0.00014492,-0.00027952,0.00000488,0.00004493,-0.00004973,-0.000
 00520,-0.95869311,2.62815569,-0.00097484,-0.00080726,-0.00036264,0.000
 45598,0.00026511,0.00004841,0.00007999,0.00007491,0.00001057,0.0006272
 7,0.00067315,0.00070688,-0.00028689,-0.00009533,0.00013754,-0.00031311
 ,-0.00128247,-0.00029670,0.00005830,0.00005402,-0.00003963,0.00022145,
 0.00006508,-0.00009617,0.00006074,0.00000290,0.00001758,-1.92060843,0.
 09263392,-0.28083157,0.00043484,0.00037900,0.00005420,-0.00015507,-0.0
 0036094,-0.00027016,0.00000368,-0.00002100,-0.00001439,-0.00068869,0.0
 0005591,-0.00005894,0.00001216,0.00026777,0.00007105,0.00105142,-0.000
 30942,-0.00050976,-0.00004047,-0.00007394,0.00004160,0.00006581,0.0002
 0654,0.00010188,0.00002613,-0.00003213,-0.00004147,-2.25183088,0.17536
 589,1.90621816,2.24763355,0.00009603,0.00006283,-0.00002289,-0.0001523
 7,-0.00015902,0.00008403,0.00001232,-0.00001884,0.00000258,-0.00015521
 ,-0.00029756,0.00024836,0.00002390,-0.00009541,-0.00000158,0.00027246,
 0.00087669,-0.00018444,0.00000101,0.00003124,0.00000441,-0.00008127,0.
 00018637,0.00000329,0.00001145,0.00001882,-0.00000688,0.17468046,0.704
 19069,-0.10576455,-0.17311076,-0.71053943,0.00012410,0.00036693,0.0002
 4458,-0.00000096,-0.00015394,0.00000511,-0.00001014,-0.00005154,-0.000
 01905,-0.00028117,-0.00007151,-0.00042252,0.00006619,-0.00004583,-0.00
 006705,0.00064819,0.00021190,0.00028557,0.00000036,0.00002051,-0.00001
 535,-0.00016695,0.00002510,0.00003461,-0.00002648,0.00001322,0.0000068
 1,1.90466245,-0.10576982,-0.46007100,-1.90099782,0.10547329,0.46083746
 ,0.00029924,0.00015618,0.00003966,-0.00022006,-0.00019071,0.00007879,-
 0.00004040,0.00000376,0.00001683,-0.00028304,-0.00034718,-0.00001344,-
 0.00006937,0.00004704,0.00004024,0.00077019,0.00072818,-0.00014585,0.0
 0002530,0.00000005,-0.00001341,0.00017514,-0.00010712,-0.00013093,0.00
 001326,0.00000714,-0.00001419,0.57603232,0.78322270,0.01446137,0.00348
 752,-0.00159803,-0.00401778,-0.58019010,0.00015666,0.00034531,0.000023
 50,-0.00036143,-0.00005952,-0.00012165,0.00000243,0.00001099,0.0000004
 3,0.00006582,-0.00050483,-0.00012348,0.00025810,-0.00002960,-0.0000505
 7,-0.00042707,0.00080158,-0.00002688,-0.00004528,-0.00005936,0.0000486
 0,0.00022036,0.00010963,0.00002553,-0.00004300,0.00004684,0.00000141,0
 .78446234,-3.33068955,0.01418051,-0.00236692,0.00574362,-0.00001832,-0
 .78192201,3.32428490,0.00050258,0.00017409,0.00008880,-0.00025709,0.00
 004254,-0.00002485,-0.00004659,-0.00000508,-0.00000370,-0.00016780,-0.
 00017166,-0.00061650,0.00011033,0.00006639,-0.00005184,-0.00021216,0.0
 0067457,0.00061858,-0.00002765,-0.00002333,0.00000999,0.00005353,-0.00
 008344,0.00001308,-0.00001796,-0.00000873,-0.00000835,0.01495848,0.013
 10936,0.74077676,-0.00459436,0.00016439,-0.00081918,-0.01030130,-0.013
 93908,-0.73998280\\@
 The archive entry for this job was punched.


 FAULTILY FAULTLESS, ICILY REGULAR, SPLENDIDLY NULL...
           MAUDE BY TENNYSON
 Job cpu time:       6 days 20 hours 34 minutes  6.0 seconds.
 Elapsed time:       0 days  4 hours 10 minutes 48.6 seconds.
 File lengths (MBytes):  RWF=   6518 Int=      0 D2E=      0 Chk=     47 Scr=      1
 Normal termination of Gaussian 16 at Sat Mar 22 21:52:49 2025.
