 Entering Gaussian System, Link 0=g16
 Input=acoht_h2o_mp2_avdz_opt_anharm.gjf
 Output=acoht_h2o_mp2_avdz_opt_anharm.log
 Initial command:
 /sw/contrib/chem-src/g16/c01/g16/l1.exe "/scr/Gau-6207.inp" -scrdir="/scr/"
 Entering Link 1 = /sw/contrib/chem-src/g16/c01/g16/l1.exe PID=      6208.
  
 Copyright (c) 1988-2019, Gaussian, Inc.  All Rights Reserved.
  
 This is part of the Gaussian(R) 16 program.  It is based on
 the Gaussian(R) 09 system (copyright 2009, Gaussian, Inc.),
 the Gaussian(R) 03 system (copyright 2003, Gaussian, Inc.),
 the Gaussian(R) 98 system (copyright 1998, Gaussian, Inc.),
 the Gaussian(R) 94 system (copyright 1995, Gaussian, Inc.),
 the Gaussian 92(TM) system (copyright 1992, Gaussian, Inc.),
 the Gaussian 90(TM) system (copyright 1990, Gaussian, Inc.),
 the Gaussian 88(TM) system (copyright 1988, Gaussian, Inc.),
 the Gaussian 86(TM) system (copyright 1986, Carnegie Mellon
 University), and the Gaussian 82(TM) system (copyright 1983,
 Carnegie Mellon University). Gaussian is a federally registered
 trademark of Gaussian, Inc.
  
 This software contains proprietary and confidential information,
 including trade secrets, belonging to Gaussian, Inc.
  
 This software is provided under written license and may be
 used, copied, transmitted, or stored only in accord with that
 written license.
  
 The following legend is applicable only to US Government
 contracts under FAR:
  
                    RESTRICTED RIGHTS LEGEND
  
 Use, reproduction and disclosure by the US Government is
 subject to restrictions as set forth in subparagraphs (a)
 and (c) of the Commercial Computer Software - Restricted
 Rights clause in FAR 52.227-19.
  
 Gaussian, Inc.
 340 Quinnipiac St., Bldg. 40, Wallingford CT 06492
  
  
 ---------------------------------------------------------------
 Warning -- This program may not be used in any manner that
 competes with the business of Gaussian, Inc. or will provide
 assistance to any competitor of Gaussian, Inc.  The licensee
 of this program is prohibited from giving any competitor of
 Gaussian, Inc. access to this program.  By using this program,
 the user acknowledges that Gaussian, Inc. is engaged in the
 business of creating and licensing software in the field of
 computational chemistry and represents and warrants to the
 licensee that it is not a competitor of Gaussian, Inc. and that
 it will not use this program in any manner prohibited above.
 ---------------------------------------------------------------
  

 Cite this work as:
 Gaussian 16, Revision C.01,
 M. J. Frisch, G. W. Trucks, H. B. Schlegel, G. E. Scuseria, 
 M. A. Robb, J. R. Cheeseman, G. Scalmani, V. Barone, 
 G. A. Petersson, H. Nakatsuji, X. Li, M. Caricato, A. V. Marenich, 
 J. Bloino, B. G. Janesko, R. Gomperts, B. Mennucci, H. P. Hratchian, 
 J. V. Ortiz, A. F. Izmaylov, J. L. Sonnenberg, D. Williams-Young, 
 F. Ding, F. Lipparini, F. Egidi, J. Goings, B. Peng, A. Petrone, 
 T. Henderson, D. Ranasinghe, V. G. Zakrzewski, J. Gao, N. Rega, 
 G. Zheng, W. Liang, M. Hada, M. Ehara, K. Toyota, R. Fukuda, 
 J. Hasegawa, M. Ishida, T. Nakajima, Y. Honda, O. Kitao, H. Nakai, 
 T. Vreven, K. Throssell, J. A. Montgomery, Jr., J. E. Peralta, 
 F. Ogliaro, M. J. Bearpark, J. J. Heyd, E. N. Brothers, K. N. Kudin, 
 V. N. Staroverov, T. A. Keith, R. Kobayashi, J. Normand, 
 K. Raghavachari, A. P. Rendell, J. C. Burant, S. S. Iyengar, 
 J. Tomasi, M. Cossi, J. M. Millam, M. Klene, C. Adamo, R. Cammi, 
 J. W. Ochterski, R. L. Martin, K. Morokuma, O. Farkas, 
 J. B. Foresman, and D. J. Fox, Gaussian, Inc., Wallingford CT, 2019.
 
 ******************************************
 Gaussian 16:  EM64L-G16RevC.01  3-Jul-2019
                21-Mar-2025 
 ******************************************
 %nprocshared=40
 Will use up to   40 processors via shared memory.
 %mem=50gb
 ----------------------------------------------
 # MP2/aug-cc-pVDZ opt freq=(vibrot,anharmonic)
 ----------------------------------------------
 1/18=20,19=15,38=1,80=1/1,3;
 2/9=110,12=2,17=6,18=5,40=1/2;
 3/5=16,7=10,11=9,25=1,30=1,71=1/1,2,3;
 4//1;
 5/5=2,38=5/2;
 8/6=4,10=1/1;
 9/15=2,16=-3/6;
 10/5=1/2;
 6/7=2,8=2,9=2,10=2/1;
 7/12=2/1,2,3,16;
 1/18=20,19=15,80=1/3(2);
 2/9=110/2;
 99//99;
 2/9=110/2;
 3/5=16,7=10,11=9,25=1,30=1,71=1/1,2,3;
 4/5=5,16=3,69=1/1;
 5/5=2,38=5/2;
 8/6=4,10=1/1;
 9/15=2,16=-3/6;
 10/5=1/2;
 7/12=2/1,2,3,16;
 1/18=20,19=15,80=1/3(-8);
 2/9=110/2;
 6/7=2,8=2,9=2,10=2/1;
 99/9=10/99;
 ----
 blah
 ----
 Symbolic Z-matrix:
 Charge =  0 Multiplicity = 1
 C                     1.00159  -0.09697   0.00001 
 O                     2.16805  -0.44763   0.00006 
 O                     0.00441  -1.02793  -0.00006 
 C                     0.54268   1.34931  -0.00003 
 H                    -0.8711   -0.58881   0.00001 
 H                     1.42093   2.005     0.00021 
 H                    -0.07535   1.55158   0.88837 
 H                    -0.07488   1.55163  -0.88874 
 O                    -2.60123   0.03558   0.00002 
 H                    -3.11754  -0.25667   0.76375 
 H                    -3.11748  -0.25692  -0.76364 
 
 Add virtual bond connecting atoms O9         and H5         Dist= 3.48D+00.

 GradGradGradGradGradGradGradGradGradGradGradGradGradGradGradGradGradGrad
 Berny optimization.
 Initialization pass.
                           ----------------------------
                           !    Initial Parameters    !
                           ! (Angstroms and Degrees)  !
 --------------------------                            --------------------------
 ! Name  Definition              Value          Derivative Info.                !
 --------------------------------------------------------------------------------
 ! R1    R(1,2)                  1.218          estimate D2E/DX2                !
 ! R2    R(1,3)                  1.3642         estimate D2E/DX2                !
 ! R3    R(1,4)                  1.5173         estimate D2E/DX2                !
 ! R4    R(3,5)                  0.9795         estimate D2E/DX2                !
 ! R5    R(4,6)                  1.096          estimate D2E/DX2                !
 ! R6    R(4,7)                  1.101          estimate D2E/DX2                !
 ! R7    R(4,8)                  1.101          estimate D2E/DX2                !
 ! R8    R(5,9)                  1.8394         estimate D2E/DX2                !
 ! R9    R(9,10)                 0.9671         estimate D2E/DX2                !
 ! R10   R(9,11)                 0.9671         estimate D2E/DX2                !
 ! A1    A(2,1,3)              120.2355         estimate D2E/DX2                !
 ! A2    A(2,1,4)              124.336          estimate D2E/DX2                !
 ! A3    A(3,1,4)              115.4285         estimate D2E/DX2                !
 ! A4    A(1,3,5)              110.3304         estimate D2E/DX2                !
 ! A5    A(1,4,6)              109.1401         estimate D2E/DX2                !
 ! A6    A(1,4,7)              110.1743         estimate D2E/DX2                !
 ! A7    A(1,4,8)              110.1712         estimate D2E/DX2                !
 ! A8    A(6,4,7)              109.8603         estimate D2E/DX2                !
 ! A9    A(6,4,8)              109.8592         estimate D2E/DX2                !
 ! A10   A(7,4,8)              107.6215         estimate D2E/DX2                !
 ! A11   A(5,9,10)             113.5532         estimate D2E/DX2                !
 ! A12   A(5,9,11)             113.5431         estimate D2E/DX2                !
 ! A13   A(10,9,11)            104.3123         estimate D2E/DX2                !
 ! A14   L(3,5,9,4,-1)         186.7926         estimate D2E/DX2                !
 ! A15   L(3,5,9,4,-2)         179.9967         estimate D2E/DX2                !
 ! D1    D(2,1,3,5)            179.9936         estimate D2E/DX2                !
 ! D2    D(4,1,3,5)             -0.0079         estimate D2E/DX2                !
 ! D3    D(2,1,4,6)             -0.0113         estimate D2E/DX2                !
 ! D4    D(2,1,4,7)           -120.7171         estimate D2E/DX2                !
 ! D5    D(2,1,4,8)            120.6913         estimate D2E/DX2                !
 ! D6    D(3,1,4,6)            179.9902         estimate D2E/DX2                !
 ! D7    D(3,1,4,7)             59.2844         estimate D2E/DX2                !
 ! D8    D(3,1,4,8)            -59.3072         estimate D2E/DX2                !
 ! D9    D(1,3,9,10)          -121.3697         estimate D2E/DX2                !
 ! D10   D(1,3,9,11)           121.3902         estimate D2E/DX2                !
 ! D11   D(5,9,10,11)         -124.1189         estimate D2E/DX2                !
 --------------------------------------------------------------------------------
 Trust Radius=3.00D-01 FncErr=1.00D-07 GrdErr=1.00D-07 EigMax=2.50D+02 EigMin=1.00D-04
 Number of steps in this run=     46 maximum allowed number of steps=    100.
 GradGradGradGradGradGradGradGradGradGradGradGradGradGradGradGradGradGrad

                          Input orientation:                          
 ---------------------------------------------------------------------
 Center     Atomic      Atomic             Coordinates (Angstroms)
 Number     Number       Type             X           Y           Z
 ---------------------------------------------------------------------
      1          6           0        1.001589   -0.096973    0.000006
      2          8           0        2.168054   -0.447631    0.000060
      3          8           0        0.004407   -1.027932   -0.000060
      4          6           0        0.542678    1.349310   -0.000029
      5          1           0       -0.871104   -0.588807    0.000005
      6          1           0        1.420933    2.005004    0.000206
      7          1           0       -0.075345    1.551583    0.888370
      8          1           0       -0.074881    1.551630   -0.888743
      9          8           0       -2.601234    0.035582    0.000024
     10          1           0       -3.117541   -0.256668    0.763748
     11          1           0       -3.117483   -0.256922   -0.763642
 ---------------------------------------------------------------------
                    Distance matrix (angstroms):
                    1          2          3          4          5
     1  C    0.000000
     2  O    1.218032   0.000000
     3  O    1.364205   2.240116   0.000000
     4  C    1.517344   2.422982   2.437420   0.000000
     5  H    1.936202   3.042435   0.979464   2.398974   0.000000
     6  H    2.143398   2.563905   3.347424   1.096023   3.461400
     7  H    2.160258   3.133495   2.729389   1.100963   2.450244
     8  H    2.160221   3.133333   2.729503   1.100966   2.450574
     9  O    3.605261   4.793704   2.814325   3.407354   1.839351
    10  H    4.192378   5.343894   3.305270   4.069364   2.395850
    11  H    4.192314   5.343829   3.305104   4.069381   2.395730
                    6          7          8          9         10
     6  H    0.000000
     7  H    1.798131   0.000000
     8  H    1.798121   1.777113   0.000000
     9  O    4.478443   3.076936   3.077461   0.000000
    10  H    5.127953   3.541223   3.906206   0.967087   0.000000
    11  H    5.128059   3.905693   3.541742   0.967087   1.527390
                   11
    11  H    0.000000
 Stoichiometry    C2H6O3
 Framework group  C1[X(C2H6O3)]
 Deg. of freedom    27
 Full point group                 C1      NOp   1
 Largest Abelian subgroup         C1      NOp   1
 Largest concise Abelian subgroup C1      NOp   1
                         Standard orientation:                         
 ---------------------------------------------------------------------
 Center     Atomic      Atomic             Coordinates (Angstroms)
 Number     Number       Type             X           Y           Z
 ---------------------------------------------------------------------
      1          6           0       -1.001589   -0.096973   -0.000006
      2          8           0       -2.168054   -0.447631   -0.000060
      3          8           0       -0.004407   -1.027932    0.000060
      4          6           0       -0.542678    1.349310    0.000029
      5          1           0        0.871104   -0.588807   -0.000005
      6          1           0       -1.420933    2.005004   -0.000206
      7          1           0        0.075345    1.551583   -0.888370
      8          1           0        0.074881    1.551630    0.888743
      9          8           0        2.601234    0.035582   -0.000024
     10          1           0        3.117541   -0.256668   -0.763748
     11          1           0        3.117483   -0.256922    0.763642
 ---------------------------------------------------------------------
 Rotational constants (GHZ):           9.3719281           2.2578115           1.8564650
 Standard basis: Aug-CC-pVDZ (5D, 7F)
 There are   179 symmetry adapted cartesian basis functions of A   symmetry.
 There are   169 symmetry adapted basis functions of A   symmetry.
   169 basis functions,   281 primitive gaussians,   179 cartesian basis functions
    21 alpha electrons       21 beta electrons
       nuclear repulsion energy       177.1424097744 Hartrees.
 NAtoms=   11 NActive=   11 NUniq=   11 SFac= 1.00D+00 NAtFMM=   60 NAOKFM=F Big=F
 Integral buffers will be    131072 words long.
 Raffenetti 1 integral format.
 Two-electron integral symmetry is turned on.
 One-electron integrals computed using PRISM.
 NBasis=   169 RedAO= T EigKep=  9.10D-05  NBF=   169
 NBsUse=   169 1.00D-06 EigRej= -1.00D+00 NBFU=   169
 ExpMin= 2.97D-02 ExpMax= 1.17D+04 ExpMxC= 4.01D+02 IAcc=3 IRadAn=         5 AccDes= 0.00D+00
 Harris functional with IExCor=  205 and IRadAn=       5 diagonalized for initial guess.
 HarFok:  IExCor=  205 AccDes= 0.00D+00 IRadAn=         5 IDoV= 1 UseB2=F ITyADJ=14
 ICtDFT=  3500011 ScaDFX=  1.000000  1.000000  1.000000  1.000000
 FoFCou: FMM=F IPFlag=           0 FMFlag=      100000 FMFlg1=           0
         NFxFlg=           0 DoJE=T BraDBF=F KetDBF=T FulRan=T
         wScrn=  0.000000 ICntrl=       500 IOpCl=  0 I1Cent=   200000004 NGrid=           0
         NMat0=    1 NMatS0=      1 NMatT0=    0 NMatD0=    1 NMtDS0=    0 NMtDT0=    0
 Petite list used in FoFCou.
 Keep R1 ints in memory in canonical form, NReq=111995396.
 Requested convergence on RMS density matrix=1.00D-08 within 128 cycles.
 Requested convergence on MAX density matrix=1.00D-06.
 Requested convergence on             energy=1.00D-06.
 No special actions if energy rises.
 SCF Done:  E(RHF) =  -303.887789281     A.U. after   13 cycles
            NFock= 13  Conv=0.64D-08     -V/T= 2.0021
 ExpMin= 2.97D-02 ExpMax= 1.17D+04 ExpMxC= 4.01D+02 IAcc=3 IRadAn=         5 AccDes= 0.00D+00
 HarFok:  IExCor=  205 AccDes= 0.00D+00 IRadAn=         5 IDoV=-2 UseB2=F ITyADJ=14
 ICtDFT= 12500011 ScaDFX=  1.000000  1.000000  1.000000  1.000000
 Range of M.O.s used for correlation:     6   169
 NBasis=   169 NAE=    21 NBE=    21 NFC=     5 NFV=     0
 NROrb=    164 NOA=    16 NOB=    16 NVA=   148 NVB=   148

 **** Warning!!: The largest alpha MO coefficient is  0.25396073D+02

 Fully direct method using O(ONN) memory.
 JobTyp=1 Pass  1:  I=   6 to  21 NPSUse= 40 ParTrn=T ParDer=T DoDerP=T.
 Spin components of T(2) and E(2):
     alpha-alpha T2 =       0.3539057532D-01 E2=     -0.1173337280D+00
     alpha-beta  T2 =       0.1949744651D+00 E2=     -0.6677130864D+00
     beta-beta   T2 =       0.3539057532D-01 E2=     -0.1173337280D+00
 ANorm=    0.1125058050D+01
 E2 =    -0.9023805425D+00 EUMP2 =    -0.30479016982384D+03
          IDoAtm=11111111111
          Differentiating once with respect to electric field.
                with respect to dipole field.
          Differentiating once with respect to nuclear coordinates.
 Keep R1 ints in memory in canonical form, NReq=112005704.
          There are     1 degrees of freedom in the 1st order CPHF.  IDoFFX=0 NUNeed=     1.
 LinEq1:  Iter=  0 NonCon=     1 RMS=4.92D-03 Max=9.66D-02 NDo=     1
 AX will form     1 AO Fock derivatives at one time.
 LinEq1:  Iter=  1 NonCon=     1 RMS=1.42D-03 Max=1.98D-02 NDo=     1
 LinEq1:  Iter=  2 NonCon=     1 RMS=4.91D-04 Max=8.62D-03 NDo=     1
 LinEq1:  Iter=  3 NonCon=     1 RMS=1.57D-04 Max=2.68D-03 NDo=     1
 LinEq1:  Iter=  4 NonCon=     1 RMS=5.48D-05 Max=6.78D-04 NDo=     1
 LinEq1:  Iter=  5 NonCon=     1 RMS=1.66D-05 Max=2.11D-04 NDo=     1
 LinEq1:  Iter=  6 NonCon=     1 RMS=5.01D-06 Max=4.90D-05 NDo=     1
 LinEq1:  Iter=  7 NonCon=     1 RMS=1.34D-06 Max=1.05D-05 NDo=     1
 LinEq1:  Iter=  8 NonCon=     1 RMS=4.82D-07 Max=4.18D-06 NDo=     1
 LinEq1:  Iter=  9 NonCon=     1 RMS=1.26D-07 Max=2.25D-06 NDo=     1
 LinEq1:  Iter= 10 NonCon=     1 RMS=3.31D-08 Max=5.45D-07 NDo=     1
 LinEq1:  Iter= 11 NonCon=     1 RMS=9.11D-09 Max=1.26D-07 NDo=     1
 LinEq1:  Iter= 12 NonCon=     1 RMS=2.43D-09 Max=2.40D-08 NDo=     1
 LinEq1:  Iter= 13 NonCon=     1 RMS=6.48D-10 Max=5.52D-09 NDo=     1
 LinEq1:  Iter= 14 NonCon=     0 RMS=9.19D-11 Max=7.91D-10 NDo=     1
 Linear equations converged to 1.000D-10 1.000D-09 after    14 iterations.
 End of Minotr F.D. properties file   721 does not exist.
 End of Minotr F.D. properties file   722 does not exist.
 End of Minotr F.D. properties file   788 does not exist.

 **********************************************************************

            Population analysis using the SCF Density.

 **********************************************************************

 Orbital symmetries:
       Occupied  (A) (A) (A) (A) (A) (A) (A) (A) (A) (A) (A) (A)
                 (A) (A) (A) (A) (A) (A) (A) (A) (A)
       Virtual   (A) (A) (A) (A) (A) (A) (A) (A) (A) (A) (A) (A)
                 (A) (A) (A) (A) (A) (A) (A) (A) (A) (A) (A) (A)
                 (A) (A) (A) (A) (A) (A) (A) (A) (A) (A) (A) (A)
                 (A) (A) (A) (A) (A) (A) (A) (A) (A) (A) (A) (A)
                 (A) (A) (A) (A) (A) (A) (A) (A) (A) (A) (A) (A)
                 (A) (A) (A) (A) (A) (A) (A) (A) (A) (A) (A) (A)
                 (A) (A) (A) (A) (A) (A) (A) (A) (A) (A) (A) (A)
                 (A) (A) (A) (A) (A) (A) (A) (A) (A) (A) (A) (A)
                 (A) (A) (A) (A) (A) (A) (A) (A) (A) (A) (A) (A)
                 (A) (A) (A) (A) (A) (A) (A) (A) (A) (A) (A) (A)
                 (A) (A) (A) (A) (A) (A) (A) (A) (A) (A) (A) (A)
                 (A) (A) (A) (A) (A) (A) (A) (A) (A) (A) (A) (A)
                 (A) (A) (A) (A)
 The electronic state is 1-A.
 Alpha  occ. eigenvalues --  -20.62798 -20.59556 -20.53912 -11.38272 -11.25193
 Alpha  occ. eigenvalues --   -1.43458  -1.40384  -1.33987  -1.00817  -0.81030
 Alpha  occ. eigenvalues --   -0.76330  -0.70167  -0.65350  -0.63854  -0.62766
 Alpha  occ. eigenvalues --   -0.58013  -0.56090  -0.54637  -0.53178  -0.45594
 Alpha  occ. eigenvalues --   -0.43253
 Alpha virt. eigenvalues --    0.01670   0.04227   0.04457   0.06764   0.06903
 Alpha virt. eigenvalues --    0.07032   0.10636   0.12820   0.12833   0.15027
 Alpha virt. eigenvalues --    0.16224   0.16960   0.17015   0.17783   0.19091
 Alpha virt. eigenvalues --    0.20292   0.20677   0.21835   0.23725   0.24344
 Alpha virt. eigenvalues --    0.26231   0.27290   0.29718   0.30893   0.31651
 Alpha virt. eigenvalues --    0.32370   0.34535   0.34643   0.34811   0.36339
 Alpha virt. eigenvalues --    0.38701   0.40637   0.41536   0.41569   0.42885
 Alpha virt. eigenvalues --    0.44488   0.46631   0.47605   0.48382   0.50984
 Alpha virt. eigenvalues --    0.52247   0.53750   0.54346   0.55228   0.57193
 Alpha virt. eigenvalues --    0.58260   0.59780   0.60500   0.61265   0.64851
 Alpha virt. eigenvalues --    0.65111   0.66211   0.69185   0.69533   0.71412
 Alpha virt. eigenvalues --    0.72051   0.74996   0.75634   0.76136   0.81607
 Alpha virt. eigenvalues --    0.83515   0.86602   0.90013   0.94076   0.95437
 Alpha virt. eigenvalues --    0.97561   0.97882   1.01838   1.03356   1.08233
 Alpha virt. eigenvalues --    1.08871   1.11010   1.12149   1.13183   1.16644
 Alpha virt. eigenvalues --    1.19872   1.22046   1.22813   1.26928   1.27323
 Alpha virt. eigenvalues --    1.28381   1.33855   1.36881   1.37714   1.43314
 Alpha virt. eigenvalues --    1.43564   1.46792   1.49866   1.51622   1.61836
 Alpha virt. eigenvalues --    1.63344   1.66891   1.71333   1.76925   1.78077
 Alpha virt. eigenvalues --    1.83364   1.84320   1.86833   1.87786   1.90921
 Alpha virt. eigenvalues --    1.94216   2.00029   2.03491   2.04543   2.07789
 Alpha virt. eigenvalues --    2.12424   2.13339   2.18386   2.20583   2.21117
 Alpha virt. eigenvalues --    2.21260   2.29780   2.31022   2.35754   2.41709
 Alpha virt. eigenvalues --    2.42353   2.44563   2.48006   2.55690   2.58335
 Alpha virt. eigenvalues --    2.65062   2.68285   2.73660   2.74493   2.82232
 Alpha virt. eigenvalues --    2.85349   2.93176   2.93381   2.97314   3.02750
 Alpha virt. eigenvalues --    3.11055   3.30242   3.38283   3.67626   3.70824
 Alpha virt. eigenvalues --    3.73436   3.73612   3.78363   3.78618   3.80393
 Alpha virt. eigenvalues --    3.82159   3.85916   3.93686   4.02411   4.07068
 Alpha virt. eigenvalues --    4.15822   4.28085   4.44551
          Condensed to atoms (all electrons):
               1          2          3          4          5          6
     1  C    4.548142   0.363884  -0.020048   0.310902  -0.073419  -0.034245
     2  O    0.363884   8.476875  -0.085557  -0.058289   0.005193   0.018624
     3  O   -0.020048  -0.085557   8.619602   0.001949   0.256285   0.004118
     4  C    0.310902  -0.058289   0.001949   4.468311  -0.020296   0.372087
     5  H   -0.073419   0.005193   0.256285  -0.020296   0.537988  -0.004665
     6  H   -0.034245   0.018624   0.004118   0.372087  -0.004665   0.921878
     7  H   -0.035140  -0.001109  -0.000132   0.360019   0.008590  -0.094941
     8  H   -0.035109  -0.001110  -0.000122   0.360009   0.008595  -0.094922
     9  O    0.023747  -0.002085  -0.060942  -0.017376  -0.038624  -0.000297
    10  H   -0.000828  -0.000026  -0.002823   0.003006  -0.002258   0.000104
    11  H   -0.000826  -0.000026  -0.002825   0.003004  -0.002252   0.000104
               7          8          9         10         11
     1  C   -0.035140  -0.035109   0.023747  -0.000828  -0.000826
     2  O   -0.001109  -0.001110  -0.002085  -0.000026  -0.000026
     3  O   -0.000132  -0.000122  -0.060942  -0.002823  -0.002825
     4  C    0.360019   0.360009  -0.017376   0.003006   0.003004
     5  H    0.008590   0.008595  -0.038624  -0.002258  -0.002252
     6  H   -0.094941  -0.094922  -0.000297   0.000104   0.000104
     7  H    0.806128  -0.084900   0.002333  -0.001307   0.001939
     8  H   -0.084900   0.806005   0.002337   0.001937  -0.001305
     9  O    0.002333   0.002337   7.829638   0.364830   0.364822
    10  H   -0.001307   0.001937   0.364830   0.472542  -0.040447
    11  H    0.001939  -0.001305   0.364822  -0.040447   0.472560
 Mulliken charges:
               1
     1  C    0.952941
     2  O   -0.716375
     3  O   -0.709505
     4  C    0.216675
     5  H    0.324863
     6  H   -0.087845
     7  H    0.038521
     8  H    0.038585
     9  O   -0.468383
    10  H    0.205269
    11  H    0.205254
 Sum of Mulliken charges =  -0.00000
 Mulliken charges with hydrogens summed into heavy atoms:
               1
     1  C    0.952941
     2  O   -0.716375
     3  O   -0.384642
     4  C    0.205936
     9  O   -0.057861
 Electronic spatial extent (au):  <R**2>=            617.4045
 Charge=             -0.0000 electrons
 Dipole moment (field-independent basis, Debye):
    X=              6.6902    Y=              2.0796    Z=             -0.0001  Tot=              7.0060
 Quadrupole moment (field-independent basis, Debye-Ang):
   XX=            -26.3013   YY=            -32.7692   ZZ=            -27.5652
   XY=             -6.8002   XZ=             -0.0009   YZ=             -0.0004
 Traceless Quadrupole moment (field-independent basis, Debye-Ang):
   XX=              2.5773   YY=             -3.8907   ZZ=              1.3134
   XY=             -6.8002   XZ=             -0.0009   YZ=             -0.0004
 Octapole moment (field-independent basis, Debye-Ang**2):
  XXX=             81.5631  YYY=              0.8693  ZZZ=              0.0001  XYY=              2.2906
  XXY=             -7.7664  XXZ=             -0.0019  XZZ=             11.1671  YZZ=             -1.3068
  YYZ=              0.0000  XYZ=             -0.0012
 Hexadecapole moment (field-independent basis, Debye-Ang**3):
 XXXX=           -402.7088 YYYY=           -172.4266 ZZZZ=            -33.7711 XXXY=            -49.2004
 XXXZ=             -0.0098 YYYX=             -5.6180 YYYZ=             -0.0008 ZZZX=             -0.0020
 ZZZY=              0.0006 XXYY=           -116.8108 XXZZ=            -68.3922 YYZZ=            -33.8099
 XXYZ=             -0.0059 YYXZ=              0.0009 ZZXY=             -1.1057
 N-N= 1.771424097744D+02 E-N=-1.071539404522D+03  KE= 3.032517339615D+02
 Calling FoFJK, ICntrl=  10002127 FMM=F ISym2X=0 I1Cent= 0 IOpClX= 0 NMat=1 NMatS=1 NMatT=0.
 ***** Axes restored to original set *****
 -------------------------------------------------------------------
 Center     Atomic                   Forces (Hartrees/Bohr)
 Number     Number              X              Y              Z
 -------------------------------------------------------------------
      1        6           0.000019532    0.000010696    0.000001176
      2        8          -0.000006311    0.000000000   -0.000000799
      3        8          -0.000010751   -0.000006177    0.000001484
      4        6          -0.000006297   -0.000004338   -0.000001275
      5        1          -0.000002144   -0.000001319   -0.000001203
      6        1          -0.000000932    0.000002267    0.000000071
      7        1           0.000003471   -0.000000715    0.000000478
      8        1           0.000003321   -0.000000120    0.000000376
      9        8           0.000008585    0.000004295   -0.000000143
     10        1          -0.000003844   -0.000002467   -0.000000783
     11        1          -0.000004630   -0.000002122    0.000000618
 -------------------------------------------------------------------
 Cartesian Forces:  Max     0.000019532 RMS     0.000005313

 GradGradGradGradGradGradGradGradGradGradGradGradGradGradGradGradGradGrad
 Berny optimization.
 FormGI is forming the generalized inverse of G from B-inverse, IUseBI=4.
 Internal  Forces:  Max     0.000014660 RMS     0.000003341
 Search for a local minimum.
 Step number   1 out of a maximum of   46
 All quantities printed in internal units (Hartrees-Bohrs-Radians)
 Mixed Optimization -- En-DIIS/RFO-DIIS
 Second derivative matrix not updated -- first step.
 ITU=  0
     Eigenvalues ---    0.00230   0.00230   0.00230   0.00537   0.00917
     Eigenvalues ---    0.02165   0.04393   0.05688   0.07333   0.07342
     Eigenvalues ---    0.13200   0.16000   0.16000   0.16000   0.16000
     Eigenvalues ---    0.16000   0.25000   0.25000   0.30624   0.33576
     Eigenvalues ---    0.33576   0.34126   0.51488   0.52106   0.53977
     Eigenvalues ---    0.53977   0.96261
 RFO step:  Lambda= 0.00000000D+00 EMin= 2.30000000D-03
 Linear search not attempted -- first point.
 Iteration  1 RMS(Cart)=  0.00021026 RMS(Int)=  0.00000001
 Iteration  2 RMS(Cart)=  0.00000002 RMS(Int)=  0.00000000
 Variable       Old X    -DE/DX   Delta X   Delta X   Delta X     New X
                                 (Linear)    (Quad)   (Total)
    R1        2.30175  -0.00001   0.00000  -0.00001  -0.00001   2.30174
    R2        2.57797   0.00001   0.00000   0.00003   0.00003   2.57800
    R3        2.86737  -0.00000   0.00000  -0.00001  -0.00001   2.86736
    R4        1.85092   0.00000   0.00000   0.00000   0.00000   1.85092
    R5        2.07118   0.00000   0.00000   0.00000   0.00000   2.07119
    R6        2.08052  -0.00000   0.00000  -0.00001  -0.00001   2.08051
    R7        2.08052  -0.00000   0.00000  -0.00001  -0.00001   2.08052
    R8        3.47587  -0.00000   0.00000  -0.00000  -0.00000   3.47587
    R9        1.82753   0.00000   0.00000   0.00000   0.00000   1.82753
   R10        1.82753   0.00000   0.00000   0.00000   0.00000   1.82753
    A1        2.09850  -0.00000   0.00000  -0.00000  -0.00000   2.09850
    A2        2.17007   0.00000   0.00000   0.00001   0.00001   2.17009
    A3        2.01461  -0.00000   0.00000  -0.00001  -0.00001   2.01459
    A4        1.92563   0.00000   0.00000   0.00003   0.00003   1.92566
    A5        1.90485   0.00000   0.00000   0.00002   0.00002   1.90487
    A6        1.92290  -0.00000   0.00000  -0.00001  -0.00001   1.92289
    A7        1.92285  -0.00000   0.00000   0.00000   0.00000   1.92285
    A8        1.91742  -0.00000   0.00000  -0.00002  -0.00002   1.91741
    A9        1.91741  -0.00000   0.00000  -0.00001  -0.00001   1.91739
   A10        1.87835   0.00000   0.00000   0.00002   0.00002   1.87837
   A11        1.98188   0.00000   0.00000  -0.00000  -0.00000   1.98188
   A12        1.98170   0.00000   0.00000   0.00001   0.00001   1.98171
   A13        1.82059  -0.00000   0.00000  -0.00005  -0.00005   1.82055
   A14        3.26015   0.00000   0.00000   0.00026   0.00026   3.26040
   A15        3.14153   0.00000   0.00000   0.00006   0.00006   3.14159
    D1        3.14148   0.00000   0.00000   0.00007   0.00007   3.14156
    D2       -0.00014   0.00000   0.00000   0.00004   0.00004  -0.00010
    D3       -0.00020  -0.00000   0.00000  -0.00000  -0.00000  -0.00020
    D4       -2.10691   0.00000   0.00000   0.00002   0.00002  -2.10690
    D5        2.10646  -0.00000   0.00000  -0.00001  -0.00001   2.10645
    D6        3.14142   0.00000   0.00000   0.00004   0.00004   3.14146
    D7        1.03471   0.00000   0.00000   0.00005   0.00005   1.03476
    D8       -1.03511  -0.00000   0.00000   0.00003   0.00003  -1.03508
    D9       -2.11830  -0.00000   0.00000  -0.00011  -0.00011  -2.11841
   D10        2.11866   0.00000   0.00000   0.00001   0.00001   2.11867
   D11       -2.16628  -0.00000   0.00000   0.00002   0.00002  -2.16626
         Item               Value     Threshold  Converged?
 Maximum Force            0.000015     0.000450     YES
 RMS     Force            0.000003     0.000300     YES
 Maximum Displacement     0.000497     0.001800     YES
 RMS     Displacement     0.000210     0.001200     YES
 Predicted change in Energy=-8.602944D-10
 Optimization completed.
    -- Stationary point found.
                           ----------------------------
                           !   Optimized Parameters   !
                           ! (Angstroms and Degrees)  !
 --------------------------                            --------------------------
 ! Name  Definition              Value          Derivative Info.                !
 --------------------------------------------------------------------------------
 ! R1    R(1,2)                  1.218          -DE/DX =    0.0                 !
 ! R2    R(1,3)                  1.3642         -DE/DX =    0.0                 !
 ! R3    R(1,4)                  1.5173         -DE/DX =    0.0                 !
 ! R4    R(3,5)                  0.9795         -DE/DX =    0.0                 !
 ! R5    R(4,6)                  1.096          -DE/DX =    0.0                 !
 ! R6    R(4,7)                  1.101          -DE/DX =    0.0                 !
 ! R7    R(4,8)                  1.101          -DE/DX =    0.0                 !
 ! R8    R(5,9)                  1.8394         -DE/DX =    0.0                 !
 ! R9    R(9,10)                 0.9671         -DE/DX =    0.0                 !
 ! R10   R(9,11)                 0.9671         -DE/DX =    0.0                 !
 ! A1    A(2,1,3)              120.2355         -DE/DX =    0.0                 !
 ! A2    A(2,1,4)              124.336          -DE/DX =    0.0                 !
 ! A3    A(3,1,4)              115.4285         -DE/DX =    0.0                 !
 ! A4    A(1,3,5)              110.3304         -DE/DX =    0.0                 !
 ! A5    A(1,4,6)              109.1401         -DE/DX =    0.0                 !
 ! A6    A(1,4,7)              110.1743         -DE/DX =    0.0                 !
 ! A7    A(1,4,8)              110.1712         -DE/DX =    0.0                 !
 ! A8    A(6,4,7)              109.8603         -DE/DX =    0.0                 !
 ! A9    A(6,4,8)              109.8592         -DE/DX =    0.0                 !
 ! A10   A(7,4,8)              107.6215         -DE/DX =    0.0                 !
 ! A11   A(5,9,10)             113.5532         -DE/DX =    0.0                 !
 ! A12   A(5,9,11)             113.5431         -DE/DX =    0.0                 !
 ! A13   A(10,9,11)            104.3123         -DE/DX =    0.0                 !
 ! A14   L(3,5,9,4,-1)         186.7926         -DE/DX =    0.0                 !
 ! A15   L(3,5,9,4,-2)         179.9967         -DE/DX =    0.0                 !
 ! D1    D(2,1,3,5)            179.9936         -DE/DX =    0.0                 !
 ! D2    D(4,1,3,5)             -0.0079         -DE/DX =    0.0                 !
 ! D3    D(2,1,4,6)             -0.0113         -DE/DX =    0.0                 !
 ! D4    D(2,1,4,7)           -120.7171         -DE/DX =    0.0                 !
 ! D5    D(2,1,4,8)            120.6913         -DE/DX =    0.0                 !
 ! D6    D(3,1,4,6)            179.9902         -DE/DX =    0.0                 !
 ! D7    D(3,1,4,7)             59.2844         -DE/DX =    0.0                 !
 ! D8    D(3,1,4,8)            -59.3072         -DE/DX =    0.0                 !
 ! D9    D(1,3,9,10)          -121.3697         -DE/DX =    0.0                 !
 ! D10   D(1,3,9,11)           121.3902         -DE/DX =    0.0                 !
 ! D11   D(5,9,10,11)         -124.1189         -DE/DX =    0.0                 !
 --------------------------------------------------------------------------------
 GradGradGradGradGradGradGradGradGradGradGradGradGradGradGradGradGradGrad

                          Input orientation:                          
 ---------------------------------------------------------------------
 Center     Atomic      Atomic             Coordinates (Angstroms)
 Number     Number       Type             X           Y           Z
 ---------------------------------------------------------------------
      1          6           0        1.001589   -0.096973    0.000006
      2          8           0        2.168054   -0.447631    0.000060
      3          8           0        0.004407   -1.027932   -0.000060
      4          6           0        0.542678    1.349310   -0.000029
      5          1           0       -0.871104   -0.588807    0.000005
      6          1           0        1.420933    2.005004    0.000206
      7          1           0       -0.075345    1.551583    0.888370
      8          1           0       -0.074881    1.551630   -0.888743
      9          8           0       -2.601234    0.035582    0.000024
     10          1           0       -3.117541   -0.256668    0.763748
     11          1           0       -3.117483   -0.256922   -0.763642
 ---------------------------------------------------------------------
                    Distance matrix (angstroms):
                    1          2          3          4          5
     1  C    0.000000
     2  O    1.218032   0.000000
     3  O    1.364205   2.240116   0.000000
     4  C    1.517344   2.422982   2.437420   0.000000
     5  H    1.936202   3.042435   0.979464   2.398974   0.000000
     6  H    2.143398   2.563905   3.347424   1.096023   3.461400
     7  H    2.160258   3.133495   2.729389   1.100963   2.450244
     8  H    2.160221   3.133333   2.729503   1.100966   2.450574
     9  O    3.605261   4.793704   2.814325   3.407354   1.839351
    10  H    4.192378   5.343894   3.305270   4.069364   2.395850
    11  H    4.192314   5.343829   3.305104   4.069381   2.395730
                    6          7          8          9         10
     6  H    0.000000
     7  H    1.798131   0.000000
     8  H    1.798121   1.777113   0.000000
     9  O    4.478443   3.076936   3.077461   0.000000
    10  H    5.127953   3.541223   3.906206   0.967087   0.000000
    11  H    5.128059   3.905693   3.541742   0.967087   1.527390
                   11
    11  H    0.000000
 Stoichiometry    C2H6O3
 Framework group  C1[X(C2H6O3)]
 Deg. of freedom    27
 Full point group                 C1      NOp   1
 Largest Abelian subgroup         C1      NOp   1
 Largest concise Abelian subgroup C1      NOp   1
                         Standard orientation:                         
 ---------------------------------------------------------------------
 Center     Atomic      Atomic             Coordinates (Angstroms)
 Number     Number       Type             X           Y           Z
 ---------------------------------------------------------------------
      1          6           0       -1.001589   -0.096973   -0.000006
      2          8           0       -2.168054   -0.447631   -0.000060
      3          8           0       -0.004407   -1.027932    0.000060
      4          6           0       -0.542678    1.349310    0.000029
      5          1           0        0.871104   -0.588807   -0.000005
      6          1           0       -1.420933    2.005004   -0.000206
      7          1           0        0.075345    1.551583   -0.888370
      8          1           0        0.074881    1.551630    0.888743
      9          8           0        2.601234    0.035582   -0.000024
     10          1           0        3.117541   -0.256668   -0.763748
     11          1           0        3.117483   -0.256922    0.763642
 ---------------------------------------------------------------------
 Rotational constants (GHZ):           9.3719281           2.2578115           1.8564650
 Unable to Open any file for archive entry.
 1\1\GINC-N3238\FOpt\RMP2-FC\Aug-CC-pVDZ\C2H6O3\GDS001\21-Mar-2025\0\\#
  MP2/aug-cc-pVDZ opt freq=(vibrot,anharmonic)\\blah\\0,1\C,1.001589,-0
 .096973,0.000006\O,2.168054,-0.447631,0.00006\O,0.004407,-1.027932,-0.
 00006\C,0.542678,1.34931,-0.000029\H,-0.871104,-0.588807,0.000005\H,1.
 420933,2.005004,0.000206\H,-0.075345,1.551583,0.88837\H,-0.074881,1.55
 163,-0.888743\O,-2.601234,0.035582,0.000024\H,-3.117541,-0.256668,0.76
 3748\H,-3.117483,-0.256922,-0.763642\\Version=EM64L-G16RevC.01\State=1
 -A\HF=-303.8877893\MP2=-304.7901698\RMSD=6.363e-09\RMSF=5.313e-06\Dipo
 le=-2.4338466,0.699187,0.0000299\PG=C01 [X(C2H6O3)]\\@
 The archive entry for this job was punched.


 A MATHEMATICIAN IS A MACHINE FOR TURNING COFFEE INTO THEOREMS.
     -- QUOTED BY PAUL ERDOS
 Job cpu time:       0 days  0 hours  9 minutes 27.8 seconds.
 Elapsed time:       0 days  0 hours  0 minutes 18.3 seconds.
 File lengths (MBytes):  RWF=     14 Int=      0 D2E=      0 Chk=      4 Scr=      1
 Normal termination of Gaussian 16 at Fri Mar 21 06:20:33 2025.
 Link1:  Proceeding to internal job step number  2.
 ----------------------------------------------------------------------
 #N Geom=AllCheck Guess=TCheck SCRF=Check GenChk RMP2(FC)/Aug-CC-pVDZ F
 req
 ----------------------------------------------------------------------
 1/10=4,29=7,30=1,38=21,40=1,80=1/1,6,3;
 2/12=2,40=1/2;
 3/5=16,7=10,11=1,14=-4,25=1,30=1,70=2,71=2,116=1,140=1/1,2,3;
 4/5=101,69=2/1;
 5/5=2,38=6,98=1/2;
 8/6=3,8=1,10=1,19=11,30=-1/1;
 9/15=3,16=-3/6;
 11/6=1,8=1,15=11,17=12,24=-1,27=1,28=-2,29=300,32=6,42=3/1,2,10;
 10/6=2,21=1,60=-2/2;
 8/6=4,8=1,10=1,19=11,30=-1/11,4;
 10/5=1,20=4,60=-2/2;
 11/12=2,14=11,16=1,17=2,28=-2,42=3,76=2/2,10,12;
 6/7=2,8=2,9=2,10=2,22=-1/1;
 7/10=1,12=2,25=1,44=2,70=1,71=2/1,2,3,16;
 1/38=20,80=1/6(3);
 7/8=1,25=202,44=-1,70=1,71=1,92=10/16,17;
 1/10=4,30=1,38=20,80=1/3;
 99//99;
 3/5=16,7=10,11=1,14=-2,25=1,30=1,70=5,71=2,116=1,140=1/1,2,3;
 4/5=5,16=3,69=2/1;
 5/5=2,38=5,98=1/2;
 8/6=3,8=1,10=1,19=11,30=-1/1;
 9/15=3,16=-3/6;
 11/6=1,8=1,15=11,17=12,24=-1,27=1,28=-2,29=300,32=6,42=3/1,2,10;
 10/6=2,21=1,60=-2/2;
 8/6=4,8=1,10=1,19=11,30=-1/11,4;
 10/5=1,20=4,60=-2/2;
 11/12=2,14=11,16=1,17=2,28=-2,42=3,76=2/2,10,12;
 6/7=2,8=2,9=2,10=2,22=-1/1;
 7/7=1,10=1,12=2,25=1,44=2,70=1,71=1/1,2,3,16;
 1/38=20,80=1/6(-12);
 7/8=1,25=202,44=-1,70=1,71=1,92=10/16,17;
 1/10=4,30=1,38=20,80=1/3;
 99//99;
 Structure from the checkpoint file:  "/scr/Gau-6208.chk"
 ----
 blah
 ----
 Charge =  0 Multiplicity = 1
 Redundant internal coordinates found in file.  (old form).
 C,0,1.001589,-0.096973,0.000006
 O,0,2.168054,-0.447631,0.00006
 O,0,0.004407,-1.027932,-0.00006
 C,0,0.542678,1.34931,-0.000029
 H,0,-0.871104,-0.588807,0.000005
 H,0,1.420933,2.005004,0.000206
 H,0,-0.075345,1.551583,0.88837
 H,0,-0.074881,1.55163,-0.888743
 O,0,-2.601234,0.035582,0.000024
 H,0,-3.117541,-0.256668,0.763748
 H,0,-3.117483,-0.256922,-0.763642
 Recover connectivity data from disk.
 Numerical evaluation of third derivatives.
 Nuclear step= 0.010000 Angstroms, electric field step= 0.000333 atomic units, NStep=1.

 GradGradGradGradGradGradGradGradGradGradGradGradGradGradGradGradGradGrad
 Berny optimization.
 Initialization pass.
                           ----------------------------
                           !    Initial Parameters    !
                           ! (Angstroms and Degrees)  !
 --------------------------                            --------------------------
 ! Name  Definition              Value          Derivative Info.                !
 --------------------------------------------------------------------------------
 ! R1    R(1,2)                  1.218          calculate D2E/DX2 analytically  !
 ! R2    R(1,3)                  1.3642         calculate D2E/DX2 analytically  !
 ! R3    R(1,4)                  1.5173         calculate D2E/DX2 analytically  !
 ! R4    R(3,5)                  0.9795         calculate D2E/DX2 analytically  !
 ! R5    R(4,6)                  1.096          calculate D2E/DX2 analytically  !
 ! R6    R(4,7)                  1.101          calculate D2E/DX2 analytically  !
 ! R7    R(4,8)                  1.101          calculate D2E/DX2 analytically  !
 ! R8    R(5,9)                  1.8394         calculate D2E/DX2 analytically  !
 ! R9    R(9,10)                 0.9671         calculate D2E/DX2 analytically  !
 ! R10   R(9,11)                 0.9671         calculate D2E/DX2 analytically  !
 ! A1    A(2,1,3)              120.2355         calculate D2E/DX2 analytically  !
 ! A2    A(2,1,4)              124.336          calculate D2E/DX2 analytically  !
 ! A3    A(3,1,4)              115.4285         calculate D2E/DX2 analytically  !
 ! A4    A(1,3,5)              110.3304         calculate D2E/DX2 analytically  !
 ! A5    A(1,4,6)              109.1401         calculate D2E/DX2 analytically  !
 ! A6    A(1,4,7)              110.1743         calculate D2E/DX2 analytically  !
 ! A7    A(1,4,8)              110.1712         calculate D2E/DX2 analytically  !
 ! A8    A(6,4,7)              109.8603         calculate D2E/DX2 analytically  !
 ! A9    A(6,4,8)              109.8592         calculate D2E/DX2 analytically  !
 ! A10   A(7,4,8)              107.6215         calculate D2E/DX2 analytically  !
 ! A11   A(5,9,10)             113.5532         calculate D2E/DX2 analytically  !
 ! A12   A(5,9,11)             113.5431         calculate D2E/DX2 analytically  !
 ! A13   A(10,9,11)            104.3123         calculate D2E/DX2 analytically  !
 ! A14   L(3,5,9,4,-1)         186.7926         calculate D2E/DX2 analytically  !
 ! A15   L(3,5,9,4,-2)         179.9967         calculate D2E/DX2 analytically  !
 ! D1    D(2,1,3,5)            179.9936         calculate D2E/DX2 analytically  !
 ! D2    D(4,1,3,5)             -0.0079         calculate D2E/DX2 analytically  !
 ! D3    D(2,1,4,6)             -0.0113         calculate D2E/DX2 analytically  !
 ! D4    D(2,1,4,7)           -120.7171         calculate D2E/DX2 analytically  !
 ! D5    D(2,1,4,8)            120.6913         calculate D2E/DX2 analytically  !
 ! D6    D(3,1,4,6)            179.9902         calculate D2E/DX2 analytically  !
 ! D7    D(3,1,4,7)             59.2844         calculate D2E/DX2 analytically  !
 ! D8    D(3,1,4,8)            -59.3072         calculate D2E/DX2 analytically  !
 ! D9    D(1,3,9,10)          -121.3697         calculate D2E/DX2 analytically  !
 ! D10   D(1,3,9,11)           121.3902         calculate D2E/DX2 analytically  !
 ! D11   D(5,9,10,11)         -124.1189         calculate D2E/DX2 analytically  !
 --------------------------------------------------------------------------------
 Trust Radius=3.00D-01 FncErr=1.00D-07 GrdErr=1.00D-07 EigMax=2.50D+02 EigMin=1.00D-04
 Number of steps in this run=      2 maximum allowed number of steps=      2.
 GradGradGradGradGradGradGradGradGradGradGradGradGradGradGradGradGradGrad

                          Input orientation:                          
 ---------------------------------------------------------------------
 Center     Atomic      Atomic             Coordinates (Angstroms)
 Number     Number       Type             X           Y           Z
 ---------------------------------------------------------------------
      1          6           0        1.001589   -0.096973    0.000006
      2          8           0        2.168054   -0.447631    0.000060
      3          8           0        0.004407   -1.027932   -0.000060
      4          6           0        0.542678    1.349310   -0.000029
      5          1           0       -0.871104   -0.588807    0.000005
      6          1           0        1.420933    2.005004    0.000206
      7          1           0       -0.075345    1.551583    0.888370
      8          1           0       -0.074881    1.551630   -0.888743
      9          8           0       -2.601234    0.035582    0.000024
     10          1           0       -3.117541   -0.256668    0.763748
     11          1           0       -3.117483   -0.256922   -0.763642
 ---------------------------------------------------------------------
                    Distance matrix (angstroms):
                    1          2          3          4          5
     1  C    0.000000
     2  O    1.218032   0.000000
     3  O    1.364205   2.240116   0.000000
     4  C    1.517344   2.422982   2.437420   0.000000
     5  H    1.936202   3.042435   0.979464   2.398974   0.000000
     6  H    2.143398   2.563905   3.347424   1.096023   3.461400
     7  H    2.160258   3.133495   2.729389   1.100963   2.450244
     8  H    2.160221   3.133333   2.729503   1.100966   2.450574
     9  O    3.605261   4.793704   2.814325   3.407354   1.839351
    10  H    4.192378   5.343894   3.305270   4.069364   2.395850
    11  H    4.192314   5.343829   3.305104   4.069381   2.395730
                    6          7          8          9         10
     6  H    0.000000
     7  H    1.798131   0.000000
     8  H    1.798121   1.777113   0.000000
     9  O    4.478443   3.076936   3.077461   0.000000
    10  H    5.127953   3.541223   3.906206   0.967087   0.000000
    11  H    5.128059   3.905693   3.541742   0.967087   1.527390
                   11
    11  H    0.000000
 Stoichiometry    C2H6O3
 Framework group  C1[X(C2H6O3)]
 Deg. of freedom    27
 Full point group                 C1      NOp   1
 Largest Abelian subgroup         C1      NOp   1
 Largest concise Abelian subgroup C1      NOp   1
                         Standard orientation:                         
 ---------------------------------------------------------------------
 Center     Atomic      Atomic             Coordinates (Angstroms)
 Number     Number       Type             X           Y           Z
 ---------------------------------------------------------------------
      1          6           0       -1.001589   -0.096973   -0.000006
      2          8           0       -2.168054   -0.447631   -0.000060
      3          8           0       -0.004407   -1.027932    0.000060
      4          6           0       -0.542678    1.349310    0.000029
      5          1           0        0.871104   -0.588807   -0.000005
      6          1           0       -1.420933    2.005004   -0.000206
      7          1           0        0.075345    1.551583   -0.888370
      8          1           0        0.074881    1.551630    0.888743
      9          8           0        2.601234    0.035582   -0.000024
     10          1           0        3.117541   -0.256668   -0.763748
     11          1           0        3.117483   -0.256922    0.763642
 ---------------------------------------------------------------------
 Rotational constants (GHZ):           9.3719281           2.2578115           1.8564650
 Standard basis: Aug-CC-pVDZ (5D, 7F)
 There are   179 symmetry adapted cartesian basis functions of A   symmetry.
 There are   169 symmetry adapted basis functions of A   symmetry.
   169 basis functions,   281 primitive gaussians,   179 cartesian basis functions
    21 alpha electrons       21 beta electrons
       nuclear repulsion energy       177.1424097744 Hartrees.
 NAtoms=   11 NActive=   11 NUniq=   11 SFac= 1.00D+00 NAtFMM=   60 NAOKFM=F Big=F
 Integral buffers will be    131072 words long.
 Raffenetti 1 integral format.
 Two-electron integral symmetry is turned on.
 One-electron integrals computed using PRISM.
 NBasis=   169 RedAO= T EigKep=  9.10D-05  NBF=   169
 NBsUse=   169 1.00D-06 EigRej= -1.00D+00 NBFU=   169
 Initial guess from the checkpoint file:  "/scr/Gau-6208.chk"
 B after Tr=    -0.000000    0.000000   -0.000000
         Rot=    1.000000   -0.000000    0.000000   -0.000000 Ang=   0.00 deg.
 Keep R1 ints in memory in canonical form, NReq=111995396.
 Requested convergence on RMS density matrix=1.00D-08 within 128 cycles.
 Requested convergence on MAX density matrix=1.00D-06.
 Requested convergence on             energy=1.00D-06.
 No special actions if energy rises.
 SCF Done:  E(RHF) =  -303.887789281     A.U. after    1 cycles
            NFock=  1  Conv=0.14D-08     -V/T= 2.0021
 ExpMin= 2.97D-02 ExpMax= 1.17D+04 ExpMxC= 4.01D+02 IAcc=3 IRadAn=         5 AccDes= 0.00D+00
 HarFok:  IExCor=  205 AccDes= 0.00D+00 IRadAn=         5 IDoV=-2 UseB2=F ITyADJ=14
 ICtDFT= 12500011 ScaDFX=  1.000000  1.000000  1.000000  1.000000
 Range of M.O.s used for correlation:     6   169
 NBasis=   169 NAE=    21 NBE=    21 NFC=     5 NFV=     0
 NROrb=    164 NOA=    16 NOB=    16 NVA=   148 NVB=   148

 **** Warning!!: The largest alpha MO coefficient is  0.25396070D+02

 Disk-based method using ON**2 memory for 16 occupieds at a time.
 Permanent disk used for amplitudes=    11944044 words.
 Estimated scratch disk usage=   175625477 words.
 Actual    scratch disk usage=   160036101 words.
 JobTyp=1 Pass  1:  I=   6 to  21 NPSUse= 40 ParTrn=T ParDer=T DoDerP=T.
 (rs|ai) integrals will be sorted in core.
 Spin components of T(2) and E(2):
     alpha-alpha T2 =       0.3539057556D-01 E2=     -0.1173337285D+00
     alpha-beta  T2 =       0.1949744668D+00 E2=     -0.6677130884D+00
     beta-beta   T2 =       0.3539057556D-01 E2=     -0.1173337285D+00
 ANorm=    0.1125058051D+01
 E2 =    -0.9023805454D+00 EUMP2 =    -0.30479016982675D+03
 G2DrvN: will do    12 centers at a time, making    1 passes.
 Calling FoFCou, ICntrl=  3107 FMM=F I1Cent=   0 AccDes= 0.00D+00.
 End of G2Drv F.D. properties file   721 does not exist.
 End of G2Drv F.D. properties file   722 does not exist.
 End of G2Drv F.D. properties file   788 does not exist.
          IDoAtm=11111111111
          Differentiating once with respect to electric field.
                with respect to dipole field.
          Differentiating once with respect to nuclear coordinates.
 Keep R1 ints in memory in canonical form, NReq=111997026.
          There are    36 degrees of freedom in the 1st order CPHF.  IDoFFX=6 NUNeed=    36.
     33 vectors produced by pass  0 Test12= 8.63D-15 2.78D-09 XBig12= 1.14D+01 1.54D+00.
 AX will form    33 AO Fock derivatives at one time.
     33 vectors produced by pass  1 Test12= 8.63D-15 2.78D-09 XBig12= 9.36D-01 1.75D-01.
     33 vectors produced by pass  2 Test12= 8.63D-15 2.78D-09 XBig12= 3.73D-02 3.09D-02.
     33 vectors produced by pass  3 Test12= 8.63D-15 2.78D-09 XBig12= 6.02D-04 3.15D-03.
     33 vectors produced by pass  4 Test12= 8.63D-15 2.78D-09 XBig12= 6.73D-06 4.16D-04.
     33 vectors produced by pass  5 Test12= 8.63D-15 2.78D-09 XBig12= 4.76D-08 2.47D-05.
     32 vectors produced by pass  6 Test12= 8.63D-15 2.78D-09 XBig12= 2.61D-10 2.60D-06.
     11 vectors produced by pass  7 Test12= 8.63D-15 2.78D-09 XBig12= 1.50D-12 2.24D-07.
      3 vectors produced by pass  8 Test12= 8.63D-15 2.78D-09 XBig12= 1.07D-14 1.27D-08.
 InvSVY:  IOpt=1 It=  1 EMax= 1.78D-15
 Solved reduced A of dimension   244 with    36 vectors.
 End of Minotr F.D. properties file   721 does not exist.
 End of Minotr F.D. properties file   722 does not exist.
 End of Minotr F.D. properties file   788 does not exist.
 MDV=  6710886400.
 Form MO integral derivatives with frozen-active canonical formalism.
 Discarding MO integrals.
 Reordered first order wavefunction length =     19319328
 In DefCFB: NBatch=  1 ICI= 21 ICA=148 LFMax= 74
            Large arrays: LIAPS=   376080432 LIARS=    97358100 words.
 Semi-Direct transformation.
 ModeAB=           4 MOrb=            21 LenV=    6710007383
 LASXX=     46427703 LTotXX=    46427703 LenRXX=    93674490
 LTotAB=    47246787 MaxLAS=    57043077 LenRXY=           0
 NonZer=   140102193 LenScr=   210977792 LnRSAI=    57043077
 LnScr1=    86338560 LExtra=           0 Total=    448033919
 MaxDsk=          -1 SrtSym=           T ITran=            4
 JobTyp=0 Pass  1:  I=   1 to  21.
 (rs|ai) integrals will be sorted in core.
 SymMOI:  orbitals are not symmetric.
 Spin components of T(2) and E(2):
     alpha-alpha T2 =       0.3539057556D-01 E2=     -0.1173337285D+00
     alpha-beta  T2 =       0.1949744668D+00 E2=     -0.6677130884D+00
     beta-beta   T2 =       0.3539057556D-01 E2=     -0.1173337285D+00
 ANorm=    0.1591072354D+01
 E2 =    -0.9023805454D+00 EUMP2 =    -0.30479016982675D+03
          IDoAtm=11111111111
          Differentiating once with respect to electric field.
                with respect to dipole field.
          Differentiating once with respect to nuclear coordinates.
          There are     1 degrees of freedom in the 1st order CPHF.  IDoFFX=0 NUNeed=     1.
 LinEq1:  Iter=  0 NonCon=     1 RMS=4.92D-03 Max=9.66D-02 NDo=     1
 LinEq1:  Iter=  1 NonCon=     1 RMS=1.42D-03 Max=1.98D-02 NDo=     1
 LinEq1:  Iter=  2 NonCon=     1 RMS=4.91D-04 Max=8.62D-03 NDo=     1
 LinEq1:  Iter=  3 NonCon=     1 RMS=1.57D-04 Max=2.68D-03 NDo=     1
 LinEq1:  Iter=  4 NonCon=     1 RMS=5.48D-05 Max=6.78D-04 NDo=     1
 LinEq1:  Iter=  5 NonCon=     1 RMS=1.66D-05 Max=2.11D-04 NDo=     1
 LinEq1:  Iter=  6 NonCon=     1 RMS=5.01D-06 Max=4.90D-05 NDo=     1
 LinEq1:  Iter=  7 NonCon=     1 RMS=1.34D-06 Max=1.05D-05 NDo=     1
 LinEq1:  Iter=  8 NonCon=     1 RMS=4.82D-07 Max=4.18D-06 NDo=     1
 LinEq1:  Iter=  9 NonCon=     1 RMS=1.26D-07 Max=2.25D-06 NDo=     1
 LinEq1:  Iter= 10 NonCon=     1 RMS=3.31D-08 Max=5.45D-07 NDo=     1
 LinEq1:  Iter= 11 NonCon=     1 RMS=9.11D-09 Max=1.26D-07 NDo=     1
 LinEq1:  Iter= 12 NonCon=     1 RMS=2.43D-09 Max=2.40D-08 NDo=     1
 LinEq1:  Iter= 13 NonCon=     1 RMS=6.48D-10 Max=5.52D-09 NDo=     1
 LinEq1:  Iter= 14 NonCon=     0 RMS=9.19D-11 Max=7.91D-10 NDo=     1
 Linear equations converged to 1.000D-10 1.000D-09 after    14 iterations.
 End of Minotr F.D. properties file   721 does not exist.
 End of Minotr F.D. properties file   722 does not exist.
 End of Minotr F.D. properties file   788 does not exist.
 Symmetrizing basis deriv contribution to polar:
 IMax=3 JMax=2 DiffMx= 0.00D+00
 G2DrvN: will do    12 centers at a time, making    1 passes.
 Calling FoFCou, ICntrl=  3107 FMM=F I1Cent=   0 AccDes= 0.00D+00.
 End of G2Drv F.D. properties file   721 does not exist.
 End of G2Drv F.D. properties file   722 does not exist.
 End of G2Drv F.D. properties file   788 does not exist.
 R2 and R3 integrals will be kept in memory, NReq=   262464120.
 DD1Dir will call FoFMem   1 times, MxPair=       462
 NAB=   231 NAA=     0 NBB=     0.
 Discarding MO integrals.

 **********************************************************************

            Population analysis using the MP2 Density.

 **********************************************************************

 Orbital symmetries:
       Occupied  (A) (A) (A) (A) (A) (A) (A) (A) (A) (A) (A) (A)
                 (A) (A) (A) (A) (A) (A) (A) (A) (A)
       Virtual   (A) (A) (A) (A) (A) (A) (A) (A) (A) (A) (A) (A)
                 (A) (A) (A) (A) (A) (A) (A) (A) (A) (A) (A) (A)
                 (A) (A) (A) (A) (A) (A) (A) (A) (A) (A) (A) (A)
                 (A) (A) (A) (A) (A) (A) (A) (A) (A) (A) (A) (A)
                 (A) (A) (A) (A) (A) (A) (A) (A) (A) (A) (A) (A)
                 (A) (A) (A) (A) (A) (A) (A) (A) (A) (A) (A) (A)
                 (A) (A) (A) (A) (A) (A) (A) (A) (A) (A) (A) (A)
                 (A) (A) (A) (A) (A) (A) (A) (A) (A) (A) (A) (A)
                 (A) (A) (A) (A) (A) (A) (A) (A) (A) (A) (A) (A)
                 (A) (A) (A) (A) (A) (A) (A) (A) (A) (A) (A) (A)
                 (A) (A) (A) (A) (A) (A) (A) (A) (A) (A) (A) (A)
                 (A) (A) (A) (A) (A) (A) (A) (A) (A) (A) (A) (A)
                 (A) (A) (A) (A)
 The electronic state is 1-A.
 Alpha  occ. eigenvalues --  -20.62798 -20.59556 -20.53912 -11.38272 -11.25193
 Alpha  occ. eigenvalues --   -1.43458  -1.40384  -1.33987  -1.00817  -0.81030
 Alpha  occ. eigenvalues --   -0.76330  -0.70167  -0.65350  -0.63854  -0.62766
 Alpha  occ. eigenvalues --   -0.58013  -0.56090  -0.54637  -0.53178  -0.45594
 Alpha  occ. eigenvalues --   -0.43253
 Alpha virt. eigenvalues --    0.01670   0.04227   0.04457   0.06764   0.06903
 Alpha virt. eigenvalues --    0.07032   0.10636   0.12820   0.12833   0.15027
 Alpha virt. eigenvalues --    0.16224   0.16960   0.17015   0.17783   0.19091
 Alpha virt. eigenvalues --    0.20292   0.20677   0.21835   0.23725   0.24344
 Alpha virt. eigenvalues --    0.26231   0.27290   0.29718   0.30893   0.31651
 Alpha virt. eigenvalues --    0.32370   0.34535   0.34643   0.34811   0.36339
 Alpha virt. eigenvalues --    0.38701   0.40637   0.41536   0.41569   0.42885
 Alpha virt. eigenvalues --    0.44488   0.46631   0.47605   0.48382   0.50984
 Alpha virt. eigenvalues --    0.52247   0.53750   0.54346   0.55228   0.57193
 Alpha virt. eigenvalues --    0.58260   0.59780   0.60500   0.61265   0.64851
 Alpha virt. eigenvalues --    0.65111   0.66211   0.69185   0.69533   0.71412
 Alpha virt. eigenvalues --    0.72051   0.74996   0.75634   0.76136   0.81607
 Alpha virt. eigenvalues --    0.83515   0.86602   0.90013   0.94076   0.95437
 Alpha virt. eigenvalues --    0.97561   0.97882   1.01838   1.03356   1.08233
 Alpha virt. eigenvalues --    1.08871   1.11010   1.12149   1.13183   1.16644
 Alpha virt. eigenvalues --    1.19872   1.22046   1.22813   1.26928   1.27323
 Alpha virt. eigenvalues --    1.28381   1.33855   1.36881   1.37714   1.43314
 Alpha virt. eigenvalues --    1.43564   1.46792   1.49866   1.51622   1.61836
 Alpha virt. eigenvalues --    1.63344   1.66891   1.71333   1.76925   1.78077
 Alpha virt. eigenvalues --    1.83364   1.84320   1.86833   1.87786   1.90921
 Alpha virt. eigenvalues --    1.94216   2.00029   2.03491   2.04543   2.07789
 Alpha virt. eigenvalues --    2.12424   2.13339   2.18386   2.20583   2.21117
 Alpha virt. eigenvalues --    2.21260   2.29780   2.31022   2.35754   2.41709
 Alpha virt. eigenvalues --    2.42353   2.44563   2.48006   2.55690   2.58335
 Alpha virt. eigenvalues --    2.65062   2.68285   2.73660   2.74493   2.82232
 Alpha virt. eigenvalues --    2.85349   2.93176   2.93381   2.97314   3.02750
 Alpha virt. eigenvalues --    3.11055   3.30242   3.38283   3.67626   3.70824
 Alpha virt. eigenvalues --    3.73436   3.73612   3.78363   3.78618   3.80393
 Alpha virt. eigenvalues --    3.82159   3.85916   3.93686   4.02411   4.07068
 Alpha virt. eigenvalues --    4.15822   4.28085   4.44551
          Condensed to atoms (all electrons):
               1          2          3          4          5          6
     1  C    5.437869   0.241086  -0.095945  -0.069377  -0.098930  -0.034435
     2  O    0.241086   8.377353  -0.078615  -0.012058  -0.000077   0.004807
     3  O   -0.095945  -0.078615   8.509487   0.031416   0.215441   0.001460
     4  C   -0.069377  -0.012058   0.031416   5.023605  -0.040269   0.259674
     5  H   -0.098930  -0.000077   0.215441  -0.040269   0.711853  -0.005813
     6  H   -0.034435   0.004807   0.001460   0.259674  -0.005813   1.193190
     7  H   -0.054422   0.003198  -0.000549   0.270491   0.005079  -0.146026
     8  H   -0.054385   0.003198  -0.000534   0.270477   0.005085  -0.146006
     9  O    0.028699  -0.003115  -0.062717  -0.026891  -0.019908  -0.001492
    10  H   -0.001806  -0.000048  -0.002960   0.004549  -0.003528   0.000221
    11  H   -0.001804  -0.000049  -0.002963   0.004546  -0.003522   0.000221
               7          8          9         10         11
     1  C   -0.054422  -0.054385   0.028699  -0.001806  -0.001804
     2  O    0.003198   0.003198  -0.003115  -0.000048  -0.000049
     3  O   -0.000549  -0.000534  -0.062717  -0.002960  -0.002963
     4  C    0.270491   0.270477  -0.026891   0.004549   0.004546
     5  H    0.005079   0.005085  -0.019908  -0.003528  -0.003522
     6  H   -0.146026  -0.146006  -0.001492   0.000221   0.000221
     7  H    1.049855  -0.126031   0.004887  -0.001708   0.002086
     8  H   -0.126031   1.049719   0.004891   0.002085  -0.001706
     9  O    0.004887   0.004891   7.753682   0.342410   0.342398
    10  H   -0.001708   0.002085   0.342410   0.553024  -0.057056
    11  H    0.002086  -0.001706   0.342398  -0.057056   0.553043
 Mulliken charges:
               1
     1  C    0.703450
     2  O   -0.535679
     3  O   -0.513521
     4  C    0.283837
     5  H    0.234589
     6  H   -0.125801
     7  H   -0.006861
     8  H   -0.006792
     9  O   -0.362844
    10  H    0.164818
    11  H    0.164805
 Sum of Mulliken charges =  -0.00000
 Mulliken charges with hydrogens summed into heavy atoms:
               1
     1  C    0.703450
     2  O   -0.535679
     3  O   -0.278932
     4  C    0.144383
     9  O   -0.033221
 APT charges:
               1
     1  C    1.116778
     2  O   -0.692095
     3  O   -0.824864
     4  C   -0.062758
     5  H    0.422349
     6  H    0.024845
     7  H    0.015330
     8  H    0.015335
     9  O   -0.555418
    10  H    0.270247
    11  H    0.270250
 Sum of APT charges =   0.00000
 APT charges with hydrogens summed into heavy atoms:
               1
     1  C    1.116778
     2  O   -0.692095
     3  O   -0.402515
     4  C   -0.007247
     9  O   -0.014921
 Electronic spatial extent (au):  <R**2>=            618.6864
 Charge=             -0.0000 electrons
 Dipole moment (field-independent basis, Debye):
    X=              6.1862    Y=              1.7772    Z=             -0.0001  Tot=              6.4364
 Quadrupole moment (field-independent basis, Debye-Ang):
   XX=            -26.2971   YY=            -33.6996   ZZ=            -28.3632
   XY=             -6.2408   XZ=             -0.0009   YZ=             -0.0004
 Traceless Quadrupole moment (field-independent basis, Debye-Ang):
   XX=              3.1562   YY=             -4.2463   ZZ=              1.0901
   XY=             -6.2408   XZ=             -0.0009   YZ=             -0.0004
 Octapole moment (field-independent basis, Debye-Ang**2):
  XXX=             75.0749  YYY=              0.2152  ZZZ=              0.0000  XYY=              1.8265
  XXY=             -8.1172  XXZ=             -0.0020  XZZ=             10.5299  YZZ=             -1.3741
  YYZ=             -0.0000  XYZ=             -0.0013
 Hexadecapole moment (field-independent basis, Debye-Ang**3):
 XXXX=           -421.6835 YYYY=           -180.6978 ZZZZ=            -36.4236 XXXY=            -45.7715
 XXXZ=             -0.0094 YYYX=             -5.0934 YYYZ=             -0.0009 ZZZX=             -0.0018
 ZZZY=              0.0005 XXYY=           -121.4854 XXZZ=            -71.4770 YYZZ=            -35.4609
 XXYZ=             -0.0058 YYXZ=              0.0009 ZZXY=             -0.7874
 N-N= 1.771424097744D+02 E-N=-1.071165998435D+03  KE= 3.038959416872D+02
  Exact polarizability:      54.600       0.679      43.959       0.001       0.000      35.111
 Approx polarizability:      40.356       0.621      33.206       0.000      -0.000      32.047
 Calling FoFJK, ICntrl=  10100127 FMM=F ISym2X=0 I1Cent= 0 IOpClX= 0 NMat=1 NMatS=1 NMatT=0.
 Full mass-weighted force constant matrix:
 Low frequencies ---   -1.6840   -0.7633    0.0008    0.0009    0.0015    1.1550
 Low frequencies ---   35.4159   76.0554   81.0849
 Diagonal vibrational polarizability:
       59.3920439      61.7284153     539.6092916
 Harmonic frequencies (cm**-1), IR intensities (KM/Mole), Raman scattering
 activities (A**4/AMU), depolarization ratios for plane and unpolarized
 incident light, reduced masses (AMU), force constants (mDyne/A),
 and normal coordinates:
                      1                      2                      3
                      A                      A                      A
 Frequencies --     35.4158                76.0554                81.0849
 Red. masses --      1.5947                 1.5761                 3.9172
 Frc consts  --      0.0012                 0.0054                 0.0152
 IR Inten    --     19.8344                21.9993                 7.6333
  Atom  AN      X      Y      Z        X      Y      Z        X      Y      Z
     1   6     0.00  -0.00   0.01    -0.00   0.00   0.01     0.05  -0.05   0.00
     2   8     0.00   0.00  -0.11     0.00  -0.00  -0.12     0.00   0.12  -0.00
     3   8    -0.00  -0.00   0.10     0.00   0.00   0.15    -0.08  -0.19   0.00
     4   6     0.00  -0.00   0.09    -0.00   0.00   0.04     0.26  -0.11   0.00
     5   1     0.00  -0.00   0.12     0.00   0.00   0.15    -0.04  -0.27   0.00
     6   1     0.00  -0.00  -0.16    -0.00  -0.00  -0.03     0.35   0.01   0.00
     7   1     0.26  -0.01   0.27     0.06  -0.00   0.07     0.29  -0.20   0.00
     8   1    -0.26   0.01   0.27    -0.06   0.01   0.07     0.29  -0.20  -0.00
     9   8    -0.00   0.00  -0.11     0.00  -0.00  -0.03    -0.20   0.18  -0.00
    10   1    -0.01  -0.55   0.10    -0.25   0.49  -0.39    -0.08   0.40  -0.00
    11   1     0.01   0.55   0.10     0.25  -0.49  -0.39    -0.08   0.40  -0.00
                      4                      5                      6
                      A                      A                      A
 Frequencies --    110.2580               178.7834               265.5474
 Red. masses --      1.1376                 4.7050                 1.1686
 Frc consts  --      0.0081                 0.0886                 0.0485
 IR Inten    --      2.2850                 1.8449                 6.5906
  Atom  AN      X      Y      Z        X      Y      Z        X      Y      Z
     1   6    -0.00   0.00   0.01    -0.13  -0.02   0.00     0.00   0.00   0.00
     2   8     0.00  -0.00  -0.07    -0.16   0.06  -0.00     0.00  -0.00  -0.03
     3   8     0.00   0.00   0.05    -0.18  -0.10   0.00     0.00   0.00   0.07
     4   6    -0.00   0.00   0.02    -0.01  -0.07  -0.00    -0.00   0.00   0.02
     5   1     0.00   0.00   0.10    -0.16  -0.15   0.00     0.00  -0.00  -0.22
     6   1    -0.00   0.00   0.53     0.06   0.01   0.00    -0.00   0.00   0.06
     7   1    -0.47   0.10  -0.28     0.02  -0.13   0.00    -0.03   0.02   0.00
     8   1     0.47  -0.10  -0.28     0.02  -0.13  -0.00     0.03  -0.02   0.00
     9   8     0.00  -0.00  -0.02     0.38   0.10  -0.00    -0.00  -0.00  -0.07
    10   1    -0.05  -0.19   0.02     0.49   0.29   0.00     0.59   0.26   0.23
    11   1     0.05   0.19   0.02     0.49   0.29  -0.00    -0.59  -0.26   0.23
                      7                      8                      9
                      A                      A                      A
 Frequencies --    281.0532               442.7144               577.2593
 Red. masses --      1.2993                 2.8013                 2.5419
 Frc consts  --      0.0605                 0.3235                 0.4991
 IR Inten    --    218.0360                 9.3211                12.4140
  Atom  AN      X      Y      Z        X      Y      Z        X      Y      Z
     1   6     0.02   0.01  -0.00    -0.14   0.02  -0.00    -0.00   0.00   0.33
     2   8     0.02  -0.00   0.00    -0.09  -0.16   0.00     0.00  -0.00  -0.11
     3   8     0.01   0.01  -0.00     0.02   0.21  -0.00    -0.00  -0.00  -0.10
     4   6    -0.03   0.03  -0.00     0.17  -0.08   0.00     0.00   0.00   0.02
     5   1     0.03  -0.04   0.00    -0.05   0.33   0.00    -0.00  -0.00   0.14
     6   1    -0.07  -0.02  -0.00     0.47   0.32  -0.00     0.00  -0.00  -0.37
     7   1    -0.05   0.06  -0.00     0.27  -0.36   0.01    -0.10  -0.55  -0.19
     8   1    -0.05   0.06   0.00     0.27  -0.36  -0.01     0.10   0.55  -0.19
     9   8    -0.05  -0.12   0.00    -0.02  -0.03   0.00     0.00   0.00  -0.01
    10   1     0.34   0.61  -0.01     0.05   0.11  -0.00     0.07   0.03   0.02
    11   1     0.34   0.61   0.01     0.05   0.11   0.00    -0.07  -0.03   0.02
                     10                     11                     12
                      A                      A                      A
 Frequencies --    603.7146               851.5729               874.8952
 Red. masses --      5.9772                 1.0508                 5.8767
 Frc consts  --      1.2835                 0.4490                 2.6503
 IR Inten    --      4.0410                75.2958                23.9812
  Atom  AN      X      Y      Z        X      Y      Z        X      Y      Z
     1   6    -0.01  -0.17   0.00     0.00   0.00  -0.02    -0.15  -0.13  -0.00
     2   8    -0.17   0.32  -0.00     0.00   0.00   0.02    -0.27  -0.02   0.00
     3   8     0.29   0.10  -0.00    -0.00   0.00  -0.04     0.29  -0.22  -0.00
     4   6    -0.12  -0.33  -0.00     0.00  -0.00  -0.02     0.08   0.34  -0.00
     5   1     0.12   0.46   0.00    -0.00   0.00   0.96     0.13   0.14   0.00
     6   1    -0.17  -0.41  -0.00    -0.00  -0.00   0.05     0.22   0.56   0.00
     7   1    -0.13  -0.29  -0.00     0.03   0.05   0.02     0.12   0.32   0.01
     8   1    -0.13  -0.29   0.00    -0.03  -0.05   0.02     0.12   0.32  -0.01
     9   8    -0.01  -0.02  -0.00    -0.00   0.00  -0.03    -0.01  -0.01  -0.00
    10   1     0.02   0.05  -0.01     0.15   0.07   0.05     0.00   0.02  -0.00
    11   1     0.02   0.05   0.01    -0.15  -0.07   0.05     0.00   0.02   0.00
                     13                     14                     15
                      A                      A                      A
 Frequencies --    998.8328              1049.9195              1249.2819
 Red. masses --      1.5204                 1.8045                 2.4417
 Frc consts  --      0.8937                 1.1719                 2.2452
 IR Inten    --     10.7716                 2.1575                67.9291
  Atom  AN      X      Y      Z        X      Y      Z        X      Y      Z
     1   6    -0.01   0.08   0.00    -0.00  -0.00   0.20    -0.11   0.29  -0.00
     2   8     0.05   0.03   0.00     0.00  -0.00  -0.04    -0.05  -0.05  -0.00
     3   8     0.04  -0.06  -0.00    -0.00  -0.00  -0.02     0.10  -0.05   0.00
     4   6    -0.17   0.01  -0.00     0.00   0.00  -0.17     0.08  -0.05   0.00
     5   1     0.12  -0.21   0.00    -0.00   0.00  -0.07     0.33  -0.52   0.00
     6   1     0.27   0.58   0.00    -0.00   0.00   0.38    -0.28  -0.53   0.00
     7   1     0.10  -0.48   0.07     0.25   0.55   0.15    -0.17  -0.11  -0.16
     8   1     0.10  -0.48  -0.07    -0.25  -0.55   0.15    -0.17  -0.11   0.16
     9   8    -0.00   0.00  -0.00     0.00  -0.00   0.00    -0.00   0.00  -0.00
    10   1    -0.00  -0.01   0.00    -0.01  -0.00  -0.00    -0.00  -0.01   0.01
    11   1    -0.00  -0.01  -0.00     0.01   0.00  -0.00    -0.00  -0.01  -0.01
                     16                     17                     18
                      A                      A                      A
 Frequencies --   1362.3229              1390.3599              1457.4653
 Red. masses --      1.2205                 1.6691                 1.0542
 Frc consts  --      1.3346                 1.9010                 1.3194
 IR Inten    --    209.1827               200.4838                 5.2792
  Atom  AN      X      Y      Z        X      Y      Z        X      Y      Z
     1   6    -0.04   0.05  -0.00     0.07  -0.13   0.00    -0.00   0.04  -0.00
     2   8     0.05   0.00   0.00    -0.04   0.01  -0.00    -0.01  -0.01   0.00
     3   8     0.00  -0.08   0.00    -0.03   0.07  -0.00     0.01  -0.01   0.00
     4   6     0.03   0.06   0.00     0.03   0.17   0.00    -0.04   0.02  -0.00
     5   1    -0.40   0.72  -0.00     0.20  -0.39   0.00    -0.05   0.10   0.00
     6   1    -0.16  -0.19  -0.00    -0.32  -0.32  -0.00    -0.28  -0.33  -0.00
     7   1    -0.11  -0.29  -0.16     0.01  -0.50  -0.16     0.51  -0.01   0.37
     8   1    -0.11  -0.29   0.16     0.01  -0.50   0.16     0.51  -0.01  -0.37
     9   8     0.00  -0.01   0.00     0.00   0.01  -0.00     0.00  -0.00  -0.00
    10   1    -0.00   0.03  -0.01     0.00  -0.02   0.01    -0.01   0.01  -0.01
    11   1    -0.00   0.03   0.01     0.00  -0.02  -0.01    -0.01   0.01   0.01
                     19                     20                     21
                      A                      A                      A
 Frequencies --   1476.3993              1628.8845              1800.0439
 Red. masses --      1.0439                 1.0824                 8.5572
 Frc consts  --      1.3406                 1.6920                16.3360
 IR Inten    --      7.0891                63.4867               268.8056
  Atom  AN      X      Y      Z        X      Y      Z        X      Y      Z
     1   6     0.00  -0.00  -0.03    -0.00   0.00  -0.00     0.63   0.24   0.00
     2   8     0.00   0.00   0.00     0.00   0.00   0.00    -0.38  -0.13  -0.00
     3   8    -0.00  -0.00   0.00     0.00  -0.00   0.00    -0.04  -0.04   0.00
     4   6     0.00   0.00  -0.05    -0.00   0.00  -0.00    -0.05  -0.05  -0.00
     5   1    -0.00   0.00  -0.02    -0.02   0.02  -0.00    -0.25   0.46  -0.00
     6   1    -0.00  -0.00   0.71    -0.00  -0.00   0.00     0.16   0.17   0.00
     7   1     0.26  -0.42   0.05     0.01   0.00   0.00    -0.10  -0.10  -0.06
     8   1    -0.26   0.42   0.05     0.01   0.00  -0.00    -0.10  -0.10   0.06
     9   8     0.00  -0.00   0.00    -0.06   0.03   0.00    -0.00  -0.00   0.00
    10   1    -0.00   0.00  -0.00     0.49  -0.26   0.43     0.02  -0.00   0.01
    11   1     0.00  -0.00  -0.00     0.49  -0.26  -0.43     0.02  -0.00  -0.01
                     22                     23                     24
                      A                      A                      A
 Frequencies --   3079.3828              3165.6493              3213.0798
 Red. masses --      1.0370                 1.0999                 1.1030
 Frc consts  --      5.7936                 6.4941                 6.7094
 IR Inten    --      4.2182                 6.3692                 6.2553
  Atom  AN      X      Y      Z        X      Y      Z        X      Y      Z
     1   6    -0.00   0.00  -0.00    -0.00  -0.00  -0.00    -0.00  -0.00  -0.00
     2   8     0.00  -0.00   0.00     0.00   0.00  -0.00     0.00   0.00   0.00
     3   8    -0.00  -0.00   0.00     0.00   0.00   0.00     0.00  -0.00  -0.00
     4   6    -0.03  -0.04  -0.00     0.00   0.00  -0.09    -0.09   0.04  -0.00
     5   1     0.00   0.00  -0.00    -0.00   0.00  -0.00     0.00  -0.00   0.00
     6   1    -0.35   0.25  -0.00     0.00  -0.00  -0.02     0.72  -0.54   0.00
     7   1     0.35   0.11  -0.52    -0.40  -0.13   0.56     0.16   0.06  -0.25
     8   1     0.35   0.11   0.52     0.40   0.13   0.56     0.15   0.06   0.25
     9   8    -0.00   0.00   0.00     0.00  -0.00   0.00    -0.00   0.00  -0.00
    10   1    -0.00   0.00  -0.00    -0.00   0.00  -0.00    -0.00   0.00  -0.00
    11   1    -0.00   0.00   0.00     0.00  -0.00  -0.00    -0.00   0.00   0.00
                     25                     26                     27
                      A                      A                      A
 Frequencies --   3586.9394              3789.1468              3915.7390
 Red. masses --      1.0683                 1.0455                 1.0813
 Frc consts  --      8.0984                 8.8440                 9.7684
 IR Inten    --    637.6592                15.3218                99.3824
  Atom  AN      X      Y      Z        X      Y      Z        X      Y      Z
     1   6    -0.00  -0.00  -0.00     0.00  -0.00   0.00     0.00   0.00   0.00
     2   8     0.00  -0.00   0.00    -0.00   0.00   0.00     0.00   0.00  -0.00
     3   8    -0.06  -0.03   0.00    -0.00  -0.00   0.00     0.00  -0.00  -0.00
     4   6     0.00  -0.00  -0.00     0.00  -0.00   0.00     0.00   0.00  -0.00
     5   1     0.89   0.44  -0.00     0.05   0.02  -0.00    -0.00   0.00  -0.00
     6   1     0.00  -0.01   0.00    -0.00   0.00  -0.00    -0.00   0.00   0.00
     7   1     0.00  -0.00   0.00     0.00   0.00  -0.00    -0.00  -0.00   0.00
     8   1     0.00  -0.00  -0.00     0.00   0.00   0.00     0.00   0.00   0.00
     9   8    -0.00   0.00  -0.00     0.04  -0.02  -0.00     0.00   0.00  -0.07
    10   1     0.02  -0.01  -0.03    -0.35   0.19   0.58    -0.38   0.21   0.56
    11   1     0.02  -0.01   0.03    -0.35   0.19  -0.58     0.38  -0.21   0.56

 -------------------
 - Thermochemistry -
 -------------------
 Temperature   298.150 Kelvin.  Pressure   1.00000 Atm.
 Atom     1 has atomic number  6 and mass  12.00000
 Atom     2 has atomic number  8 and mass  15.99491
 Atom     3 has atomic number  8 and mass  15.99491
 Atom     4 has atomic number  6 and mass  12.00000
 Atom     5 has atomic number  1 and mass   1.00783
 Atom     6 has atomic number  1 and mass   1.00783
 Atom     7 has atomic number  1 and mass   1.00783
 Atom     8 has atomic number  1 and mass   1.00783
 Atom     9 has atomic number  8 and mass  15.99491
 Atom    10 has atomic number  1 and mass   1.00783
 Atom    11 has atomic number  1 and mass   1.00783
 Molecular mass:    78.03169 amu.
 Principal axes and moments of inertia in atomic units:
                           1         2         3
     Eigenvalues --   192.56883 799.33209 972.13858
           X            0.99967  -0.02586  -0.00000
           Y            0.02586   0.99967   0.00000
           Z            0.00000  -0.00000   1.00000
 This molecule is an asymmetric top.
 Rotational symmetry number  1.
 Rotational temperatures (Kelvin)      0.44978     0.10836     0.08910
 Rotational constants (GHZ):           9.37193     2.25781     1.85646
 Zero-point vibrational energy     224549.8 (Joules/Mol)
                                   53.66870 (Kcal/Mol)
 Warning -- explicit consideration of  10 degrees of freedom as
           vibrations may cause significant error
 Vibrational temperatures:     50.96   109.43   116.66   158.64   257.23
          (Kelvin)            382.06   404.37   636.97   830.55   868.61
                             1225.22  1258.78  1437.10  1510.60  1797.44
                             1960.08  2000.42  2096.97  2124.21  2343.60
                             2589.86  4430.55  4554.66  4622.91  5160.81
                             5451.74  5633.88
 
 Zero-point correction=                           0.085527 (Hartree/Particle)
 Thermal correction to Energy=                    0.093835
 Thermal correction to Enthalpy=                  0.094779
 Thermal correction to Gibbs Free Energy=         0.052039
 Sum of electronic and zero-point Energies=           -304.704643
 Sum of electronic and thermal Energies=              -304.696335
[...]
 3.09610318,0.28581903,-0.00000535,-0.00001348,-0.01726903,0.00001257,0
 .00000945,-0.00017294,-0.00046699,0.00023758,-1.28127531,0.00017005,-0
 .00058019,-0.00000394,0.00011525,0.00008169,-0.00000061,-0.00152928,-0
 .00400278,0.00001716,-0.00452898,0.00160099,0.00119420,0.00000182,0.00
 048533,-0.00085986,-0.00000038,-0.00281835,-0.00050893,-0.00000966,-0.
 00470838,-0.00564681,0.00000323,0.00001524,0.00152587,-0.00000562,-0.0
 0000817,-0.00070735,0.00000340,-0.00000427,0.00105159,-0.00001188,0.00
 000570,-0.00116683,-0.01522606,-0.03224015,-0.00000420,0.01400669,0.01
 000623,0.00000119,-4.80871464,3.05238080,0.00045948,0.00513265,0.00641
 213,-0.00000299,4.77100900,-0.03736337,0.01413184,0.00000167,-0.008840
 61,-0.00742098,0.00000036,3.07932109,-0.30466911,-0.00023940,0.0088459
 1,0.00246609,0.00000433,-3.02837258,0.30700321,-0.00000407,0.00000714,
 0.00442409,-0.00000086,-0.00000506,0.00297006,0.00046074,-0.00023523,1
 .29437163,-0.00000457,0.00000183,-0.00191116,-0.00045173,0.00023619,-1
 .27749024,-0.00058002,-0.00028946,0.00000086,0.00012575,0.00005643,-0.
 00000048,-0.00004205,0.00018168,0.00000311,0.00062736,0.00061088,-0.00
 000243,-0.00022338,-0.00094195,-0.00000086,-0.00031044,0.00018249,0.00
 021233,0.00000123,-0.00000584,0.00004444,-0.00000079,-0.00048170,-0.00
 179231,0.00000289,-0.00031265,0.00060586,-0.00000191,0.00158255,0.0017
 2832,-0.00000110,0.00006946,-0.00083963,0.00000047,-0.00000255,0.00020
 435,0.00000046,0.00000117,-0.00000905,-0.00000060,0.00000126,0.0006687
 5,0.00000080,0.00000050,0.00041148,0.00000057,-0.00000113,-0.00051209,
 -0.00000023,-0.00000014,-0.00037833,0.00001405,-0.00058492,0.00015842,
 0.00010991,0.00015972,-0.00003343,0.00017253,0.00039891,-0.00024520,0.
 00021665,-0.00015814,-0.00074247,-0.00023948,-0.00013793,0.00014026,-0
 .00004850,0.00005392,0.00020441,0.00007061,-0.00018125,0.00011984,0.00
 038960,-0.00003992,0.00005091,-0.00011837,-0.00012745,0.00082126,0.000
 61615,0.00021724,0.00115080,0.00002268,0.00028199,-0.00056006,-0.00035
 131,0.00010889,-0.00012422,-0.00018846,0.00027841,-0.00143703,0.000424
 63,0.00058541,-0.00020198,-0.00012998,-0.00031242,0.00008696,-0.000102
 13,-0.00042054,0.00032261,-0.00026356,0.00034136,0.00025760,0.00046081
 ,0.00010595,-0.00013722,0.00007577,-0.00008148,-0.00009557,0.00047840,
 -0.00024615,-0.00006933,0.00003012,-0.00058571,-0.00015014,0.00009294,
 0.00016046,0.00003470,0.00017390,0.00039812,0.00022110,0.00020261,-0.0
 0014709,0.00076381,-0.00023976,-0.00013860,-0.00013430,-0.00005245,0.0
 0005146,-0.00020718,0.00002736,0.00001042,-0.00009320,0.00008557,-0.00
 018735,0.00010433,-0.00039329,-0.00004494,0.00006275,0.00011596,-0.000
 13165,0.00081776,-0.00059799,0.00022767,0.00113976,-0.00003728,0.00028
 604,-0.00056219,0.00034659,0.00011643,-0.00011747,0.00019039,0.0000127
 2,-0.00003263,-0.00000096,0.00027307,-0.00142610,-0.00041912,-0.000592
 11,-0.00019865,0.00012858,0.00031522,0.00008717,0.00010182,0.00042357,
 0.00031393,0.00026476,-0.00033928,0.00026473,-0.00046058,-0.00010793,-
 0.00013553,-0.00007709,0.00008028,-0.00009655,0.00008560,0.00000438,-0
 .00007030,-0.00047995,0.00024713,-0.00007133,0.00841850,0.01847664,0.0
 0000425,-0.00896275,-0.00536799,-0.00000473,-0.01227838,-0.00490819,0.
 00000178,-0.00038850,-0.00127582,-0.00000682,0.02842463,-0.00262076,-0
 .00000544,0.00034358,-0.00097417,0.00000135,-0.00022106,-0.00038084,-0
 .00057019,-0.00021724,-0.00038266,0.00057763,-0.00287270,-0.00025563,-
 0.00293568,-0.00001057,0.00142133,0.00112455,0.00000480,-0.00093635,0.
 00334908,0.00001031,0.00018644,0.00024138,0.00000258,-0.00233770,-0.01
 385009,-0.00000116,0.00003908,0.00023468,0.00000013,0.00001046,0.00006
 537,0.00008303,0.00000269,0.00006244,-0.00008916,-0.00847263,0.0093703
 0,0.00001075,-0.00000531,0.00083971,-0.00001212,0.00000338,-0.00041616
 ,0.00000260,-0.00000104,0.00262264,-0.00000644,0.00000561,0.00018694,-
 0.00000615,0.00000007,-0.02541728,-0.00000142,-0.00000057,-0.00017611,
 -0.00007828,-0.00016397,-0.00006632,0.00008451,0.00016098,-0.00006273,
 0.00000997,-0.00000719,0.04153372,0.00082064,0.00177340,-0.00013541,-0
 .00067761,-0.00050970,0.00005971,-0.00078430,-0.00070775,-0.00028639,-
 0.00001111,0.00000102,-0.00000538,0.00303494,-0.00487504,0.00531076,0.
 00007941,-0.00008304,0.00004702,-0.00005800,-0.00007067,-0.00013681,-0
 .00004180,-0.00009878,0.00014400,-0.00612225,0.00516944,-0.00365848,0.
 00223939,-0.00074503,-0.00081875,0.00002895,0.00058271,0.00015623,-0.0
 0002108,0.00179162,-0.00022655,0.00020095,0.00001993,0.00011095,0.0000
 5530,-0.00399955,0.00086542,-0.00370502,0.00002336,0.00002335,-0.00000
 897,0.00000613,-0.00003102,-0.00004522,-0.00003308,-0.00002206,0.00001
 211,0.00295552,0.00116948,0.00980413,-0.00086345,-0.00171829,0.0011004
 3,0.00126828,-0.00005626,-0.00087210,-0.00024704,0.00002139,-0.0023504
 6,0.00031417,-0.00031304,-0.00001681,-0.00019018,0.00004007,0.00859824
 ,-0.00358629,0.00191853,-0.00002835,-0.00004734,-0.00000821,0.00000515
 ,0.00001705,0.00001196,-0.00003440,-0.00001424,-0.00003979,-0.00021960
 ,0.00772191,-0.00952646,-0.00376177,-0.00577715,0.00756924,0.00081489,
 0.00177460,0.00013182,-0.00067090,-0.00051079,-0.00005782,-0.00078497,
 -0.00070733,0.00028872,-0.00000669,-0.00000256,0.00000714,0.00303542,-
 0.00487616,-0.00530994,0.00008073,-0.00008246,-0.00004706,-0.00004407,
 -0.00009682,-0.00014374,-0.00006123,-0.00007055,0.00013435,-0.00612383
 ,0.00517286,0.00365505,0.00152070,0.00026186,-0.00242032,0.00223996,-0
 .00075218,-0.00081926,-0.00001562,0.00058887,0.00015658,0.00001670,0.0
 0179091,-0.00022652,-0.00021679,0.00002513,0.00010656,-0.00005420,-0.0
 0399977,0.00086756,0.00370713,0.00002520,0.00002466,0.00000778,-0.0000
 3927,-0.00002321,-0.00000898,0.00000827,-0.00002660,0.00004580,0.00295
 091,0.00116848,-0.00979609,0.00026458,0.00049126,0.00054083,-0.0008626
 6,-0.00171950,-0.00111288,-0.00126457,-0.00005523,0.00088460,0.0002448
 5,0.00002213,0.00234815,-0.00031395,-0.00032085,0.00002509,0.00018269,
 0.00004705,-0.00859465,0.00358618,0.00191922,0.00003113,0.00004893,-0.
 00000868,0.00002715,0.00001839,-0.00003841,-0.00000494,-0.00001730,0.0
 0000905,0.00021181,-0.00771468,-0.00951795,0.00242275,-0.00054399,0.00
 038257,0.00376179,0.00577345,0.00756109,-0.00157782,0.00033134,0.00083
 765,0.00000588,-0.00000417,-0.00083226,0.00165645,-0.00045012,-0.00000
 910,-0.00142668,-0.00033303,-0.00008671,0.00000310,0.00025004,0.000092
 96,-0.00000168,0.00000484,0.00023629,0.00000438,-0.00000330,-0.0000971
 5,0.00007047,-0.00068991,0.00000154,0.00009933,0.00017567,0.00000030,0
 .01323459,-0.00000456,-0.00013350,-0.00000170,-0.00003705,-0.00004231,
 0.00000038,-0.00846849,0.00135005,-0.00000595,-0.00000960,0.00048604,0
 .00000242,0.00000637,-0.00012494,-0.00000648,0.00000256,-0.00411861,0.
 00000620,0.00009472,-0.00000128,-0.00014214,0.00012665,-0.00000054,0.0
 0000861,-0.00010530,0.00000503,-0.00054233,-0.00009481,-0.00051207,0.0
 0000011,0.00024848,0.00000604,0.00000042,0.00000289,0.00002713,-0.0000
 0224,-0.00023208,-0.00005869,0.00000113,0.00000623,0.00016016,0.000001
 86,-0.00000431,-0.00006444,0.00000235,-0.00000046,-0.00007019,-0.00000
 193,0.00000067,-0.00027187,0.00033563,0.00114084,-0.00000128,-0.000383
 40,-0.00032067,-0.00000030,-0.01467138,0.00908615,0.00000561,0.0000992
 7,0.00007293,-0.00000184,0.01671274,-0.00033075,-0.00039914,0.00000031
 ,0.00018815,0.00014134,0.00000079,0.00971016,-0.00098723,-0.00000456,-
 0.00006006,0.00002752,0.00000211,-0.01100443,0.00089510,0.00000041,0.0
 0000504,0.00007626,0.00000190,-0.00000349,-0.00001177,0.00000306,-0.00
 000085,0.00425145,-0.00000162,0.00000102,-0.00003737,-0.00000313,0.000
 00195,-0.00582569,-0.00002073,-0.00004018,0.00000181,-0.00002832,0.000
 02152,-0.00000109,-0.00001460,0.00002755,0.00000053,-0.00009522,-0.000
 12046,-0.00000081,0.00004492,-0.00001644,-0.00000087,0.00001568,0.0000
 7855,-0.00002929,0.00000139,-0.00002642,-0.00000172,-0.00000121,0.0000
 0471,0.00000167,0.00000199,-0.00011051,0.00009462,-0.00000144,-0.00003
 594,-0.00000264,-0.00000125,0.00006880,-0.00001554,-0.00000085,-0.0000
 0064,-0.00000070,0.00000073,0.00000040,0.00001058,-0.00000057,0.000000
 28,0.00001230,0.00000041,-0.00000020,0.00013335,0.00000044,-0.00000036
 ,0.00000104,0.,0.00000011,-0.00004445,-0.00008177,0.00000018,0.0000465
 4,0.00000860,0.00001390,0.00000049,0.00003654,0.00000851,-0.00000158,0
 .00015255,-0.00003765,-0.00014972,-0.00002232,-0.00002174,0.00002837,0
 .00004273,0.00002759,0.00000931,-0.00030491,-0.00002621,-0.00010894,0.
 00000628,0.00002162,0.00001874,-0.00001264,0.00003373,0.00002102,-0.00
 000744,0.00002357,0.00018534,-0.00001072,-0.00005153,-0.00002653,0.000
 02338,0.00000074,-0.00000226,-0.00001148,-0.00005484,-0.00010791,0.000
 04777,0.00000652,-0.00002583,-0.00002249,-0.00001200,-0.00000167,0.000
 03586,-0.00000921,0.00001562,0.00003658,0.00014035,0.00001902,-0.00005
 957,-0.00000048,0.00002366,-0.00003160,-0.00006957,-0.00002535,0.00001
 966,0.00002655,-0.00001638,-0.00007977,-0.00000042,-0.00004432,0.00000
 604,0.00001438,-0.00000139,0.00003708,0.00000803,0.00000031,0.00015161
 ,-0.00003738,0.00014893,-0.00002282,-0.00002152,-0.00002835,0.00004315
 ,0.00002777,-0.00000941,0.00005687,0.00001619,0.00002977,-0.00030362,-
 0.00002011,-0.00012787,-0.00000779,0.00000549,0.00003176,0.00001125,0.
 00003145,0.00001964,0.00001629,0.00002585,0.00018329,0.00000668,-0.000
 04982,-0.00002979,-0.00002632,0.00000496,0.00000244,0.00001237,0.00001
 826,0.00001055,0.00000566,-0.00005336,-0.00010166,-0.00004798,-0.00000
 646,-0.00002380,0.00002272,0.00001198,-0.00000211,-0.00003604,0.000009
 29,0.00001346,-0.00003654,-0.00014003,0.00001927,0.00005974,0.00000029
 ,0.00002389,0.00003152,0.00006950,-0.00002557,-0.00002992,-0.00000600,
 0.00003432,-0.00001943,-0.00002623,-0.00001635,0.00001349,0.00050090,0
 .00000508,-0.00010872,-0.00014649,-0.00000148,0.00062502,-0.00107935,-
 0.00000617,0.00005548,0.00010277,0.00000277,0.00021279,0.00097838,0.00
 000022,0.00000253,-0.00005312,-0.00000097,-0.00005537,-0.00008027,-0.0
 0010120,-0.00005413,-0.00007627,0.00010032,0.95205225,0.00003491,-0.00
 000132,-0.00001179,-0.00000413,-0.00007631,0.00000273,-0.00041951,0.00
 058631,0.00001516,-0.00002684,0.00015812,-0.00000424,0.00009275,-0.001
 19170,-0.00000201,0.00009670,-0.00001520,0.00000196,-0.00006449,-0.000
 03433,-0.00016880,-0.00006839,-0.00004325,0.00016926,1.30469404,-0.604
 46714,0.00000339,-0.00000391,0.00005768,-0.00000548,0.00000307,0.00002
 147,-0.00000004,-0.00000102,-0.00008605,-0.00000021,-0.00000070,-0.000
 23159,-0.00000046,-0.00000025,-0.00085089,0.00000117,0.00000125,0.0000
 0736,0.00023782,0.00011916,0.00010439,-0.00023641,-0.00011868,0.000106
 11,-0.00031927,0.00075607,3.67132260,-0.00016097,-0.00044447,-0.000087
 19,0.00015900,0.00009972,0.00001017,0.00028674,0.00028218,-0.00006343,
 0.00015325,0.00004724,-0.00001701,-0.00115256,0.00028867,0.00029083,0.
 00000512,0.00000957,0.00002034,0.00010898,0.00008588,-0.00000165,0.000
 05723,0.00002998,-0.00004587,-0.47649951,-0.65191988,1.69785877,0.4428
 3822,0.00018277,0.00028078,0.00002584,-0.00009834,-0.00004197,-0.00000
 773,-0.00019005,-0.00042152,0.00003805,0.00013171,-0.00005570,0.000040
 70,0.00053436,0.00078664,-0.00029008,-0.00002149,-0.00001602,-0.000004
 77,0.00000565,0.00000766,-0.00002027,0.00010670,0.00004154,-0.00010080
 ,-0.65218689,0.30285603,0.96768779,0.65253278,-0.33716036,-0.00070215,
 -0.00027247,-0.00006653,0.00044088,-0.00008545,0.00001680,0.00054359,0
 .00024547,-0.00019039,-0.00021295,0.00008138,0.00017265,-0.00120638,0.
 00044826,0.00117475,0.00005119,-0.00005325,-0.00003444,-0.00024247,-0.
 00017551,-0.00027834,-0.00008167,-0.00004856,0.00014928,1.62204185,0.9
 2196339,-1.83541303,-1.65930286,-0.94471862,1.90018266,-0.00016119,-0.
 00044288,0.00008234,0.00015982,0.00009833,-0.00000886,0.00028758,0.000
 28232,0.00006970,0.00015271,0.00004806,0.00001427,-0.00115286,0.000289
 58,-0.00029083,0.00000472,0.00000899,-0.00001943,0.00005811,0.00003110
 ,0.00004687,0.00010836,0.00008357,0.00000148,-0.47624384,-0.65241515,-
 1.69753928,0.03420449,-0.00099720,0.03867097,0.44258210,0.00018190,0.0
 0028039,-0.00001158,-0.00009772,-0.00004180,0.00000449,-0.00019065,-0.
 00042127,-0.00005657,0.00013229,-0.00005559,-0.00003522,0.00053536,0.0
 0078643,0.00029261,-0.00002170,-0.00001606,0.00000232,0.00010463,0.000
 03665,0.00010125,0.00000801,0.00001334,0.00001921,-0.65265370,0.302228
 75,-0.96844279,-0.00101168,0.03372293,0.02261536,0.65301327,-0.3365337
 5,0.00070003,0.00027462,-0.00006731,-0.00043781,0.00008364,0.00001695,
 -0.00054358,-0.00024476,-0.00018871,0.00021305,-0.00008077,0.00017099,
 0.00120717,-0.00044805,0.00117467,-0.00005185,0.00005249,-0.00003412,0
 .00008151,0.00004842,0.00015054,0.00024197,0.00017531,-0.00027850,-1.6
 2172117,-0.92272171,-1.83503804,-0.03866210,-0.02265012,-0.06571341,1.
 65897278,0.94551092,1.89980694,-0.00005269,-0.00005721,0.00038602,0.00
 000117,0.00000211,0.00027550,-0.00007258,0.00009098,-0.00000218,0.0001
 6964,0.00001295,-0.00015862,-0.00000094,-0.00001171,0.00002887,-0.0000
 0169,0.00000153,0.00005305,0.00000062,-0.00000065,-0.00014887,-0.00017
 290,0.00017259,0.00000025,-0.00006286,-0.00007947,-0.00000001,0.000516
 12,0.00014261,0.00000226,-0.00000111,-0.00009409,0.00006315,-0.0000007
 0,-0.00028232,0.00002140,-0.00000662,-0.00000605,-0.00018243,0.0000104
 4,0.00000276,0.00000965,-0.00000116,0.00000349,0.00027562,0.00007794,-
 0.00006579,-0.00000284,-0.00007320,0.00004599,-0.00000021,0.00001537,0
 .00003108,0.00001265,-0.00030547,0.00005798,-0.00008983,0.00000159,-0.
 00004850,0.00003019,-0.00000063,-0.00000668,0.00005257,-0.00000792,-0.
 00014403,0.00002632,0.00000261,0.00000769,-0.00000546,-0.00000765,-0.0
 0000351,0.00003889,0.00000108,-0.00000421,-0.00005764,-0.00001093,0.00
 000563,0.00033611,-0.00006661,-0.00032192,-0.00000028,0.00011787,0.000
 06591,-0.00000003,-0.00004759,0.00018823,0.00000106,0.00000954,-0.0000
 0578,-0.00000091,-0.00031852,0.00006661,0.00022039,0.00000061,-0.00007
 393,-0.00002800,0.00000050,-0.00014155,-0.00030875,-0.00000178,-0.0001
 6149,-0.00002073,0.00000246,0.00069458,0.00007049,0.00000044,0.0000020
 0,-0.00007096,-0.00000178,-0.00000091,0.00003505,0.00000040,-0.0000010
 4,-0.00021407,-0.00000263,0.00000135,-0.00005230,-0.00000072,0.0000005
 1,0.00045303,-0.00004331,0.00007360,-0.00000051,0.00002785,-0.00001275
 ,0.00000048,0.00001175,-0.00003431,0.00000257,0.00003790,0.00013023,-0
 .00000139,0.00001722,0.00001461,-0.00000034,0.00005887,-0.00007889,0.0
 0005076,-0.00000020,0.00000127,0.00000743,0.00000035,0.00002530,-0.000
 03752,0.00000117,0.00016745,0.00009233,-0.00000035,0.00001141,-0.00002
 330,-0.00000007,-0.00008075,-0.00009082,0.00000142,-0.00000176,-0.0000
 6250,-0.00000029,0.00000079,0.00001515,-0.00000007,0.00000083,0.000008
 14,0.00000055,0.00000040,-0.00009681,0.00000006,-0.00000056,0.00001460
 ,-0.00000037,-0.00000034,0.00006055,0.00001019,0.00004264,-0.00003682,
 0.00001059,-0.00001719,0.00000255,-0.00002851,-0.00001226,0.00001125,0
 .00002670,0.00002102,0.00012054,-0.00000823,-0.00000516,0.00002873,-0.
 00002231,-0.00002820,-0.00001877,-0.00003982,0.00003984,-0.00000685,-0
 .00002708,0.00000654,-0.00000312,0.00000419,-0.00001846,-0.00000724,-0
 .00000349,-0.00004663,-0.00004036,0.00008128,0.00001654,-0.00000611,0.
 00001642,-0.00003167,-0.00002412,0.00001234,-0.00007104,0.00004169,-0.
 00006567,-0.00000552,-0.00001208,0.00002226,-0.00000972,-0.00000469,0.
 00001828,0.00000845,0.00001105,0.00003306,0.00002265,-0.00004104,0.000
 01084,-0.00001153,0.00003246,0.00000425,0.00002597,0.00002166,-0.00010
 499,-0.00010592,-0.00000239,0.00002442,0.00004192,0.00004263,-0.000003
 39,-0.00001689,0.00000002,-0.00002739,-0.00001279,-0.00003421,0.000013
 90,0.00003200,-0.00009714,-0.00000922,-0.00000541,-0.00002280,-0.00002
 698,-0.00003089,0.00001572,-0.00000483,0.00002375,0.00001072,-0.000025
 79,0.00002722,-0.00000402,0.00002435,0.00001737,-0.00000439,-0.0000052
 7,-0.00001915,-0.00000796,0.00001418,-0.00003788,-0.00004906,-0.000092
 09,0.00001716,-0.00000515,-0.00001907,-0.00002766,-0.00002169,-0.00001
 099,0.00002405,0.00002767,0.00002971,-0.00007744,0.00004496,0.00007108
 ,-0.00000063,-0.00001028,-0.00002382,0.00001246,-0.00000424,-0.0000185
 4,-0.00000550,0.00000382,-0.00003155,-0.00002112,-0.00003416,-0.000010
 56,0.00000947,0.00003408,-0.00000553,-0.00002707,0.00002104,-0.0000188
 2,-0.00002563,-0.00004500,0.00010268,0.00010633,-0.00000452,0.00028551
 ,0.00036808,-0.00000170,-0.00016486,-0.00008780,-0.00000224,0.00034089
 ,-0.00049006,0.00000628,0.00001506,-0.00004073,-0.00000912,-0.00059173
 ,0.00006562,-0.00000249,-0.00003469,0.00000040,0.00000223,-0.00005053,
 -0.00001932,-0.00001772,-0.00004828,-0.00002393,0.00002552,1.08571311,
 -0.00128195,-0.00169990,0.00000129,0.00065725,0.00026948,0.00000192,0.
 00081433,0.00182307,-0.00000368,0.00022463,0.00014121,0.00000617,-0.00
 233639,-0.00130764,0.00000171,-0.00004222,0.00010421,-0.00000192,0.000
 05519,-0.00005929,0.00002405,0.00005109,-0.00005339,-0.00003081,1.4652
 3461,-0.66804355,0.00000842,-0.00000216,0.00006935,-0.00000699,0.00000
 105,-0.00004041,0.00000061,0.00000056,0.00076550,-0.00000554,0.0000054
 4,-0.00055092,-0.00000052,-0.00000069,-0.00217307,-0.00000258,-0.00000
 157,0.00014406,0.00011353,0.00014471,0.00013042,-0.00010998,-0.0001465
 2,0.00013279,-0.00033618,0.00076186,3.59843226,0.00000792,-0.00017282,
 -0.00010813,0.00002266,0.00005064,0.00000840,-0.00027216,0.00028203,0.
 00004860,0.00008862,0.00000448,-0.00015954,0.00044825,-0.00022727,-0.0
 0005710,-0.00001411,0.00000587,0.00007962,0.00009319,0.00008723,0.0000
 4517,0.00001639,0.00001183,-0.00004323,-0.54286828,-0.73143139,1.78175
 840,0.54003532,0.00053820,0.00064920,0.00003423,-0.00027501,-0.0001022
 2,-0.00002426,-0.00023192,-0.00080022,0.00042602,-0.00000876,-0.000069
 29,-0.00006110,0.00083482,0.00070405,-0.00079468,0.00000456,-0.0000291
 9,0.00002934,-0.00001041,0.00006306,-0.00001585,0.00000475,0.00001141,
 -0.00003447,-0.73224475,0.33474803,1.01132043,0.72797118,-0.33375551,-
 0.00014606,-0.00006585,-0.00002789,0.00009083,-0.00002914,0.00002311,-
 0.00012278,0.00015210,-0.00030609,0.00002518,0.00005867,0.00022830,0.0
 0014266,0.00019210,0.00096979,-0.00001424,-0.00005073,-0.00006279,-0.0
 0009242,-0.00011246,-0.00010696,-0.00000153,-0.00001159,0.00001549,1.7
 8142391,1.01031249,-1.79865699,-1.78143898,-1.01066398,1.78964770,0.00
 000211,-0.00017208,0.00010842,0.00002826,0.00005033,-0.00000788,-0.000
 27274,0.00028190,-0.00005085,0.00009363,0.,0.00016245,0.00044901,-0.00
 022661,0.00005827,-0.00001219,0.00000702,-0.00008009,0.00001355,0.0000
 1323,0.00004380,0.00009115,0.00008843,-0.00004724,-0.54259619,-0.73194
 516,-1.78141917,0.00244220,0.00341734,0.00013342,0.53976121,0.00053264
 ,0.00065058,-0.00003485,-0.00027016,-0.00010276,0.00002303,-0.00023267
 ,-0.00080078,-0.00042471,-0.00000457,-0.00007335,0.00005804,0.00083544
 ,0.00070475,0.00079380,0.00000635,-0.00002809,-0.00002813,0.00000137,0
 .00001467,0.00003772,-0.00001009,0.00006162,0.00001697,-0.73276213,0.3
 3407776,-1.01208312,0.00341823,-0.00141933,0.00021840,0.72848561,-0.33
 308506,0.00013489,0.00006864,-0.00002631,-0.00008145,0.00002783,0.0000
 2330,0.00012195,-0.00015286,-0.00031354,-0.00001774,-0.00006606,0.0002
 3503,-0.00014159,-0.00019109,0.00097138,0.00001767,0.00005283,-0.00006
 308,-0.00000477,0.00001565,0.00001656,0.00009389,0.00011096,-0.0001090
 2,-1.78108850,-1.01107308,-1.79825296,-0.00013321,-0.00021566,0.008276
 33,1.78109886,1.01142285,1.78924231\\@
 The archive entry for this job was punched.


 THERE IS NOTHING NOBLE IN BEING SUPERIOR TO SOME OTHER MAN.
 TRUE NOBILITY IS BEING SUPERIOR TO YOUR FORMER SELF.

                                                   -- HINDU PROVERB
 Job cpu time:       3 days 13 hours 47 minutes  1.7 seconds.
 Elapsed time:       0 days  2 hours 10 minutes 54.7 seconds.
 File lengths (MBytes):  RWF=   4006 Int=      0 D2E=      0 Chk=     45 Scr=      1
 Normal termination of Gaussian 16 at Fri Mar 21 08:31:39 2025.
