 Entering Gaussian System, Link 0=g16
 Input=acoht_nh3_mp2_avdz_opt_anharm.gjf
 Output=acoht_nh3_mp2_avdz_opt_anharm.log
 Initial command:
 /sw/contrib/chem-src/g16/c01/g16/l1.exe "/scr/Gau-9948.inp" -scrdir="/scr/"
 Entering Link 1 = /sw/contrib/chem-src/g16/c01/g16/l1.exe PID=      9951.
  
 Copyright (c) 1988-2019, Gaussian, Inc.  All Rights Reserved.
  
 This is part of the Gaussian(R) 16 program.  It is based on
 the Gaussian(R) 09 system (copyright 2009, Gaussian, Inc.),
 the Gaussian(R) 03 system (copyright 2003, Gaussian, Inc.),
 the Gaussian(R) 98 system (copyright 1998, Gaussian, Inc.),
 the Gaussian(R) 94 system (copyright 1995, Gaussian, Inc.),
 the Gaussian 92(TM) system (copyright 1992, Gaussian, Inc.),
 the Gaussian 90(TM) system (copyright 1990, Gaussian, Inc.),
 the Gaussian 88(TM) system (copyright 1988, Gaussian, Inc.),
 the Gaussian 86(TM) system (copyright 1986, Carnegie Mellon
 University), and the Gaussian 82(TM) system (copyright 1983,
 Carnegie Mellon University). Gaussian is a federally registered
 trademark of Gaussian, Inc.
  
 This software contains proprietary and confidential information,
 including trade secrets, belonging to Gaussian, Inc.
  
 This software is provided under written license and may be
 used, copied, transmitted, or stored only in accord with that
 written license.
  
 The following legend is applicable only to US Government
 contracts under FAR:
  
                    RESTRICTED RIGHTS LEGEND
  
 Use, reproduction and disclosure by the US Government is
 subject to restrictions as set forth in subparagraphs (a)
 and (c) of the Commercial Computer Software - Restricted
 Rights clause in FAR 52.227-19.
  
 Gaussian, Inc.
 340 Quinnipiac St., Bldg. 40, Wallingford CT 06492
  
  
 ---------------------------------------------------------------
 Warning -- This program may not be used in any manner that
 competes with the business of Gaussian, Inc. or will provide
 assistance to any competitor of Gaussian, Inc.  The licensee
 of this program is prohibited from giving any competitor of
 Gaussian, Inc. access to this program.  By using this program,
 the user acknowledges that Gaussian, Inc. is engaged in the
 business of creating and licensing software in the field of
 computational chemistry and represents and warrants to the
 licensee that it is not a competitor of Gaussian, Inc. and that
 it will not use this program in any manner prohibited above.
 ---------------------------------------------------------------
  

 Cite this work as:
 Gaussian 16, Revision C.01,
 M. J. Frisch, G. W. Trucks, H. B. Schlegel, G. E. Scuseria, 
 M. A. Robb, J. R. Cheeseman, G. Scalmani, V. Barone, 
 G. A. Petersson, H. Nakatsuji, X. Li, M. Caricato, A. V. Marenich, 
 J. Bloino, B. G. Janesko, R. Gomperts, B. Mennucci, H. P. Hratchian, 
 J. V. Ortiz, A. F. Izmaylov, J. L. Sonnenberg, D. Williams-Young, 
 F. Ding, F. Lipparini, F. Egidi, J. Goings, B. Peng, A. Petrone, 
 T. Henderson, D. Ranasinghe, V. G. Zakrzewski, J. Gao, N. Rega, 
 G. Zheng, W. Liang, M. Hada, M. Ehara, K. Toyota, R. Fukuda, 
 J. Hasegawa, M. Ishida, T. Nakajima, Y. Honda, O. Kitao, H. Nakai, 
 T. Vreven, K. Throssell, J. A. Montgomery, Jr., J. E. Peralta, 
 F. Ogliaro, M. J. Bearpark, J. J. Heyd, E. N. Brothers, K. N. Kudin, 
 V. N. Staroverov, T. A. Keith, R. Kobayashi, J. Normand, 
 K. Raghavachari, A. P. Rendell, J. C. Burant, S. S. Iyengar, 
 J. Tomasi, M. Cossi, J. M. Millam, M. Klene, C. Adamo, R. Cammi, 
 J. W. Ochterski, R. L. Martin, K. Morokuma, O. Farkas, 
 J. B. Foresman, and D. J. Fox, Gaussian, Inc., Wallingford CT, 2019.
 
 ******************************************
 Gaussian 16:  EM64L-G16RevC.01  3-Jul-2019
                21-Mar-2025 
 ******************************************
 %nprocshared=40
 Will use up to   40 processors via shared memory.
 %mem=50gb
 ----------------------------------------------
 # MP2/aug-cc-pVDZ opt freq=(vibrot,anharmonic)
 ----------------------------------------------
 1/18=20,19=15,38=1,80=1/1,3;
 2/9=110,12=2,17=6,18=5,40=1/2;
 3/5=16,7=10,11=9,25=1,30=1,71=1/1,2,3;
 4//1;
 5/5=2,38=5/2;
 8/6=4,10=1/1;
 9/15=2,16=-3/6;
 10/5=1/2;
 6/7=2,8=2,9=2,10=2/1;
 7/12=2/1,2,3,16;
 1/18=20,19=15,80=1/3(2);
 2/9=110/2;
 99//99;
 2/9=110/2;
 3/5=16,7=10,11=9,25=1,30=1,71=1/1,2,3;
 4/5=5,16=3,69=1/1;
 5/5=2,38=5/2;
 8/6=4,10=1/1;
 9/15=2,16=-3/6;
 10/5=1/2;
 7/12=2/1,2,3,16;
 1/18=20,19=15,80=1/3(-8);
 2/9=110/2;
 6/7=2,8=2,9=2,10=2/1;
 99/9=10/99;
 ----
 blah
 ----
 Symbolic Z-matrix:
 Charge =  0 Multiplicity = 1
 C                    -1.00904  -0.10395   0.00064 
 O                    -2.17812  -0.4526    0.01008 
 O                    -0.00968  -1.02124  -0.01168 
 C                    -0.5643    1.34944  -0.00372 
 H                     0.87806  -0.57888  -0.01145 
 H                    -1.44756   1.9969    0.04428 
 H                     0.00211   1.56476  -0.92343 
 H                     0.09295   1.55      0.85669 
 N                     2.62653  -0.04285   0.00453 
 H                     3.16201  -0.72957  -0.52794 
 H                     3.01016  -0.0549    0.95023 
 H                     2.85902   0.86936  -0.38886 
 
 Add virtual bond connecting atoms N9         and H5         Dist= 3.46D+00.

 GradGradGradGradGradGradGradGradGradGradGradGradGradGradGradGradGradGrad
 Berny optimization.
 Initialization pass.
                           ----------------------------
                           !    Initial Parameters    !
                           ! (Angstroms and Degrees)  !
 --------------------------                            --------------------------
 ! Name  Definition              Value          Derivative Info.                !
 --------------------------------------------------------------------------------
 ! R1    R(1,2)                  1.22           estimate D2E/DX2                !
 ! R2    R(1,3)                  1.3566         estimate D2E/DX2                !
 ! R3    R(1,4)                  1.5199         estimate D2E/DX2                !
 ! R4    R(3,5)                  0.9918         estimate D2E/DX2                !
 ! R5    R(4,6)                  1.0962         estimate D2E/DX2                !
 ! R6    R(4,7)                  1.1014         estimate D2E/DX2                !
 ! R7    R(4,8)                  1.1011         estimate D2E/DX2                !
 ! R8    R(5,9)                  1.8289         estimate D2E/DX2                !
 ! R9    R(9,10)                 1.0207         estimate D2E/DX2                !
 ! R10   R(9,11)                 1.0206         estimate D2E/DX2                !
 ! R11   R(9,12)                 1.0203         estimate D2E/DX2                !
 ! A1    A(2,1,3)              120.8483         estimate D2E/DX2                !
 ! A2    A(2,1,4)              123.6201         estimate D2E/DX2                !
 ! A3    A(3,1,4)              115.5312         estimate D2E/DX2                !
 ! A4    A(1,3,5)              110.9636         estimate D2E/DX2                !
 ! A5    A(1,4,6)              109.2018         estimate D2E/DX2                !
 ! A6    A(1,4,7)              109.8656         estimate D2E/DX2                !
 ! A7    A(1,4,8)              110.278          estimate D2E/DX2                !
 ! A8    A(6,4,7)              109.6007         estimate D2E/DX2                !
 ! A9    A(6,4,8)              109.8249         estimate D2E/DX2                !
 ! A10   A(7,4,8)              108.0547         estimate D2E/DX2                !
 ! A11   A(5,9,10)             107.4459         estimate D2E/DX2                !
 ! A12   A(5,9,11)             111.3453         estimate D2E/DX2                !
 ! A13   A(5,9,12)             118.46           estimate D2E/DX2                !
 ! A14   A(10,9,11)            106.1552         estimate D2E/DX2                !
 ! A15   A(10,9,12)            106.3106         estimate D2E/DX2                !
 ! A16   A(11,9,12)            106.3904         estimate D2E/DX2                !
 ! A17   L(3,5,9,4,-1)         189.4405         estimate D2E/DX2                !
 ! A18   L(3,5,9,4,-2)         179.4491         estimate D2E/DX2                !
 ! D1    D(2,1,3,5)           -179.5808         estimate D2E/DX2                !
 ! D2    D(4,1,3,5)              0.6446         estimate D2E/DX2                !
 ! D3    D(2,1,4,6)              2.2918         estimate D2E/DX2                !
 ! D4    D(2,1,4,7)           -117.9426         estimate D2E/DX2                !
 ! D5    D(2,1,4,8)            123.0577         estimate D2E/DX2                !
 ! D6    D(3,1,4,6)           -177.9406         estimate D2E/DX2                !
 ! D7    D(3,1,4,7)             61.8251         estimate D2E/DX2                !
 ! D8    D(3,1,4,8)            -57.1746         estimate D2E/DX2                !
 ! D9    D(1,3,9,10)          -148.0027         estimate D2E/DX2                !
 ! D10   D(1,3,9,11)            97.9691         estimate D2E/DX2                !
 ! D11   D(1,3,9,12)           -27.8674         estimate D2E/DX2                !
 --------------------------------------------------------------------------------
 Trust Radius=3.00D-01 FncErr=1.00D-07 GrdErr=1.00D-07 EigMax=2.50D+02 EigMin=1.00D-04
 Number of steps in this run=     50 maximum allowed number of steps=    100.
 GradGradGradGradGradGradGradGradGradGradGradGradGradGradGradGradGradGrad

                          Input orientation:                          
 ---------------------------------------------------------------------
 Center     Atomic      Atomic             Coordinates (Angstroms)
 Number     Number       Type             X           Y           Z
 ---------------------------------------------------------------------
      1          6           0       -1.009040   -0.103949    0.000643
      2          8           0       -2.178124   -0.452596    0.010081
      3          8           0       -0.009680   -1.021242   -0.011682
      4          6           0       -0.564301    1.349442   -0.003716
      5          1           0        0.878057   -0.578882   -0.011450
      6          1           0       -1.447557    1.996901    0.044282
      7          1           0        0.002111    1.564764   -0.923434
      8          1           0        0.092952    1.549999    0.856692
      9          7           0        2.626532   -0.042847    0.004531
     10          1           0        3.162011   -0.729567   -0.527937
     11          1           0        3.010156   -0.054899    0.950233
     12          1           0        2.859024    0.869357   -0.388858
 ---------------------------------------------------------------------
                    Distance matrix (angstroms):
                    1          2          3          4          5
     1  C    0.000000
     2  O    1.220000   0.000000
     3  O    1.356576   2.241870   0.000000
     4  C    1.519920   2.419082   2.434710   0.000000
     5  H    1.945981   3.058865   0.991846   2.408088   0.000000
     6  H    2.146572   2.556352   3.343622   1.096197   3.470770
     7  H    2.158923   3.113618   2.742054   1.101393   2.488818
     8  H    2.163966   3.144030   2.715858   1.101139   2.429443
     9  N    3.636088   4.822100   2.811963   3.481372   1.828867
    10  H    4.250701   5.374311   3.226642   4.299126   2.346468
    11  H    4.130141   5.287750   3.313383   3.957137   2.396923
    12  H    4.007612   5.222985   3.456311   3.478214   2.482753
                    6          7          8          9         10
     6  H    0.000000
     7  H    1.795760   0.000000
     8  H    1.798027   1.782503   0.000000
     9  N    4.556353   3.214517   3.111650   0.000000
    10  H    5.386017   3.924964   4.066047   1.020708   0.000000
    11  H    4.990174   3.896443   3.330845   1.020620   1.631939
    12  H    4.472763   2.988530   3.108991   1.020257   1.633310
                   11         12
    11  H    0.000000
    12  H    1.634091   0.000000
 Stoichiometry    C2H7NO2
 Framework group  C1[X(C2H7NO2)]
 Deg. of freedom    30
 Full point group                 C1      NOp   1
 Largest Abelian subgroup         C1      NOp   1
 Largest concise Abelian subgroup C1      NOp   1
                         Standard orientation:                         
 ---------------------------------------------------------------------
 Center     Atomic      Atomic             Coordinates (Angstroms)
 Number     Number       Type             X           Y           Z
 ---------------------------------------------------------------------
      1          6           0       -1.009040   -0.103949    0.000643
      2          8           0       -2.178124   -0.452596    0.010081
      3          8           0       -0.009680   -1.021242   -0.011682
      4          6           0       -0.564301    1.349442   -0.003716
      5          1           0        0.878057   -0.578882   -0.011450
      6          1           0       -1.447557    1.996901    0.044282
      7          1           0        0.002111    1.564764   -0.923434
      8          1           0        0.092952    1.549999    0.856692
      9          7           0        2.626532   -0.042847    0.004531
     10          1           0        3.162011   -0.729567   -0.527937
     11          1           0        3.010156   -0.054899    0.950233
     12          1           0        2.859024    0.869357   -0.388858
 ---------------------------------------------------------------------
 Rotational constants (GHZ):           9.1645355           2.2874831           1.8705269
 Standard basis: Aug-CC-pVDZ (5D, 7F)
 There are   188 symmetry adapted cartesian basis functions of A   symmetry.
 There are   178 symmetry adapted basis functions of A   symmetry.
   178 basis functions,   292 primitive gaussians,   188 cartesian basis functions
    21 alpha electrons       21 beta electrons
       nuclear repulsion energy       179.0861115322 Hartrees.
 NAtoms=   12 NActive=   12 NUniq=   12 SFac= 1.00D+00 NAtFMM=   60 NAOKFM=F Big=F
 Integral buffers will be    131072 words long.
 Raffenetti 1 integral format.
 Two-electron integral symmetry is turned on.
 One-electron integrals computed using PRISM.
 NBasis=   178 RedAO= T EigKep=  8.80D-05  NBF=   178
 NBsUse=   178 1.00D-06 EigRej= -1.00D+00 NBFU=   178
 ExpMin= 2.97D-02 ExpMax= 1.17D+04 ExpMxC= 4.01D+02 IAcc=3 IRadAn=         5 AccDes= 0.00D+00
 Harris functional with IExCor=  205 and IRadAn=       5 diagonalized for initial guess.
 HarFok:  IExCor=  205 AccDes= 0.00D+00 IRadAn=         5 IDoV= 1 UseB2=F ITyADJ=14
 ICtDFT=  3500011 ScaDFX=  1.000000  1.000000  1.000000  1.000000
 FoFCou: FMM=F IPFlag=           0 FMFlag=      100000 FMFlg1=           0
         NFxFlg=           0 DoJE=T BraDBF=F KetDBF=T FulRan=T
         wScrn=  0.000000 ICntrl=       500 IOpCl=  0 I1Cent=   200000004 NGrid=           0
         NMat0=    1 NMatS0=      1 NMatT0=    0 NMatD0=    1 NMtDS0=    0 NMtDT0=    0
 Petite list used in FoFCou.
 Keep R1 ints in memory in canonical form, NReq=135780885.
 Requested convergence on RMS density matrix=1.00D-08 within 128 cycles.
 Requested convergence on MAX density matrix=1.00D-06.
 Requested convergence on             energy=1.00D-06.
 No special actions if energy rises.
 SCF Done:  E(RHF) =  -284.053976068     A.U. after   13 cycles
            NFock= 13  Conv=0.53D-08     -V/T= 2.0022
 ExpMin= 2.97D-02 ExpMax= 1.17D+04 ExpMxC= 4.01D+02 IAcc=3 IRadAn=         5 AccDes= 0.00D+00
 HarFok:  IExCor=  205 AccDes= 0.00D+00 IRadAn=         5 IDoV=-2 UseB2=F ITyADJ=14
 ICtDFT= 12500011 ScaDFX=  1.000000  1.000000  1.000000  1.000000
 Range of M.O.s used for correlation:     6   178
 NBasis=   178 NAE=    21 NBE=    21 NFC=     5 NFV=     0
 NROrb=    173 NOA=    16 NOB=    16 NVA=   157 NVB=   157

 **** Warning!!: The largest alpha MO coefficient is  0.28419584D+02

 Fully direct method using O(ONN) memory.
 JobTyp=1 Pass  1:  I=   6 to  21 NPSUse= 40 ParTrn=T ParDer=T DoDerP=T.
 Spin components of T(2) and E(2):
     alpha-alpha T2 =       0.3537775897D-01 E2=     -0.1130351511D+00
     alpha-beta  T2 =       0.1990603589D+00 E2=     -0.6586614757D+00
     beta-beta   T2 =       0.3537775897D-01 E2=     -0.1130351511D+00
 ANorm=    0.1126861073D+01
 E2 =    -0.8847317779D+00 EUMP2 =    -0.28493870784542D+03
          IDoAtm=111111111111
          Differentiating once with respect to electric field.
                with respect to dipole field.
          Differentiating once with respect to nuclear coordinates.
 Keep R1 ints in memory in canonical form, NReq=135792871.
          There are     1 degrees of freedom in the 1st order CPHF.  IDoFFX=0 NUNeed=     1.
 LinEq1:  Iter=  0 NonCon=     1 RMS=4.67D-03 Max=9.98D-02 NDo=     1
 AX will form     1 AO Fock derivatives at one time.
 LinEq1:  Iter=  1 NonCon=     1 RMS=1.37D-03 Max=1.92D-02 NDo=     1
 LinEq1:  Iter=  2 NonCon=     1 RMS=4.75D-04 Max=6.89D-03 NDo=     1
 LinEq1:  Iter=  3 NonCon=     1 RMS=1.43D-04 Max=2.43D-03 NDo=     1
 LinEq1:  Iter=  4 NonCon=     1 RMS=5.34D-05 Max=6.10D-04 NDo=     1
 LinEq1:  Iter=  5 NonCon=     1 RMS=1.71D-05 Max=2.35D-04 NDo=     1
 LinEq1:  Iter=  6 NonCon=     1 RMS=5.07D-06 Max=4.78D-05 NDo=     1
 LinEq1:  Iter=  7 NonCon=     1 RMS=1.05D-06 Max=1.07D-05 NDo=     1
 LinEq1:  Iter=  8 NonCon=     1 RMS=3.27D-07 Max=3.19D-06 NDo=     1
 LinEq1:  Iter=  9 NonCon=     1 RMS=1.08D-07 Max=1.52D-06 NDo=     1
 LinEq1:  Iter= 10 NonCon=     1 RMS=2.83D-08 Max=3.78D-07 NDo=     1
 LinEq1:  Iter= 11 NonCon=     1 RMS=7.69D-09 Max=8.75D-08 NDo=     1
 LinEq1:  Iter= 12 NonCon=     1 RMS=1.89D-09 Max=1.67D-08 NDo=     1
 LinEq1:  Iter= 13 NonCon=     1 RMS=5.47D-10 Max=3.51D-09 NDo=     1
 LinEq1:  Iter= 14 NonCon=     0 RMS=9.15D-11 Max=8.00D-10 NDo=     1
 Linear equations converged to 1.000D-10 1.000D-09 after    14 iterations.
 End of Minotr F.D. properties file   721 does not exist.
 End of Minotr F.D. properties file   722 does not exist.
 End of Minotr F.D. properties file   788 does not exist.

 **********************************************************************

            Population analysis using the SCF Density.

 **********************************************************************

 Orbital symmetries:
       Occupied  (A) (A) (A) (A) (A) (A) (A) (A) (A) (A) (A) (A)
                 (A) (A) (A) (A) (A) (A) (A) (A) (A)
       Virtual   (A) (A) (A) (A) (A) (A) (A) (A) (A) (A) (A) (A)
                 (A) (A) (A) (A) (A) (A) (A) (A) (A) (A) (A) (A)
                 (A) (A) (A) (A) (A) (A) (A) (A) (A) (A) (A) (A)
                 (A) (A) (A) (A) (A) (A) (A) (A) (A) (A) (A) (A)
                 (A) (A) (A) (A) (A) (A) (A) (A) (A) (A) (A) (A)
                 (A) (A) (A) (A) (A) (A) (A) (A) (A) (A) (A) (A)
                 (A) (A) (A) (A) (A) (A) (A) (A) (A) (A) (A) (A)
                 (A) (A) (A) (A) (A) (A) (A) (A) (A) (A) (A) (A)
                 (A) (A) (A) (A) (A) (A) (A) (A) (A) (A) (A) (A)
                 (A) (A) (A) (A) (A) (A) (A) (A) (A) (A) (A) (A)
                 (A) (A) (A) (A) (A) (A) (A) (A) (A) (A) (A) (A)
                 (A) (A) (A) (A) (A) (A) (A) (A) (A) (A) (A) (A)
                 (A) (A) (A) (A) (A) (A) (A) (A) (A) (A) (A) (A)
                 (A)
 The electronic state is 1-A.
 Alpha  occ. eigenvalues --  -20.58487 -20.53325 -15.60241 -11.37763 -11.25203
 Alpha  occ. eigenvalues --   -1.42639  -1.33255  -1.19258  -1.00603  -0.80253
 Alpha  occ. eigenvalues --   -0.69600  -0.67436  -0.67344  -0.64327  -0.62419
 Alpha  occ. eigenvalues --   -0.58282  -0.54373  -0.53545  -0.48014  -0.44844
 Alpha  occ. eigenvalues --   -0.42688
 Alpha virt. eigenvalues --    0.01732   0.04167   0.04266   0.05333   0.06746
 Alpha virt. eigenvalues --    0.07036   0.08697   0.10907   0.12831   0.13046
 Alpha virt. eigenvalues --    0.14497   0.15747   0.16964   0.17397   0.17419
 Alpha virt. eigenvalues --    0.18449   0.19379   0.19828   0.21493   0.21875
 Alpha virt. eigenvalues --    0.24930   0.25400   0.25585   0.28050   0.29882
 Alpha virt. eigenvalues --    0.30472   0.32171   0.32919   0.33775   0.34136
 Alpha virt. eigenvalues --    0.35212   0.36871   0.39175   0.40437   0.41183
 Alpha virt. eigenvalues --    0.41890   0.43250   0.44575   0.46903   0.47052
 Alpha virt. eigenvalues --    0.47700   0.49974   0.50051   0.51461   0.52699
 Alpha virt. eigenvalues --    0.54617   0.55272   0.56111   0.57045   0.57932
 Alpha virt. eigenvalues --    0.59341   0.60872   0.62077   0.62388   0.65387
 Alpha virt. eigenvalues --    0.66745   0.67147   0.68151   0.69464   0.70421
 Alpha virt. eigenvalues --    0.73311   0.74023   0.75645   0.76041   0.79057
 Alpha virt. eigenvalues --    0.80532   0.82988   0.87837   0.90110   0.91884
 Alpha virt. eigenvalues --    0.93749   0.95564   0.97563   0.99029   1.02558
 Alpha virt. eigenvalues --    1.03973   1.06558   1.09358   1.10900   1.12942
 Alpha virt. eigenvalues --    1.13988   1.17312   1.20976   1.22177   1.25860
 Alpha virt. eigenvalues --    1.28122   1.29033   1.30684   1.34820   1.38641
 Alpha virt. eigenvalues --    1.40842   1.43431   1.44492   1.49948   1.52779
 Alpha virt. eigenvalues --    1.61430   1.64083   1.72524   1.77265   1.77910
 Alpha virt. eigenvalues --    1.80719   1.83403   1.84073   1.84192   1.88564
 Alpha virt. eigenvalues --    1.90061   1.91043   1.93738   1.94657   2.01527
 Alpha virt. eigenvalues --    2.03270   2.06231   2.08282   2.11379   2.14615
 Alpha virt. eigenvalues --    2.19058   2.20466   2.21658   2.25449   2.27886
 Alpha virt. eigenvalues --    2.31298   2.34890   2.36289   2.37199   2.38316
 Alpha virt. eigenvalues --    2.42095   2.43940   2.47026   2.48312   2.57746
 Alpha virt. eigenvalues --    2.66572   2.69968   2.73015   2.80411   2.83719
 Alpha virt. eigenvalues --    2.86293   2.88679   2.90278   2.92720   2.94048
 Alpha virt. eigenvalues --    3.00382   3.04227   3.09957   3.31562   3.39510
 Alpha virt. eigenvalues --    3.52908   3.55195   3.71709   3.74139   3.78999
 Alpha virt. eigenvalues --    3.79346   3.82232   3.87644   3.94613   4.07800
 Alpha virt. eigenvalues --    4.16617   4.43218
          Condensed to atoms (all electrons):
               1          2          3          4          5          6
     1  C    4.520235   0.370001  -0.014077   0.319160  -0.069447  -0.043574
     2  O    0.370001   8.496089  -0.085745  -0.066535   0.002563   0.019499
     3  O   -0.014077  -0.085745   8.659086   0.004738   0.244554   0.007682
     4  C    0.319160  -0.066535   0.004738   4.470376  -0.022727   0.383457
     5  H   -0.069447   0.002563   0.244554  -0.022727   0.500894  -0.002897
     6  H   -0.043574   0.019499   0.007682   0.383457  -0.002897   1.007835
     7  H   -0.027610  -0.000507  -0.000014   0.336319   0.005433  -0.125543
     8  H   -0.034114  -0.001070  -0.000781   0.347736   0.005847  -0.134161
     9  N    0.005984  -0.000407  -0.058988  -0.000562  -0.094235  -0.003573
    10  H   -0.000856  -0.000022  -0.002962   0.001481  -0.011381  -0.000015
    11  H    0.001269   0.000008  -0.004348   0.001669  -0.012783  -0.000152
    12  H    0.005048  -0.000334  -0.004953  -0.008977  -0.005710  -0.000133
               7          8          9         10         11         12
     1  C   -0.027610  -0.034114   0.005984  -0.000856   0.001269   0.005048
     2  O   -0.000507  -0.001070  -0.000407  -0.000022   0.000008  -0.000334
     3  O   -0.000014  -0.000781  -0.058988  -0.002962  -0.004348  -0.004953
     4  C    0.336319   0.347736  -0.000562   0.001481   0.001669  -0.008977
     5  H    0.005433   0.005847  -0.094235  -0.011381  -0.012783  -0.005710
     6  H   -0.125543  -0.134161  -0.003573  -0.000015  -0.000152  -0.000133
     7  H    0.844749  -0.077452   0.016577  -0.000550   0.001444   0.001953
     8  H   -0.077452   0.871069   0.002691   0.002900  -0.003821  -0.001633
     9  N    0.016577   0.002691   6.208058   0.418304   0.424829   0.399361
    10  H   -0.000550   0.002900   0.418304   0.699461  -0.058267  -0.083777
    11  H    0.001444  -0.003821   0.424829  -0.058267   0.658438  -0.082127
    12  H    0.001953  -0.001633   0.399361  -0.083777  -0.082127   0.696339
 Mulliken charges:
               1
     1  C    0.967981
     2  O   -0.733542
     3  O   -0.744191
     4  C    0.233864
     5  H    0.459889
     6  H   -0.108424
     7  H    0.025201
     8  H    0.022790
     9  N   -0.318039
    10  H    0.035687
    11  H    0.073840
    12  H    0.084943
 Sum of Mulliken charges =  -0.00000
 Mulliken charges with hydrogens summed into heavy atoms:
               1
     1  C    0.967981
     2  O   -0.733542
     3  O   -0.284302
     4  C    0.173431
     9  N   -0.123569
 Electronic spatial extent (au):  <R**2>=            634.1926
 Charge=             -0.0000 electrons
 Dipole moment (field-independent basis, Debye):
    X=              6.9007    Y=              3.2713    Z=              0.0074  Tot=              7.6368
 Quadrupole moment (field-independent basis, Debye-Ang):
   XX=            -28.8999   YY=            -32.0959   ZZ=            -29.5177
   XY=             -3.4111   XZ=              0.0895   YZ=             -0.0161
 Traceless Quadrupole moment (field-independent basis, Debye-Ang):
   XX=              1.2713   YY=             -1.9247   ZZ=              0.6534
   XY=             -3.4111   XZ=              0.0895   YZ=             -0.0161
 Octapole moment (field-independent basis, Debye-Ang**2):
  XXX=             63.5175  YYY=              1.3709  ZZZ=              0.9569  XYY=              5.6940
  XXY=              2.4088  XXZ=             -0.1096  XZZ=              5.8349  YZZ=             -0.6965
  YYZ=             -0.9104  XYZ=              0.1342
 Hexadecapole moment (field-independent basis, Debye-Ang**3):
 XXXX=           -522.5861 YYYY=           -177.0333 ZZZZ=            -37.5844 XXXY=            -21.2495
 XXXZ=             -0.6340 YYYX=             -3.0149 YYYZ=             -0.0371 ZZZX=              3.3054
 ZZZY=             -0.1764 XXYY=           -109.8017 XXZZ=            -87.3856 YYZZ=            -35.0010
 XXYZ=              1.3512 YYXZ=             -3.0472 ZZXY=              0.7439
 N-N= 1.790861115322D+02 E-N=-1.026820420997D+03  KE= 2.834182377469D+02
 Calling FoFJK, ICntrl=  10002127 FMM=F ISym2X=0 I1Cent= 0 IOpClX= 0 NMat=1 NMatS=1 NMatT=0.
 ***** Axes restored to original set *****
 -------------------------------------------------------------------
 Center     Atomic                   Forces (Hartrees/Bohr)
 Number     Number              X              Y              Z
 -------------------------------------------------------------------
      1        6           0.000010377   -0.000002609   -0.000004863
      2        8          -0.000003834    0.000000723    0.000001631
      3        8           0.000003133    0.000007005    0.000001225
      4        6           0.000001535   -0.000003025    0.000001809
      5        1          -0.000006301    0.000005508    0.000000448
      6        1           0.000000817   -0.000000648    0.000000884
      7        1          -0.000002508   -0.000001500   -0.000000586
      8        1          -0.000002663    0.000001294    0.000000178
      9        7           0.000011943   -0.000005125   -0.000000625
     10        1           0.000000016    0.000000434    0.000000034
     11        1          -0.000005572   -0.000000808   -0.000000089
     12        1          -0.000006942   -0.000001247   -0.000000044
 -------------------------------------------------------------------
 Cartesian Forces:  Max     0.000011943 RMS     0.000003986

 GradGradGradGradGradGradGradGradGradGradGradGradGradGradGradGradGradGrad
 Berny optimization.
 FormGI is forming the generalized inverse of G from B-inverse, IUseBI=4.
 Internal  Forces:  Max     0.000010957 RMS     0.000003625
 Search for a local minimum.
 Step number   1 out of a maximum of   50
 All quantities printed in internal units (Hartrees-Bohrs-Radians)
 Mixed Optimization -- En-DIIS/RFO-DIIS
 Second derivative matrix not updated -- first step.
 ITU=  0
     Eigenvalues ---    0.00230   0.00230   0.00230   0.00502   0.00924
     Eigenvalues ---    0.02266   0.05798   0.07300   0.07356   0.08538
     Eigenvalues ---    0.10167   0.16000   0.16000   0.16000   0.16000
     Eigenvalues ---    0.16000   0.16000   0.16000   0.25000   0.25000
     Eigenvalues ---    0.30374   0.33528   0.33556   0.34106   0.44225
     Eigenvalues ---    0.44239   0.44297   0.49149   0.53646   0.95383
 RFO step:  Lambda=-5.19149239D-08 EMin= 2.30000000D-03
 Linear search not attempted -- first point.
 Iteration  1 RMS(Cart)=  0.00335965 RMS(Int)=  0.00000302
 Iteration  2 RMS(Cart)=  0.00000539 RMS(Int)=  0.00000013
 Iteration  3 RMS(Cart)=  0.00000000 RMS(Int)=  0.00000013
 Variable       Old X    -DE/DX   Delta X   Delta X   Delta X     New X
                                 (Linear)    (Quad)   (Total)
    R1        2.30547   0.00000   0.00000   0.00000   0.00000   2.30547
    R2        2.56356  -0.00001   0.00000  -0.00001  -0.00001   2.56354
    R3        2.87223  -0.00000   0.00000  -0.00001  -0.00001   2.87222
    R4        1.87432  -0.00001   0.00000  -0.00001  -0.00001   1.87430
    R5        2.07151  -0.00000   0.00000  -0.00000  -0.00000   2.07151
    R6        2.08133  -0.00000   0.00000  -0.00000  -0.00000   2.08133
    R7        2.08085  -0.00000   0.00000  -0.00000  -0.00000   2.08085
    R8        3.45606  -0.00000   0.00000  -0.00004  -0.00004   3.45601
    R9        1.92886  -0.00000   0.00000  -0.00000  -0.00000   1.92886
   R10        1.92869  -0.00000   0.00000  -0.00000  -0.00000   1.92869
   R11        1.92801  -0.00000   0.00000  -0.00001  -0.00001   1.92800
    A1        2.10920   0.00000   0.00000   0.00000   0.00000   2.10920
    A2        2.15758  -0.00000   0.00000  -0.00001  -0.00001   2.15756
    A3        2.01640   0.00000   0.00000   0.00001   0.00001   2.01641
    A4        1.93668   0.00001   0.00000   0.00004   0.00004   1.93672
    A5        1.90593  -0.00000   0.00000  -0.00001  -0.00001   1.90592
    A6        1.91752  -0.00000   0.00000  -0.00001  -0.00001   1.91750
    A7        1.92471   0.00000   0.00000   0.00002   0.00002   1.92473
    A8        1.91289   0.00000   0.00000  -0.00000  -0.00000   1.91289
    A9        1.91681  -0.00000   0.00000  -0.00001  -0.00001   1.91679
   A10        1.88591   0.00000   0.00000   0.00002   0.00002   1.88593
   A11        1.87528   0.00000   0.00000   0.00003   0.00003   1.87532
   A12        1.94334  -0.00001   0.00000  -0.00004  -0.00004   1.94330
   A13        2.06752  -0.00001   0.00000  -0.00006  -0.00006   2.06746
   A14        1.85276   0.00000   0.00000   0.00003   0.00003   1.85279
   A15        1.85547   0.00000   0.00000   0.00003   0.00003   1.85550
   A16        1.85686   0.00000   0.00000   0.00001   0.00001   1.85688
   A17        3.30636   0.00001   0.00000   0.00448   0.00448   3.31084
   A18        3.13198  -0.00000   0.00000  -0.00096  -0.00096   3.13102
    D1       -3.13428   0.00000   0.00000   0.00011   0.00011  -3.13417
    D2        0.01125   0.00000   0.00000  -0.00004  -0.00004   0.01121
    D3        0.04000  -0.00000   0.00000  -0.00005  -0.00005   0.03995
    D4       -2.05849   0.00000   0.00000  -0.00003  -0.00003  -2.05852
    D5        2.14776  -0.00000   0.00000  -0.00006  -0.00006   2.14770
    D6       -3.10565   0.00000   0.00000   0.00010   0.00010  -3.10555
    D7        1.07905   0.00000   0.00000   0.00012   0.00012   1.07917
    D8       -0.99789  -0.00000   0.00000   0.00009   0.00009  -0.99780
    D9       -2.58313  -0.00000   0.00000  -0.00036  -0.00036  -2.58350
   D10        1.70988  -0.00000   0.00000   0.00046   0.00046   1.71034
   D11       -0.48638   0.00000   0.00000  -0.00031  -0.00031  -0.48668
         Item               Value     Threshold  Converged?
 Maximum Force            0.000011     0.000450     YES
 RMS     Force            0.000004     0.000300     YES
 Maximum Displacement     0.009147     0.001800     NO 
 RMS     Displacement     0.003357     0.001200     NO 
 Predicted change in Energy=-2.595850D-08
 GradGradGradGradGradGradGradGradGradGradGradGradGradGradGradGradGradGrad

                          Input orientation:                          
 ---------------------------------------------------------------------
 Center     Atomic      Atomic             Coordinates (Angstroms)
 Number     Number       Type             X           Y           Z
 ---------------------------------------------------------------------
      1          6           0       -1.009089   -0.103685    0.000741
      2          8           0       -2.177563   -0.454357    0.010821
      3          8           0       -0.008149   -1.019240   -0.011910
      4          6           0       -0.566893    1.350472   -0.003908
      5          1           0        0.878832   -0.575382   -0.012101
      6          1           0       -1.451260    1.996381    0.044494
      7          1           0       -0.001330    1.566728   -0.923927
      8          1           0        0.090421    1.552241    0.856167
      9          7           0        2.628767   -0.044236    0.004670
     10          1           0        3.162526   -0.732186   -0.527937
     11          1           0        3.012014   -0.057764    0.950502
     12          1           0        2.863865    0.867510   -0.388225
 ---------------------------------------------------------------------
                    Distance matrix (angstroms):
                    1          2          3          4          5
     1  C    0.000000
     2  O    1.220002   0.000000
     3  O    1.356570   2.241867   0.000000
     4  C    1.519912   2.419067   2.434707   0.000000
     5  H    1.945998   3.058877   0.991839   2.408133   0.000000
     6  H    2.146557   2.556319   3.343609   1.096196   3.470806
     7  H    2.158904   3.113604   2.742089   1.101392   2.488925
     8  H    2.163970   3.144010   2.715840   1.101137   2.429456
     9  N    3.638344   4.823800   2.811447   3.486765   1.828844
    10  H    4.251692   5.374384   3.225192   4.303561   2.346473
    11  H    4.132000   5.288856   3.312409   3.962651   2.396872
    12  H    4.011768   5.227099   3.456862   3.485836   2.482692
                    6          7          8          9         10
     6  H    0.000000
     7  H    1.795756   0.000000
     8  H    1.798014   1.782516   0.000000
     9  N    4.562053   3.221010   3.117208   0.000000
    10  H    5.390712   3.930878   4.070894   1.020707   0.000000
    11  H    4.996116   3.902909   3.337172   1.020617   1.631956
    12  H    4.481283   2.997536   3.115984   1.020253   1.633323
                   11         12
    11  H    0.000000
    12  H    1.634096   0.000000
 Stoichiometry    C2H7NO2
 Framework group  C1[X(C2H7NO2)]
 Deg. of freedom    30
 Full point group                 C1      NOp   1
 Largest Abelian subgroup         C1      NOp   1
 Largest concise Abelian subgroup C1      NOp   1
                         Standard orientation:                         
 ---------------------------------------------------------------------
 Center     Atomic      Atomic             Coordinates (Angstroms)
 Number     Number       Type             X           Y           Z
 ---------------------------------------------------------------------
      1          6           0       -1.009366   -0.104417    0.000647
      2          8           0       -2.177585   -0.455941    0.010728
      3          8           0       -0.007759   -1.019242   -0.012004
      4          6           0       -0.568232    1.350063   -0.004002
      5          1           0        0.878898   -0.574737   -0.012194
      6          1           0       -1.453069    1.995326    0.044400
      7          1           0       -0.002826    1.566730   -0.924021
      8          1           0        0.088936    1.552310    0.856073
      9          7           0        2.628445   -0.042314    0.004576
     10          1           0        3.162706   -0.729875   -0.528031
     11          1           0        3.011702   -0.055563    0.950408
     12          1           0        2.862878    0.869602   -0.388319
 ---------------------------------------------------------------------
 Rotational constants (GHZ):           9.1634796           2.2852122           1.8689701
 Standard basis: Aug-CC-pVDZ (5D, 7F)
 There are   188 symmetry adapted cartesian basis functions of A   symmetry.
 There are   178 symmetry adapted basis functions of A   symmetry.
   178 basis functions,   292 primitive gaussians,   188 cartesian basis functions
    21 alpha electrons       21 beta electrons
       nuclear repulsion energy       179.0595647869 Hartrees.
 NAtoms=   12 NActive=   12 NUniq=   12 SFac= 1.00D+00 NAtFMM=   60 NAOKFM=F Big=F
 Integral buffers will be    131072 words long.
 Raffenetti 1 integral format.
 Two-electron integral symmetry is turned on.
 One-electron integrals computed using PRISM.
 NBasis=   178 RedAO= T EigKep=  8.81D-05  NBF=   178
 NBsUse=   178 1.00D-06 EigRej= -1.00D+00 NBFU=   178
 Initial guess from the checkpoint file:  "/scr/Gau-9951.chk"
 B after Tr=     0.000000   -0.000000   -0.000000
         Rot=    1.000000    0.000026   -0.000036   -0.000465 Ang=   0.05 deg.
 Keep R1 ints in memory in canonical form, NReq=135780826.
 Requested convergence on RMS density matrix=1.00D-08 within 128 cycles.
 Requested convergence on MAX density matrix=1.00D-06.
 Requested convergence on             energy=1.00D-06.
 No special actions if energy rises.
 SCF Done:  E(RHF) =  -284.053986323     A.U. after    8 cycles
            NFock=  8  Conv=0.55D-08     -V/T= 2.0022
 ExpMin= 2.97D-02 ExpMax= 1.17D+04 ExpMxC= 4.01D+02 IAcc=3 IRadAn=         5 AccDes= 0.00D+00
 HarFok:  IExCor=  205 AccDes= 0.00D+00 IRadAn=         5 IDoV=-2 UseB2=F ITyADJ=14
 ICtDFT= 12500011 ScaDFX=  1.000000  1.000000  1.000000  1.000000
 Range of M.O.s used for correlation:     6   178
 NBasis=   178 NAE=    21 NBE=    21 NFC=     5 NFV=     0
 NROrb=    173 NOA=    16 NOB=    16 NVA=   157 NVB=   157

 **** Warning!!: The largest alpha MO coefficient is  0.28295515D+02

 Fully direct method using O(ONN) memory.
 JobTyp=1 Pass  1:  I=   6 to  21 NPSUse= 40 ParTrn=T ParDer=T DoDerP=T.
 Spin components of T(2) and E(2):
     alpha-alpha T2 =       0.3537678436D-01 E2=     -0.1130328089D+00
     alpha-beta  T2 =       0.1990585561D+00 E2=     -0.6586556318D+00
     beta-beta   T2 =       0.3537678436D-01 E2=     -0.1130328089D+00
 ANorm=    0.1126859408D+01
 E2 =    -0.8847212496D+00 EUMP2 =    -0.28493870757231D+03
          IDoAtm=111111111111
          Differentiating once with respect to electric field.
                with respect to dipole field.
          Differentiating once with respect to nuclear coordinates.
 Keep R1 ints in memory in canonical form, NReq=135792812.
          There are     1 degrees of freedom in the 1st order CPHF.  IDoFFX=0 NUNeed=     1.
 LinEq1:  Iter=  0 NonCon=     1 RMS=4.67D-03 Max=9.99D-02 NDo=     1
 AX will form     1 AO Fock derivatives at one time.
 LinEq1:  Iter=  1 NonCon=     1 RMS=1.37D-03 Max=1.92D-02 NDo=     1
 LinEq1:  Iter=  2 NonCon=     1 RMS=4.75D-04 Max=6.90D-03 NDo=     1
 LinEq1:  Iter=  3 NonCon=     1 RMS=1.43D-04 Max=2.43D-03 NDo=     1
 LinEq1:  Iter=  4 NonCon=     1 RMS=5.34D-05 Max=6.11D-04 NDo=     1
 LinEq1:  Iter=  5 NonCon=     1 RMS=1.71D-05 Max=2.36D-04 NDo=     1
 LinEq1:  Iter=  6 NonCon=     1 RMS=5.07D-06 Max=4.76D-05 NDo=     1
 LinEq1:  Iter=  7 NonCon=     1 RMS=1.05D-06 Max=1.06D-05 NDo=     1
 LinEq1:  Iter=  8 NonCon=     1 RMS=3.27D-07 Max=3.19D-06 NDo=     1
 LinEq1:  Iter=  9 NonCon=     1 RMS=1.08D-07 Max=1.52D-06 NDo=     1
 LinEq1:  Iter= 10 NonCon=     1 RMS=2.83D-08 Max=3.78D-07 NDo=     1
 LinEq1:  Iter= 11 NonCon=     1 RMS=7.69D-09 Max=8.77D-08 NDo=     1
 LinEq1:  Iter= 12 NonCon=     1 RMS=1.89D-09 Max=1.67D-08 NDo=     1
 LinEq1:  Iter= 13 NonCon=     1 RMS=5.47D-10 Max=3.50D-09 NDo=     1
 LinEq1:  Iter= 14 NonCon=     0 RMS=9.17D-11 Max=8.37D-10 NDo=     1
 Linear equations converged to 1.000D-10 1.000D-09 after    14 iterations.
 End of Minotr F.D. properties file   721 does not exist.
 End of Minotr F.D. properties file   722 does not exist.
 End of Minotr F.D. properties file   788 does not exist.
 Calling FoFJK, ICntrl=  10002127 FMM=F ISym2X=0 I1Cent= 0 IOpClX= 0 NMat=1 NMatS=1 NMatT=0.
 ***** Axes restored to original set *****
 -------------------------------------------------------------------
 Center     Atomic                   Forces (Hartrees/Bohr)
 Number     Number              X              Y              Z
 -------------------------------------------------------------------
      1        6          -0.000010802   -0.000004069    0.000016412
      2        8          -0.000008040   -0.000002556   -0.000005823
      3        8          -0.000019388    0.000056872   -0.000014790
      4        6           0.000007912   -0.000014297   -0.000006906
      5        1           0.000037797   -0.000084133    0.000019785
      6        1           0.000003612    0.000003226    0.000000190
      7        1           0.000005367    0.000001457   -0.000003561
      8        1           0.000003748   -0.000000520    0.000004089
      9        7          -0.000003303    0.000047214   -0.000008470
     10        1          -0.000014050   -0.000002157   -0.000001054
     11        1          -0.000010662   -0.000001859   -0.000000298
     12        1           0.000007809    0.000000823    0.000000426
 -------------------------------------------------------------------
 Cartesian Forces:  Max     0.000084133 RMS     0.000021306

 GradGradGradGradGradGradGradGradGradGradGradGradGradGradGradGradGradGrad
 Berny optimization.
 Using GEDIIS/GDIIS optimizer.
 FormGI is forming the generalized inverse of G from B-inverse, IUseBI=4.
 Internal  Forces:  Max     0.000129359 RMS     0.000025185
 Search for a local minimum.
 Step number   2 out of a maximum of   50
 All quantities printed in internal units (Hartrees-Bohrs-Radians)
 Mixed Optimization -- En-DIIS/RFO-DIIS
 Swapping is turned off.
 Update second derivatives using D2CorX and points    1    2
 DE=  2.73D-07 DEPred=-2.60D-08 R=-1.05D+01
 Trust test=-1.05D+01 RLast= 4.63D-03 DXMaxT set to 1.50D-01
 ITU= -1  0
     Eigenvalues ---    0.00230   0.00230   0.00502   0.00917   0.02261
     Eigenvalues ---    0.02825   0.05792   0.07293   0.07357   0.08538
     Eigenvalues ---    0.10206   0.15743   0.16000   0.16000   0.16000
     Eigenvalues ---    0.16000   0.16000   0.16605   0.24985   0.25787
     Eigenvalues ---    0.30336   0.33534   0.33562   0.34104   0.44228
     Eigenvalues ---    0.44229   0.44291   0.49066   0.53572   0.95364
 En-DIIS/RFO-DIIS/Sim-DIIS IScMMF=       -3 using points:     2    1
 RFO step:  Lambda=-5.64378989D-07.
 DidBck=T Rises=T En-DIIS coefs:    0.29380    0.70620
 Iteration  1 RMS(Cart)=  0.00311899 RMS(Int)=  0.00000259
 Iteration  2 RMS(Cart)=  0.00000467 RMS(Int)=  0.00000002
 Iteration  3 RMS(Cart)=  0.00000000 RMS(Int)=  0.00000002
 Variable       Old X    -DE/DX   Delta X   Delta X   Delta X     New X
                                 (Linear)    (Quad)   (Total)
    R1        2.30547   0.00001  -0.00000   0.00000   0.00000   2.30547
    R2        2.56354  -0.00001   0.00001  -0.00001  -0.00000   2.56354
    R3        2.87222  -0.00000   0.00001  -0.00001  -0.00000   2.87222
    R4        1.87430  -0.00000   0.00001  -0.00001  -0.00000   1.87430
    R5        2.07151  -0.00000   0.00000  -0.00000  -0.00000   2.07151
    R6        2.08133   0.00001   0.00000  -0.00000   0.00000   2.08133
    R7        2.08085   0.00001   0.00000  -0.00000   0.00000   2.08085
    R8        3.45601  -0.00001   0.00003  -0.00004  -0.00001   3.45600
    R9        1.92886  -0.00001   0.00000  -0.00000  -0.00000   1.92886
   R10        1.92869  -0.00000   0.00000  -0.00000  -0.00000   1.92869
   R11        1.92800   0.00000   0.00000  -0.00000   0.00000   1.92800
    A1        2.10920   0.00003  -0.00000   0.00001   0.00001   2.10921
    A2        2.15756   0.00003   0.00001  -0.00000   0.00001   2.15757
    A3        2.01641  -0.00005  -0.00001  -0.00001  -0.00002   2.01640
    A4        1.93672  -0.00005  -0.00003   0.00001  -0.00002   1.93670
    A5        1.90592   0.00001   0.00001  -0.00000   0.00000   1.90592
    A6        1.91750   0.00000   0.00001  -0.00001  -0.00000   1.91750
    A7        1.92473  -0.00000  -0.00001   0.00001  -0.00000   1.92473
    A8        1.91289  -0.00000   0.00000  -0.00000   0.00000   1.91289
    A9        1.91679  -0.00000   0.00001  -0.00001  -0.00000   1.91679
   A10        1.88593  -0.00000  -0.00002   0.00002  -0.00000   1.88593
   A11        1.87532  -0.00002  -0.00002   0.00001  -0.00001   1.87531
   A12        1.94330  -0.00001   0.00003  -0.00003  -0.00001   1.94330
   A13        2.06746   0.00002   0.00004  -0.00003   0.00001   2.06747
   A14        1.85279   0.00000  -0.00002   0.00002  -0.00000   1.85279
   A15        1.85550   0.00000  -0.00002   0.00002   0.00000   1.85550
   A16        1.85688   0.00001  -0.00001   0.00002   0.00001   1.85689
   A17        3.31084  -0.00013  -0.00316  -0.00101  -0.00418   3.30666
   A18        3.13102   0.00002   0.00068   0.00006   0.00073   3.13175
    D1       -3.13417  -0.00000  -0.00008   0.00005  -0.00002  -3.13419
    D2        0.01121   0.00000   0.00003  -0.00001   0.00002   0.01123
    D3        0.03995   0.00000   0.00003  -0.00002   0.00002   0.03997
    D4       -2.05852   0.00000   0.00002  -0.00001   0.00001  -2.05850
    D5        2.14770   0.00000   0.00004  -0.00003   0.00002   2.14772
    D6       -3.10555  -0.00000  -0.00007   0.00004  -0.00003  -3.10558
    D7        1.07917  -0.00001  -0.00008   0.00005  -0.00003   1.07914
    D8       -0.99780  -0.00000  -0.00006   0.00003  -0.00003  -0.99783
    D9       -2.58350   0.00000   0.00026   0.00000   0.00026  -2.58324
   D10        1.71034  -0.00001  -0.00033  -0.00020  -0.00053   1.70982
   D11       -0.48668   0.00000   0.00022   0.00005   0.00027  -0.48641
         Item               Value     Threshold  Converged?
 Maximum Force            0.000129     0.000450     YES
 RMS     Force            0.000025     0.000300     YES
 Maximum Displacement     0.008551     0.001800     NO 
 RMS     Displacement     0.003121     0.001200     NO 
 Predicted change in Energy=-2.821918D-07
 GradGradGradGradGradGradGradGradGradGradGradGradGradGradGradGradGradGrad

                          Input orientation:                          
 ---------------------------------------------------------------------
 Center     Atomic      Atomic             Coordinates (Angstroms)
 Number     Number       Type             X           Y           Z
 ---------------------------------------------------------------------
      1          6           0       -1.009024   -0.103927    0.000638
      2          8           0       -2.178068   -0.452711    0.010277
      3          8           0       -0.009554   -1.021089   -0.011768
      4          6           0       -0.564466    1.349510   -0.003757
      5          1           0        0.878129   -0.578638   -0.011626
      6          1           0       -1.447797    1.996854    0.044388
      7          1           0        0.001765    1.564910   -0.923567
      8          1           0        0.092881    1.550148    0.856559
      9          7           0        2.626680   -0.042954    0.004560
     10          1           0        3.162096   -0.729735   -0.527891
     11          1           0        3.010159   -0.055127    0.950316
     12          1           0        2.859340    0.869241   -0.388744
 ---------------------------------------------------------------------
                    Distance matrix (angstroms):
                    1          2          3          4          5
     1  C    0.000000
     2  O    1.220003   0.000000
     3  O    1.356568   2.241872   0.000000
     4  C    1.519911   2.419072   2.434693   0.000000
     5  H    1.945982   3.058868   0.991839   2.408090   0.000000
     6  H    2.146559   2.556331   3.343601   1.096195   3.470767
     7  H    2.158904   3.113604   2.742060   1.101392   2.488865
     8  H    2.163968   3.144017   2.715832   1.101137   2.429422
     9  N    3.636217   4.822192   2.811893   3.481729   1.828838
    10  H    4.250790   5.374358   3.226552   4.299447   2.346458
    11  H    4.130145   5.287668   3.313209   3.957424   2.396862
    12  H    4.007856   5.223241   3.456300   3.478695   2.482693
                    6          7          8          9         10
     6  H    0.000000
     7  H    1.795756   0.000000
     8  H    1.798014   1.782517   0.000000
     9  N    4.556727   3.215093   3.111915   0.000000
    10  H    5.386363   3.925512   4.066282   1.020707   0.000000
    11  H    4.990461   3.896972   3.331097   1.020617   1.631954
    12  H    4.473314   2.989268   3.109294   1.020254   1.633324
                   11         12
    11  H    0.000000
    12  H    1.634100   0.000000
 Stoichiometry    C2H7NO2
 Framework group  C1[X(C2H7NO2)]
 Deg. of freedom    30
 Full point group                 C1      NOp   1
 Largest Abelian subgroup         C1      NOp   1
 Largest concise Abelian subgroup C1      NOp   1
                         Standard orientation:                         
 ---------------------------------------------------------------------
 Center     Atomic      Atomic             Coordinates (Angstroms)
 Number     Number       Type             X           Y           Z
 ---------------------------------------------------------------------
      1          6           0       -1.009052   -0.103985    0.000621
      2          8           0       -2.178076   -0.452834    0.010260
      3          8           0       -0.009531   -1.021091   -0.011785
      4          6           0       -0.564575    1.349477   -0.003774
      5          1           0        0.878128   -0.578591   -0.011643
      6          1           0       -1.447942    1.996771    0.044371
      7          1           0        0.001644    1.564909   -0.923584
      8          1           0        0.092761    1.550152    0.856542
      9          7           0        2.626648   -0.042809    0.004543
     10          1           0        3.162103   -0.729560   -0.527908
     11          1           0        3.010128   -0.054962    0.950299
     12          1           0        2.859257    0.869398   -0.388761
 ---------------------------------------------------------------------
 Rotational constants (GHZ):           9.1645543           2.2873538           1.8704432
 Standard basis: Aug-CC-pVDZ (5D, 7F)
 There are   188 symmetry adapted cartesian basis functions of A   symmetry.
 There are   178 symmetry adapted basis functions of A   symmetry.
   178 basis functions,   292 primitive gaussians,   188 cartesian basis functions
    21 alpha electrons       21 beta electrons
       nuclear repulsion energy       179.0850381783 Hartrees.
 NAtoms=   12 NActive=   12 NUniq=   12 SFac= 1.00D+00 NAtFMM=   60 NAOKFM=F Big=F
 Integral buffers will be    131072 words long.
 Raffenetti 1 integral format.
 Two-electron integral symmetry is turned on.
 One-electron integrals computed using PRISM.
 NBasis=   178 RedAO= T EigKep=  8.80D-05  NBF=   178
 NBsUse=   178 1.00D-06 EigRej= -1.00D+00 NBFU=   178
 Initial guess from the checkpoint file:  "/scr/Gau-9951.chk"
 B after Tr=    -0.000000   -0.000000    0.000000
         Rot=    1.000000   -0.000022    0.000026    0.000431 Ang=  -0.05 deg.
 Keep R1 ints in memory in canonical form, NReq=135780885.
 Requested convergence on RMS density matrix=1.00D-08 within 128 cycles.
 Requested convergence on MAX density matrix=1.00D-06.
 Requested convergence on             energy=1.00D-06.
 No special actions if energy rises.
 SCF Done:  E(RHF) =  -284.053977575     A.U. after    7 cycles
            NFock=  7  Conv=0.99D-08     -V/T= 2.0022
 ExpMin= 2.97D-02 ExpMax= 1.17D+04 ExpMxC= 4.01D+02 IAcc=3 IRadAn=         5 AccDes= 0.00D+00
 HarFok:  IExCor=  205 AccDes= 0.00D+00 IRadAn=         5 IDoV=-2 UseB2=F ITyADJ=14
 ICtDFT= 12500011 ScaDFX=  1.000000  1.000000  1.000000  1.000000
 Range of M.O.s used for correlation:     6   178
 NBasis=   178 NAE=    21 NBE=    21 NFC=     5 NFV=     0
 NROrb=    173 NOA=    16 NOB=    16 NVA=   157 NVB=   157

 **** Warning!!: The largest alpha MO coefficient is  0.28414090D+02

 Fully direct method using O(ONN) memory.
 JobTyp=1 Pass  1:  I=   6 to  21 NPSUse= 40 ParTrn=T ParDer=T DoDerP=T.
 Spin components of T(2) and E(2):
     alpha-alpha T2 =       0.3537760017D-01 E2=     -0.1130349789D+00
     alpha-beta  T2 =       0.1990594598D+00 E2=     -0.6586603320D+00
     beta-beta   T2 =       0.3537760017D-01 E2=     -0.1130349789D+00
 ANorm=    0.1126860533D+01
 E2 =    -0.8847302899D+00 EUMP2 =    -0.28493870786512D+03
          IDoAtm=111111111111
          Differentiating once with respect to electric field.
                with respect to dipole field.
          Differentiating once with respect to nuclear coordinates.
 Keep R1 ints in memory in canonical form, NReq=135792871.
          There are     1 degrees of freedom in the 1st order CPHF.  IDoFFX=0 NUNeed=     1.
 LinEq1:  Iter=  0 NonCon=     1 RMS=4.67D-03 Max=9.98D-02 NDo=     1
 AX will form     1 AO Fock derivatives at one time.
 LinEq1:  Iter=  1 NonCon=     1 RMS=1.37D-03 Max=1.92D-02 NDo=     1
 LinEq1:  Iter=  2 NonCon=     1 RMS=4.75D-04 Max=6.89D-03 NDo=     1
 LinEq1:  Iter=  3 NonCon=     1 RMS=1.43D-04 Max=2.43D-03 NDo=     1
 LinEq1:  Iter=  4 NonCon=     1 RMS=5.34D-05 Max=6.10D-04 NDo=     1
 LinEq1:  Iter=  5 NonCon=     1 RMS=1.71D-05 Max=2.35D-04 NDo=     1
 LinEq1:  Iter=  6 NonCon=     1 RMS=5.07D-06 Max=4.77D-05 NDo=     1
 LinEq1:  Iter=  7 NonCon=     1 RMS=1.05D-06 Max=1.07D-05 NDo=     1
 LinEq1:  Iter=  8 NonCon=     1 RMS=3.27D-07 Max=3.18D-06 NDo=     1
 LinEq1:  Iter=  9 NonCon=     1 RMS=1.08D-07 Max=1.52D-06 NDo=     1
 LinEq1:  Iter= 10 NonCon=     1 RMS=2.83D-08 Max=3.78D-07 NDo=     1
 LinEq1:  Iter= 11 NonCon=     1 RMS=7.69D-09 Max=8.75D-08 NDo=     1
 LinEq1:  Iter= 12 NonCon=     1 RMS=1.89D-09 Max=1.66D-08 NDo=     1
 LinEq1:  Iter= 13 NonCon=     1 RMS=5.47D-10 Max=3.51D-09 NDo=     1
 LinEq1:  Iter= 14 NonCon=     0 RMS=9.19D-11 Max=8.63D-10 NDo=     1
 Linear equations converged to 1.000D-10 1.000D-09 after    14 iterations.
 End of Minotr F.D. properties file   721 does not exist.
 End of Minotr F.D. properties file   722 does not exist.
 End of Minotr F.D. properties file   788 does not exist.
 Calling FoFJK, ICntrl=  10002127 FMM=F ISym2X=0 I1Cent= 0 IOpClX= 0 NMat=1 NMatS=1 NMatT=0.
 ***** Axes restored to original set *****
 -------------------------------------------------------------------
 Center     Atomic                   Forces (Hartrees/Bohr)
 Number     Number              X              Y              Z
 -------------------------------------------------------------------
      1        6           0.000004522   -0.000002492    0.000011563
      2        8          -0.000001558   -0.000000516   -0.000004168
      3        8          -0.000003907    0.000001333   -0.000004857
      4        6           0.000000592    0.000000135   -0.000003348
      5        1           0.000002175    0.000003198    0.000003760
      6        1          -0.000000085    0.000000589   -0.000000108
      7        1          -0.000000099    0.000000783   -0.000000294
      8        1          -0.000000738   -0.000000343   -0.000000042
      9        7           0.000006382   -0.000002722   -0.000003373
     10        1           0.000000389    0.000001607    0.000001059
     11        1          -0.000003964   -0.000001188    0.000000355
     12        1          -0.000003710   -0.000000386   -0.000000546
 -------------------------------------------------------------------
 Cartesian Forces:  Max     0.000011563 RMS     0.000003155

 GradGradGradGradGradGradGradGradGradGradGradGradGradGradGradGradGradGrad
 Berny optimization.
 Using GEDIIS/GDIIS optimizer.
 FormGI is forming the generalized inverse of G from B-inverse, IUseBI=4.
 Internal  Forces:  Max     0.000004830 RMS     0.000001914
 Search for a local minimum.
 Step number   3 out of a maximum of   50
 All quantities printed in internal units (Hartrees-Bohrs-Radians)
 Mixed Optimization -- En-DIIS/RFO-DIIS
 Swapping is turned off.
 Update second derivatives using D2CorX and points    2    3
 DE= -2.93D-07 DEPred=-2.82D-07 R= 1.04D+00
 Trust test= 1.04D+00 RLast= 4.29D-03 DXMaxT set to 1.50D-01
 ITU=  0 -1  0
     Eigenvalues ---    0.00230   0.00230   0.00502   0.00920   0.02262
     Eigenvalues ---    0.02799   0.05786   0.07294   0.07357   0.08569
     Eigenvalues ---    0.10208   0.15752   0.16000   0.16000   0.16000
     Eigenvalues ---    0.16000   0.16000   0.16636   0.24985   0.25830
     Eigenvalues ---    0.30338   0.33533   0.33564   0.34105   0.44224
     Eigenvalues ---    0.44229   0.44292   0.49068   0.53558   0.95360
 En-DIIS/RFO-DIIS/Sim-DIIS IScMMF=       -3 using points:     3    2    1
 RFO step:  Lambda=-1.21214445D-09.
 DidBck=T Rises=F RFO-DIIS coefs:    0.14588    0.06117    0.79295
 Iteration  1 RMS(Cart)=  0.00008447 RMS(Int)=  0.00000001
 Iteration  2 RMS(Cart)=  0.00000001 RMS(Int)=  0.00000001
 Variable       Old X    -DE/DX   Delta X   Delta X   Delta X     New X
                                 (Linear)    (Quad)   (Total)
    R1        2.30547   0.00000  -0.00000   0.00000   0.00000   2.30547
    R2        2.56354  -0.00000   0.00001  -0.00001  -0.00000   2.56354
    R3        2.87222   0.00000   0.00001  -0.00001   0.00000   2.87222
    R4        1.87430   0.00000   0.00001  -0.00001   0.00000   1.87430
    R5        2.07151   0.00000   0.00000  -0.00000   0.00000   2.07151
    R6        2.08133   0.00000   0.00000  -0.00000   0.00000   2.08133
    R7        2.08085  -0.00000   0.00000  -0.00000  -0.00000   2.08085
    R8        3.45600  -0.00000   0.00004  -0.00005  -0.00000   3.45600
    R9        1.92886  -0.00000   0.00000  -0.00000  -0.00000   1.92886
   R10        1.92869  -0.00000   0.00000  -0.00001  -0.00000   1.92869
   R11        1.92800  -0.00000   0.00000  -0.00000  -0.00000   1.92800
    A1        2.10921  -0.00000  -0.00001   0.00001  -0.00000   2.10921
    A2        2.15757  -0.00000   0.00000  -0.00001  -0.00000   2.15757
    A3        2.01640   0.00000   0.00000  -0.00000   0.00000   2.01640
    A4        1.93670   0.00000  -0.00002   0.00002   0.00000   1.93670
    A5        1.90592   0.00000   0.00000  -0.00000   0.00000   1.90593
    A6        1.91750   0.00000   0.00001  -0.00001   0.00000   1.91750
    A7        1.92473  -0.00000  -0.00001   0.00001  -0.00000   1.92473
    A8        1.91289  -0.00000   0.00000  -0.00000  -0.00000   1.91289
    A9        1.91679  -0.00000   0.00001  -0.00001  -0.00000   1.91679
   A10        1.88593   0.00000  -0.00002   0.00002   0.00000   1.88593
   A11        1.87531   0.00000  -0.00002   0.00002   0.00000   1.87531
   A12        1.94330  -0.00000   0.00004  -0.00004  -0.00000   1.94329
   A13        2.06747  -0.00000   0.00004  -0.00004  -0.00000   2.06747
   A14        1.85279   0.00000  -0.00002   0.00003   0.00000   1.85279
   A15        1.85550   0.00000  -0.00002   0.00002   0.00000   1.85550
   A16        1.85689   0.00000  -0.00002   0.00002   0.00000   1.85689
   A17        3.30666   0.00000   0.00002   0.00001   0.00003   3.30669
   A18        3.13175   0.00000   0.00013   0.00002   0.00016   3.13191
    D1       -3.13419  -0.00000  -0.00006   0.00003  -0.00003  -3.13423
    D2        0.01123   0.00000   0.00002   0.00001   0.00003   0.01126
    D3        0.03997   0.00000   0.00002   0.00001   0.00003   0.04000
    D4       -2.05850   0.00000   0.00001   0.00002   0.00003  -2.05847
    D5        2.14772   0.00000   0.00004  -0.00001   0.00003   2.14774
    D6       -3.10558  -0.00000  -0.00006   0.00002  -0.00003  -3.10561
    D7        1.07914  -0.00000  -0.00007   0.00004  -0.00003   1.07911
    D8       -0.99783  -0.00000  -0.00005   0.00001  -0.00003  -0.99786
    D9       -2.58324  -0.00000   0.00007  -0.00006   0.00000  -2.58323
   D10        1.70982  -0.00000   0.00008  -0.00009  -0.00000   1.70982
   D11       -0.48641   0.00000   0.00001  -0.00005  -0.00003  -0.48645
         Item               Value     Threshold  Converged?
 Maximum Force            0.000005     0.000450     YES
 RMS     Force            0.000002     0.000300     YES
 Maximum Displacement     0.000238     0.001800     YES
 RMS     Displacement     0.000084     0.001200     YES
 Predicted change in Energy=-9.522082D-10
 Optimization completed.
    -- Stationary point found.
                           ----------------------------
                           !   Optimized Parameters   !
                           ! (Angstroms and Degrees)  !
 --------------------------                            --------------------------
 ! Name  Definition              Value          Derivative Info.                !
 --------------------------------------------------------------------------------
 ! R1    R(1,2)                  1.22           -DE/DX =    0.0                 !
 ! R2    R(1,3)                  1.3566         -DE/DX =    0.0                 !
 ! R3    R(1,4)                  1.5199         -DE/DX =    0.0                 !
 ! R4    R(3,5)                  0.9918         -DE/DX =    0.0                 !
 ! R5    R(4,6)                  1.0962         -DE/DX =    0.0                 !
 ! R6    R(4,7)                  1.1014         -DE/DX =    0.0                 !
 ! R7    R(4,8)                  1.1011         -DE/DX =    0.0                 !
 ! R8    R(5,9)                  1.8288         -DE/DX =    0.0                 !
 ! R9    R(9,10)                 1.0207         -DE/DX =    0.0                 !
 ! R10   R(9,11)                 1.0206         -DE/DX =    0.0                 !
 ! R11   R(9,12)                 1.0203         -DE/DX =    0.0                 !
 ! A1    A(2,1,3)              120.8489         -DE/DX =    0.0                 !
 ! A2    A(2,1,4)              123.6198         -DE/DX =    0.0                 !
 ! A3    A(3,1,4)              115.531          -DE/DX =    0.0                 !
 ! A4    A(1,3,5)              110.9648         -DE/DX =    0.0                 !
 ! A5    A(1,4,6)              109.2014         -DE/DX =    0.0                 !
 ! A6    A(1,4,7)              109.8648         -DE/DX =    0.0                 !
 ! A7    A(1,4,8)              110.2788         -DE/DX =    0.0                 !
 ! A8    A(6,4,7)              109.6006         -DE/DX =    0.0                 !
 ! A9    A(6,4,8)              109.824          -DE/DX =    0.0                 !
 ! A10   A(7,4,8)              108.056          -DE/DX =    0.0                 !
 ! A11   A(5,9,10)             107.4471         -DE/DX =    0.0                 !
 ! A12   A(5,9,11)             111.3427         -DE/DX =    0.0                 !
 ! A13   A(5,9,12)             118.4573         -DE/DX =    0.0                 !
 ! A14   A(10,9,11)            106.1569         -DE/DX =    0.0                 !
 ! A15   A(10,9,12)            106.3122         -DE/DX =    0.0                 !
 ! A16   A(11,9,12)            106.3917         -DE/DX =    0.0                 !
 ! A17   L(3,5,9,4,-1)         189.4577         -DE/DX =    0.0                 !
 ! A18   L(3,5,9,4,-2)         179.4362         -DE/DX =    0.0                 !
 ! D1    D(2,1,3,5)           -179.5761         -DE/DX =    0.0                 !
 ! D2    D(4,1,3,5)              0.6434         -DE/DX =    0.0                 !
 ! D3    D(2,1,4,6)              2.2899         -DE/DX =    0.0                 !
 ! D4    D(2,1,4,7)           -117.9436         -DE/DX =    0.0                 !
 ! D5    D(2,1,4,8)            123.0551         -DE/DX =    0.0                 !
 ! D6    D(3,1,4,6)           -177.9364         -DE/DX =    0.0                 !
 ! D7    D(3,1,4,7)             61.8301         -DE/DX =    0.0                 !
 ! D8    D(3,1,4,8)            -57.1713         -DE/DX =    0.0                 !
 ! D9    D(1,3,9,10)          -148.0086         -DE/DX =    0.0                 !
 ! D10   D(1,3,9,11)            97.9654         -DE/DX =    0.0                 !
 ! D11   D(1,3,9,12)           -27.8695         -DE/DX =    0.0                 !
 --------------------------------------------------------------------------------
 GradGradGradGradGradGradGradGradGradGradGradGradGradGradGradGradGradGrad

                          Input orientation:                          
 ---------------------------------------------------------------------
 Center     Atomic      Atomic             Coordinates (Angstroms)
 Number     Number       Type             X           Y           Z
 ---------------------------------------------------------------------
      1          6           0       -1.009024   -0.103927    0.000638
      2          8           0       -2.178068   -0.452711    0.010277
      3          8           0       -0.009554   -1.021089   -0.011768
      4          6           0       -0.564466    1.349510   -0.003757
      5          1           0        0.878129   -0.578638   -0.011626
      6          1           0       -1.447797    1.996854    0.044388
      7          1           0        0.001765    1.564910   -0.923567
      8          1           0        0.092881    1.550148    0.856559
      9          7           0        2.626680   -0.042954    0.004560
     10          1           0        3.162096   -0.729735   -0.527891
     11          1           0        3.010159   -0.055127    0.950316
     12          1           0        2.859340    0.869241   -0.388744
 ---------------------------------------------------------------------
                    Distance matrix (angstroms):
                    1          2          3          4          5
     1  C    0.000000
     2  O    1.220003   0.000000
     3  O    1.356568   2.241872   0.000000
     4  C    1.519911   2.419072   2.434693   0.000000
     5  H    1.945982   3.058868   0.991839   2.408090   0.000000
     6  H    2.146559   2.556331   3.343601   1.096195   3.470767
     7  H    2.158904   3.113604   2.742060   1.101392   2.488865
     8  H    2.163968   3.144017   2.715832   1.101137   2.429422
     9  N    3.636217   4.822192   2.811893   3.481729   1.828838
    10  H    4.250790   5.374358   3.226552   4.299447   2.346458
    11  H    4.130145   5.287668   3.313209   3.957424   2.396862
    12  H    4.007856   5.223241   3.456300   3.478695   2.482693
                    6          7          8          9         10
     6  H    0.000000
     7  H    1.795756   0.000000
     8  H    1.798014   1.782517   0.000000
     9  N    4.556727   3.215093   3.111915   0.000000
    10  H    5.386363   3.925512   4.066282   1.020707   0.000000
    11  H    4.990461   3.896972   3.331097   1.020617   1.631954
    12  H    4.473314   2.989268   3.109294   1.020254   1.633324
                   11         12
    11  H    0.000000
    12  H    1.634100   0.000000
 Stoichiometry    C2H7NO2
 Framework group  C1[X(C2H7NO2)]
 Deg. of freedom    30
 Full point group                 C1      NOp   1
 Largest Abelian subgroup         C1      NOp   1
 Largest concise Abelian subgroup C1      NOp   1
                         Standard orientation:                         
 ---------------------------------------------------------------------
 Center     Atomic      Atomic             Coordinates (Angstroms)
 Number     Number       Type             X           Y           Z
 ---------------------------------------------------------------------
      1          6           0       -1.009052   -0.103985    0.000621
      2          8           0       -2.178076   -0.452834    0.010260
      3          8           0       -0.009531   -1.021091   -0.011785
      4          6           0       -0.564575    1.349477   -0.003774
      5          1           0        0.878128   -0.578591   -0.011643
      6          1           0       -1.447942    1.996771    0.044371
      7          1           0        0.001644    1.564909   -0.923584
      8          1           0        0.092761    1.550152    0.856542
      9          7           0        2.626648   -0.042809    0.004543
     10          1           0        3.162103   -0.729560   -0.527908
     11          1           0        3.010128   -0.054962    0.950299
     12          1           0        2.859257    0.869398   -0.388761
 ---------------------------------------------------------------------
 Rotational constants (GHZ):           9.1645543           2.2873538           1.8704432

 **********************************************************************

            Population analysis using the SCF Density.

 **********************************************************************

 Orbital symmetries:
       Occupied  (A) (A) (A) (A) (A) (A) (A) (A) (A) (A) (A) (A)
                 (A) (A) (A) (A) (A) (A) (A) (A) (A)
       Virtual   (A) (A) (A) (A) (A) (A) (A) (A) (A) (A) (A) (A)
                 (A) (A) (A) (A) (A) (A) (A) (A) (A) (A) (A) (A)
                 (A) (A) (A) (A) (A) (A) (A) (A) (A) (A) (A) (A)
                 (A) (A) (A) (A) (A) (A) (A) (A) (A) (A) (A) (A)
                 (A) (A) (A) (A) (A) (A) (A) (A) (A) (A) (A) (A)
                 (A) (A) (A) (A) (A) (A) (A) (A) (A) (A) (A) (A)
                 (A) (A) (A) (A) (A) (A) (A) (A) (A) (A) (A) (A)
                 (A) (A) (A) (A) (A) (A) (A) (A) (A) (A) (A) (A)
                 (A) (A) (A) (A) (A) (A) (A) (A) (A) (A) (A) (A)
                 (A) (A) (A) (A) (A) (A) (A) (A) (A) (A) (A) (A)
                 (A) (A) (A) (A) (A) (A) (A) (A) (A) (A) (A) (A)
                 (A) (A) (A) (A) (A) (A) (A) (A) (A) (A) (A) (A)
                 (A) (A) (A) (A) (A) (A) (A) (A) (A) (A) (A) (A)
                 (A)
 The electronic state is 1-A.
 Alpha  occ. eigenvalues --  -20.58487 -20.53324 -15.60241 -11.37763 -11.25203
 Alpha  occ. eigenvalues --   -1.42639  -1.33255  -1.19257  -1.00603  -0.80254
 Alpha  occ. eigenvalues --   -0.69600  -0.67436  -0.67345  -0.64327  -0.62419
 Alpha  occ. eigenvalues --   -0.58281  -0.54373  -0.53544  -0.48014  -0.44844
 Alpha  occ. eigenvalues --   -0.42688
 Alpha virt. eigenvalues --    0.01732   0.04167   0.04266   0.05333   0.06745
 Alpha virt. eigenvalues --    0.07036   0.08697   0.10908   0.12831   0.13045
 Alpha virt. eigenvalues --    0.14497   0.15747   0.16964   0.17397   0.17419
 Alpha virt. eigenvalues --    0.18449   0.19379   0.19828   0.21493   0.21875
 Alpha virt. eigenvalues --    0.24930   0.25400   0.25585   0.28049   0.29882
 Alpha virt. eigenvalues --    0.30471   0.32171   0.32919   0.33776   0.34136
 Alpha virt. eigenvalues --    0.35211   0.36872   0.39176   0.40438   0.41184
 Alpha virt. eigenvalues --    0.41888   0.43252   0.44575   0.46903   0.47051
 Alpha virt. eigenvalues --    0.47700   0.49973   0.50052   0.51461   0.52699
 Alpha virt. eigenvalues --    0.54616   0.55272   0.56112   0.57045   0.57932
 Alpha virt. eigenvalues --    0.59341   0.60872   0.62076   0.62388   0.65384
 Alpha virt. eigenvalues --    0.66745   0.67146   0.68152   0.69464   0.70421
 Alpha virt. eigenvalues --    0.73308   0.74023   0.75645   0.76038   0.79057
 Alpha virt. eigenvalues --    0.80533   0.82988   0.87836   0.90110   0.91886
 Alpha virt. eigenvalues --    0.93749   0.95561   0.97564   0.99030   1.02559
 Alpha virt. eigenvalues --    1.03976   1.06557   1.09358   1.10898   1.12944
 Alpha virt. eigenvalues --    1.13988   1.17312   1.20975   1.22176   1.25858
 Alpha virt. eigenvalues --    1.28123   1.29033   1.30680   1.34820   1.38642
 Alpha virt. eigenvalues --    1.40841   1.43429   1.44491   1.49950   1.52779
 Alpha virt. eigenvalues --    1.61430   1.64086   1.72526   1.77267   1.77910
 Alpha virt. eigenvalues --    1.80713   1.83402   1.84077   1.84191   1.88562
 Alpha virt. eigenvalues --    1.90061   1.91043   1.93734   1.94652   2.01523
 Alpha virt. eigenvalues --    2.03270   2.06227   2.08284   2.11378   2.14614
 Alpha virt. eigenvalues --    2.19059   2.20464   2.21657   2.25449   2.27888
 Alpha virt. eigenvalues --    2.31299   2.34890   2.36290   2.37199   2.38318
 Alpha virt. eigenvalues --    2.42095   2.43938   2.47025   2.48312   2.57742
 Alpha virt. eigenvalues --    2.66572   2.69968   2.73016   2.80410   2.83719
 Alpha virt. eigenvalues --    2.86293   2.88678   2.90274   2.92722   2.94050
 Alpha virt. eigenvalues --    3.00380   3.04228   3.09959   3.31560   3.39509
 Alpha virt. eigenvalues --    3.52907   3.55193   3.71709   3.74139   3.78999
 Alpha virt. eigenvalues --    3.79346   3.82232   3.87645   3.94613   4.07802
 Alpha virt. eigenvalues --    4.16617   4.43217
          Condensed to atoms (all electrons):
               1          2          3          4          5          6
     1  C    4.520248   0.369993  -0.014054   0.319148  -0.069481  -0.043565
     2  O    0.369993   8.496107  -0.085742  -0.066533   0.002563   0.019506
     3  O   -0.014054  -0.085742   8.659058   0.004740   0.244549   0.007680
     4  C    0.319148  -0.066533   0.004740   4.470424  -0.022740   0.383445
     5  H   -0.069481   0.002563   0.244549  -0.022740   0.500947  -0.002899
     6  H   -0.043565   0.019506   0.007680   0.383445  -0.002899   1.007735
     7  H   -0.027612  -0.000509  -0.000019   0.336349   0.005434  -0.125509
     8  H   -0.034100  -0.001074  -0.000782   0.347750   0.005848  -0.134125
     9  N    0.005974  -0.000406  -0.059003  -0.000537  -0.094279  -0.003570
    10  H   -0.000855  -0.000023  -0.002962   0.001481  -0.011384  -0.000015
    11  H    0.001266   0.000008  -0.004346   0.001670  -0.012784  -0.000153
    12  H    0.005047  -0.000334  -0.004955  -0.008975  -0.005710  -0.000133
               7          8          9         10         11         12
     1  C   -0.027612  -0.034100   0.005974  -0.000855   0.001266   0.005047
     2  O   -0.000509  -0.001074  -0.000406  -0.000023   0.000008  -0.000334
     3  O   -0.000019  -0.000782  -0.059003  -0.002962  -0.004346  -0.004955
     4  C    0.336349   0.347750  -0.000537   0.001481   0.001670  -0.008975
     5  H    0.005434   0.005848  -0.094279  -0.011384  -0.012784  -0.005710
     6  H   -0.125509  -0.134125  -0.003570  -0.000015  -0.000153  -0.000133
     7  H    0.844687  -0.077467   0.016570  -0.000548   0.001444   0.001951
     8  H   -0.077467   0.871028   0.002694   0.002898  -0.003818  -0.001632
     9  N    0.016570   0.002694   6.208052   0.418312   0.424835   0.399376
    10  H   -0.000548   0.002898   0.418312   0.699456  -0.058266  -0.083781
    11  H    0.001444  -0.003818   0.424835  -0.058266   0.658459  -0.082141
    12  H    0.001951  -0.001632   0.399376  -0.083781  -0.082141   0.696374
 Mulliken charges:
               1
     1  C    0.967990
     2  O   -0.733556
     3  O   -0.744163
     4  C    0.233777
     5  H    0.459935
     6  H   -0.108397
     7  H    0.025229
     8  H    0.022779
     9  N   -0.318019
    10  H    0.035688
    11  H    0.073824
    12  H    0.084914
 Sum of Mulliken charges =  -0.00000
 Mulliken charges with hydrogens summed into heavy atoms:
               1
     1  C    0.967990
     2  O   -0.733556
     3  O   -0.284228
     4  C    0.173388
     9  N   -0.123593
 Electronic spatial extent (au):  <R**2>=            634.2190
 Charge=             -0.0000 electrons
 Dipole moment (field-independent basis, Debye):
    X=              6.9002    Y=              3.2717    Z=              0.0070  Tot=              7.6366
 Quadrupole moment (field-independent basis, Debye-Ang):
   XX=            -28.8988   YY=            -32.0960   ZZ=            -29.5176
   XY=             -3.4120   XZ=              0.0907   YZ=             -0.0160
 Traceless Quadrupole moment (field-independent basis, Debye-Ang):
   XX=              1.2720   YY=             -1.9252   ZZ=              0.6532
   XY=             -3.4120   XZ=              0.0907   YZ=             -0.0160
 Octapole moment (field-independent basis, Debye-Ang**2):
  XXX=             63.5179  YYY=              1.3704  ZZZ=              0.9572  XYY=              5.6950
  XXY=              2.4123  XXZ=             -0.1120  XZZ=              5.8352  YZZ=             -0.6965
  YYZ=             -0.9100  XYZ=              0.1337
 Hexadecapole moment (field-independent basis, Debye-Ang**3):
 XXXX=           -522.6105 YYYY=           -177.0346 ZZZZ=            -37.5841 XXXY=            -21.2543
 XXXZ=             -0.6286 YYYX=             -3.0122 YYYZ=             -0.0353 ZZZX=              3.3115
 ZZZY=             -0.1759 XXYY=           -109.8065 XXZZ=            -87.3914 YYZZ=            -35.0004
 XXYZ=              1.3525 YYXZ=             -3.0455 ZZXY=              0.7434
 N-N= 1.790850381783D+02 E-N=-1.026818354537D+03  KE= 2.834182899919D+02
 Unable to Open any file for archive entry.
 1\1\GINC-N3185\FOpt\RMP2-FC\Aug-CC-pVDZ\C2H7N1O2\GDS001\21-Mar-2025\0\
 \# MP2/aug-cc-pVDZ opt freq=(vibrot,anharmonic)\\blah\\0,1\C,-1.009023
 5851,-0.1039274601,0.0006377364\O,-2.1780676114,-0.4527112362,0.010277
 214\O,-0.0095542135,-1.0210887059,-0.0117678552\C,-0.5644663141,1.3495
 099302,-0.0037570233\H,0.8781290477,-0.5786379909,-0.0116263548\H,-1.4
 477967032,1.9968536127,0.0443876007\H,0.0017651891,1.5649101511,-0.923
 5665924\H,0.0928807233,1.5501480979,0.8565585128\N,2.6266798735,-0.042
 9539517,0.0045600076\H,3.162096433,-0.7297346883,-0.5278907703\H,3.010
 1586311,-0.0551274637,0.9503160252\H,2.8593395296,0.8692407049,-0.3887
 435007\\Version=EM64L-G16RevC.01\State=1-A\HF=-284.0539776\MP2=-284.93
 87079\RMSD=9.930e-09\RMSF=3.155e-06\Dipole=2.5400697,1.1360625,0.00317
 93\PG=C01 [X(C2H7N1O2)]\\@
 The archive entry for this job was punched.


 KNOWING HOW CONTENTED, FREE, AND JOYFUL IS LIFE IN
 THE REALMS OF SCIENCE, ONE FERVENTLY WISHES THAT
 MANY WOULD ENTER HER PORTALS.
   --  DMITRI IVANOVICH MENDELEEV
 "FIRST PRINCIPLES OF CHEMISTRY", LONGMANS, GREEN,
 AND CO.  LONDON, 1891
 Job cpu time:       0 days  0 hours 31 minutes 33.6 seconds.
 Elapsed time:       0 days  0 hours  1 minutes  0.3 seconds.
 File lengths (MBytes):  RWF=     20 Int=      0 D2E=      0 Chk=      4 Scr=      1
 Normal termination of Gaussian 16 at Fri Mar 21 06:35:21 2025.
 Link1:  Proceeding to internal job step number  2.
 ----------------------------------------------------------------------
 #N Geom=AllCheck Guess=TCheck SCRF=Check GenChk RMP2(FC)/Aug-CC-pVDZ F
 req
 ----------------------------------------------------------------------
 1/10=4,29=7,30=1,38=21,40=1,80=1/1,6,3;
 2/12=2,40=1/2;
 3/5=16,7=10,11=1,14=-4,25=1,30=1,70=2,71=2,116=1,140=1/1,2,3;
 4/5=101,69=2/1;
 5/5=2,38=6,98=1/2;
 8/6=3,8=1,10=1,19=11,30=-1/1;
 9/15=3,16=-3/6;
 11/6=1,8=1,15=11,17=12,24=-1,27=1,28=-2,29=300,32=6,42=3/1,2,10;
 10/6=2,21=1,60=-2/2;
 8/6=4,8=1,10=1,19=11,30=-1/11,4;
 10/5=1,20=4,60=-2/2;
 11/12=2,14=11,16=1,17=2,28=-2,42=3,76=2/2,10,12;
 6/7=2,8=2,9=2,10=2,22=-1/1;
 7/10=1,12=2,25=1,44=2,70=1,71=2/1,2,3,16;
 1/38=20,80=1/6(3);
 7/8=1,25=202,44=-1,70=1,71=1,92=10/16,17;
 1/10=4,30=1,38=20,80=1/3;
 99//99;
 3/5=16,7=10,11=1,14=-2,25=1,30=1,70=5,71=2,116=1,140=1/1,2,3;
 4/5=5,16=3,69=2/1;
 5/5=2,38=5,98=1/2;
 8/6=3,8=1,10=1,19=11,30=-1/1;
 9/15=3,16=-3/6;
 11/6=1,8=1,15=11,17=12,24=-1,27=1,28=-2,29=300,32=6,42=3/1,2,10;
 10/6=2,21=1,60=-2/2;
 8/6=4,8=1,10=1,19=11,30=-1/11,4;
 10/5=1,20=4,60=-2/2;
 11/12=2,14=11,16=1,17=2,28=-2,42=3,76=2/2,10,12;
 6/7=2,8=2,9=2,10=2,22=-1/1;
 7/7=1,10=1,12=2,25=1,44=2,70=1,71=1/1,2,3,16;
 1/38=20,80=1/6(-12);
 7/8=1,25=202,44=-1,70=1,71=1,92=10/16,17;
 1/10=4,30=1,38=20,80=1/3;
 99//99;
 Structure from the checkpoint file:  "/scr/Gau-9951.chk"
 ----
 blah
 ----
 Charge =  0 Multiplicity = 1
 Redundant internal coordinates found in file.  (old form).
 C,0,-1.0090235851,-0.1039274601,0.0006377364
 O,0,-2.1780676114,-0.4527112362,0.010277214
[...]
 003972,-0.00007496,-0.00007114,0.00002303,-0.00001676,-0.00001619,-0.0
 0001589,0.00003253,-0.00162363,0.00000542,-0.00000593,-0.00002419,0.00
 002604,-0.00002566,0.00001917,-0.00015537,0.00007610,0.00007534,-0.031
 16039,0.03444619,1.54486706,0.00025503,-0.00005885,-0.00006726,-0.0000
 7505,-0.00001384,0.00001919,-0.00015760,-0.00013817,-0.00009270,-0.000
 04685,0.00005493,0.00008861,0.00037004,0.00035345,0.00028456,0.0000021
 3,0.00001481,-0.00002087,0.00002729,-0.00003200,-0.00005061,0.00004823
 ,-0.00003952,-0.00005496,-0.22364384,0.70177977,0.54116002,0.19224568,
 -0.00078268,0.00073498,-0.00005015,0.00040577,-0.00010196,0.00001293,0
 .00073668,-0.00052593,-0.00011760,-0.00005498,-0.00006278,-0.00007259,
 -0.00186971,0.00038443,0.00066695,0.00003305,-0.00002296,0.00002063,-0
 .00003049,0.00008204,-0.00001354,0.00004194,0.00000591,0.00001190,0.66
 614524,-0.56905813,-0.66499953,-0.68682685,0.57363248,-0.00053193,0.00
 043001,-0.00001700,0.00029063,-0.00004209,0.00000167,0.00048929,-0.000
 26858,-0.00011120,-0.00004952,-0.00003012,0.00002255,-0.00121332,0.000
 08476,0.00056929,0.00003084,-0.00000430,0.00000752,-0.00008318,0.00008
 860,-0.00011344,0.00006260,-0.00004816,-0.00001707,0.51594957,-0.66838
 702,-0.22971748,-0.52868584,0.68056924,0.22421001,0.00017684,-0.000029
 73,0.00003818,-0.00005496,0.00000188,-0.00001528,-0.00011750,-0.000034
 14,0.00010380,0.00005349,0.00000772,0.00003434,0.00019622,0.00007809,-
 0.00044799,0.00000152,0.00000913,-0.00001763,-0.00000688,-0.00000679,-
 0.00007018,-0.00001138,-0.00002161,0.00002337,0.03403467,0.01345007,-0
 .68060747,0.01644390,0.00339118,0.01962601,-0.06461280,-0.00005777,0.0
 0012336,0.00000181,0.00002296,-0.00002775,-0.00000376,0.00006654,-0.00
 009112,0.00004757,-0.00001432,-0.00004615,-0.00008584,-0.00013856,0.00
 002962,-0.00021088,0.00000297,0.00000097,0.00001508,0.00004607,-0.0000
 3048,0.00006390,-0.00005081,0.00005680,0.00003631,0.01017829,0.2819121
 8,0.01427948,-0.00738830,0.00930669,-0.02887259,-0.01416914,-0.2976895
 7,0.00093372,-0.00074964,-0.00009885,-0.00049020,0.00006477,-0.0000023
 5,-0.00076173,0.00043220,-0.00009808,0.00001398,0.00012424,0.00010617,
 0.00174018,0.00052776,0.00135574,-0.00005709,-0.00000520,-0.00004290,0
 .00009515,-0.00006483,0.00009958,0.00004372,-0.00010629,-0.00015008,-0
 .63758989,0.02099563,-1.31747416,-0.01172111,0.00614433,-0.01017711,0.
 65459448,-0.02105619,1.33143600,0.00010371,-0.00012565,0.00000500,-0.0
 0006788,0.00000858,-0.00000185,-0.00009900,0.00016960,-0.00008570,-0.0
 0008228,-0.00001653,-0.00004433,0.00012701,-0.00063306,0.00029473,0.00
 000646,0.00003806,0.00001534,0.00001567,-0.00003263,0.00002040,-0.0000
 4700,0.00004594,0.00007759,0.19398820,-0.38985349,0.17069644,0.0145310
 6,0.01881086,-0.00588516,0.01389689,0.01150208,-0.00680120,-0.22237284
 ,0.00092394,-0.00065593,-0.00003874,-0.00039486,0.00009537,-0.00002187
 ,-0.00068891,0.00022094,0.00017215,0.00007040,0.00024959,0.00009224,0.
 00116074,0.00116368,-0.00035335,-0.00006852,-0.00002581,-0.00003624,-0
 .00001755,-0.00007519,0.00006357,0.00009988,-0.00017538,-0.00010477,-0
 .35078929,-1.16023779,0.61622821,-0.00770540,-0.01437477,0.01648027,-0
 .00267666,0.00645543,-0.00630679,0.36008624,1.16735986,-0.00041303,0.0
 0029443,0.00000007,0.00018489,-0.00004637,0.00000207,0.00031290,-0.000
 07567,-0.00009802,0.00005588,-0.00009838,-0.00004763,-0.00050054,-0.00
 061436,0.00034337,0.00002254,0.00001153,0.00002193,-0.00001406,0.00003
 226,-0.00004727,-0.00005321,0.00008442,0.00007338,0.15281656,0.6129742
 8,0.00380321,-0.00085906,-0.02217257,0.01534225,0.00673838,0.03578512,
 -0.00495397,-0.15829126,-0.62617468,-0.01443941,-0.00109907,-0.0006097
 8,0.00021992,0.00092042,-0.00000744,-0.00021954,0.00124849,0.00063039,
 -0.00074380,-0.00102832,0.00036114,0.00008757,-0.00022238,-0.00034971,
 -0.00009283,-0.00049310,-0.00008920,0.00039516,0.00049069,0.00016482,-
 0.00042374,-0.00050240,0.00002071,-0.00008546,-0.00006237,0.00005838,0
 .00001797,0.00127876,0.00014482,-0.00008022,0.00010459,-0.00001778,0.0
 0004372,-0.00008596,0.00017733,0.00021530,-0.00016909,-0.00014135,-0.0
 0016207,0.00002165,0.00011129,0.00003925,0.00021286,0.00005299,0.00031
 447,0.00014657,-0.00000539,-0.00007009,-0.00012951,-0.00010134,0.00000
 766,0.00000840,-0.00005781,0.00004816,-0.00049942,0.00016039,-0.000208
 56,0.00012345,-0.00021268,-0.00005006,0.00001764,-0.00005693,0.0000480
 8,-0.00004451,0.00022507,0.00009378,-0.00024235,0.00014578,0.00013621,
 0.00020720,-0.00007138,-0.00004805,-0.00003094,0.00000677,-0.00001010,
 -0.00009187,-0.00021387,-0.00014999,0.00016292,0.00008272,-0.00000326,
 0.00007764,0.00000792,-0.00001077,-0.00044233,-0.00040619,-0.00007325,
 0.00007214,-0.00003255,-0.00000764,-0.00067573,-0.00009939,-0.00005107
 ,-0.00005153,-0.00006246,0.00001390,0.00000424,-0.00043431,-0.00043519
 ,0.00000104,0.00008179,-0.00005693,0.00002761,0.00076928,0.00098151,-0
 .00008163,0.00009157,-0.00014443,0.00004650,0.00001432,-0.00001803,-0.
 00013358,-0.00010608,-0.00025607,-0.00002792,-0.00001000,0.00000748,0.
 00018050,-0.00003427,0.00072945,-0.00009108,0.00003808,0.00002650,0.00
 001869,-0.00000900,0.00000091,0.00000003,0.00000417,-0.00001061,0.0000
 9922,-0.00002079,0.00006217,0.00001055,-0.00000593,0.00001041,-0.00003
 335,-0.00002731,0.00002211,0.00001631,-0.00001768,-0.00000129,0.000006
 19,-0.00002012,0.00001381,-0.00000592,0.00004262,-0.00000944,-0.000010
 38,-0.00000315,0.00001167,0.00000366,0.00000098,-0.00001021,0.00000383
 ,0.00001888,-0.00002206,0.00000577,-0.00000010,0.00001936,0.00000287,-
 0.00000518,-0.00000901,0.00003809,0.00001688,0.00001144,0.00000822,0.0
 0000436,0.00002063,-0.00005054,-0.00000090,-0.00000611,-0.00000520,-0.
 00001326,0.00003599,-0.00001318,0.00000135,-0.00002103,0.00000779,0.00
 000302,0.00000893,0.00003963,-0.00000695,0.00003071,0.00001116,0.00001
 257,0.00000579,0.00001572,0.00000448,-0.00001219,-0.00005392,0.0000217
 8,-0.00003579,-0.00000323,-0.00002856,0.00001821,-0.00001264,0.0000331
 7,-0.00000537,0.00001552,-0.00005402,0.00012572,0.00007791,-0.00002623
 ,-0.00002666,-0.00000727,-0.00000633,-0.00001399,0.00000519,0.00005905
 ,-0.00007487,0.00000050,0.00001682,-0.00001887,0.00001160,0.00001146,0
 .00000358,0.00001723,-0.00000909,0.00000565,0.00003107,0.00004611,0.00
 005569,0.00000777,0.00000946,-0.00001142,-0.00002236,0.00001412,0.0000
 2240,-0.00004545,-0.00004282,-0.00006914,-0.00000880,0.00004485,-0.000
 04299,0.00000164,-0.00002365,-0.00001151,0.00002357,0.00000287,0.00000
 269,0.00014911,-0.00005106,0.00006478,-0.00002204,0.00001659,0.0000264
 4,-0.00002420,-0.00001193,0.00001785,-0.00002480,0.00002235,0.00000288
 ,-0.00016680,-0.00000215,0.00001561,-0.00000915,0.00002215,-0.00001926
 ,0.00000580,-0.00001036,0.00000993,0.00000034,-0.00004203,0.00008243,0
 .00003416,-0.00000086,-0.00006162,-0.00000236,-0.00000604,-0.00001292,
 -0.00002670,-0.00003411,-0.00001310,-0.00003275,0.00013315,-0.00007319
 ,-0.00000086,0.00000191,-0.00004257,-0.00001247,-0.00001182,0.00001741
 ,-0.00000424,-0.00000861,-0.00000384,0.00001018,0.00006160,0.00001107,
 -0.00000873,-0.00001630,0.00002379,-0.00000522,-0.00001232,-0.00002578
 ,0.00000211,-0.00003044,0.00000500,-0.00001752,-0.00001715,0.00004330,
 0.00018417,-0.00029048,-0.00002381,-0.00027313,0.00003512,-0.00000609,
 -0.00011458,0.00057864,-0.00011758,0.00013108,-0.00004768,-0.00008267,
 -0.00033434,-0.00043221,0.00043335,-0.00003214,-0.00000491,0.00002060,
 -0.00001870,0.00004599,0.00006367,0.00006676,-0.00003532,0.00000273,0.
 39750710,0.00121226,-0.00143509,0.00022950,-0.00059589,0.00026879,-0.0
 0004325,-0.00048021,0.00205873,0.00049159,-0.00006294,-0.00001132,0.00
 001089,0.00263019,-0.00228152,-0.00121334,0.00004034,0.00007788,-0.000
 02296,0.00002829,-0.00008543,-0.00008201,-0.00019216,0.00012677,0.0001
 9247,-1.35273046,0.72347431,0.00007628,-0.00035082,0.00028781,-0.00009
 690,0.00013270,-0.00004310,-0.00041240,0.00043845,0.00113204,0.0001572
 3,-0.00009680,-0.00019546,0.00040595,-0.00082319,-0.00414186,0.0000458
 1,0.00002592,0.00006683,-0.00001056,-0.00008667,-0.00000088,-0.0001568
 5,0.00024986,0.00021373,-0.20303486,1.13522031,1.91698951,0.00024577,-
 0.00034930,-0.00012620,-0.00005061,0.00011347,0.00003622,-0.00069293,-
 0.00013848,0.00011058,-0.00004927,0.00008370,0.00002923,0.00134352,0.0
 0020609,-0.00037534,0.00001947,0.00004874,0.00000892,0.00001736,-0.000
 06151,-0.00004333,0.00003523,-0.00001573,0.00003711,-0.43795845,1.3564
 3522,1.03100585,0.43143396,-0.00066047,0.00089047,-0.00021151,0.000324
 60,-0.00016805,0.00005240,0.00016659,-0.00123068,-0.00066288,-0.000046
 92,0.00004924,0.00004964,-0.00169380,0.00143138,0.00188749,-0.00002126
 ,-0.00005862,-0.00001887,-0.00005672,0.00010476,0.00001772,0.00005017,
 -0.00010084,-0.00015463,1.33907908,-1.02308557,-1.26427731,-1.33629760
 ,1.02606742,-0.00029576,0.00054099,-0.00010468,0.00007560,-0.00015888,
 0.00003073,0.00008319,-0.00059325,-0.00028094,-0.00021519,0.00003181,-
 0.00004078,-0.00056392,0.00070282,0.00128912,-0.00003574,-0.00003353,0
 .00002274,0.00000626,0.00005185,0.00008801,0.00011444,-0.00009820,-0.0
 0016254,1.02011902,-1.26719997,-0.33195058,-1.01773709,1.24929308,0.32
 293080,-0.00003497,0.00015425,0.00007524,0.00002512,-0.00004365,0.0000
 0475,-0.00011842,-0.00023227,-0.00006760,0.00002850,0.00002076,0.00010
 159,0.00034237,0.00019933,-0.00001871,-0.00000412,-0.00000948,-0.00004
 175,0.00001899,-0.00001206,-0.00002969,0.00005543,-0.00005462,-0.00004
 779,0.03587257,0.03327726,-0.85248524,-0.00092161,-0.00048699,0.000926
 86,-0.04356745,-0.00031893,0.00024442,0.00001210,0.00019176,-0.0000085
 2,-0.00001049,0.00017801,-0.00031765,0.00025033,0.00000438,-0.00003667
 ,-0.00008863,-0.00093614,0.00017171,-0.00072133,0.00000816,0.00000197,
 0.00003317,-0.00000117,0.00000775,0.00002095,-0.00005298,0.00007952,0.
 00004102,0.02975789,0.39017929,0.06186533,-0.00516703,0.00048521,0.003
 88731,-0.02711253,-0.38726584,0.00031786,-0.00017064,-0.00003897,-0.00
 005643,-0.00001570,0.00001279,0.00032161,0.00019484,-0.00054163,0.0000
 1235,0.00008249,0.00021278,0.00032301,0.00032708,0.00191978,-0.0000270
 0,-0.00002699,-0.00008743,0.00003637,0.00003493,-0.00001993,0.00007165
 ,-0.00017731,-0.00016701,-0.83013137,0.06851608,-1.55865082,-0.0099730
 8,0.01008790,0.00415984,0.84239978,-0.08104039,1.54972382,-0.00024641,
 0.00029722,0.00003746,0.00018554,-0.00005002,-0.00001570,0.00061450,-0
 .00005830,0.00003325,0.00000354,-0.00006128,-0.00004021,-0.00054587,-0
 .00025137,-0.00006581,0.00002122,-0.00000225,-0.00000166,0.00000517,0.
 00000637,0.00000611,-0.00008510,0.00004591,0.00004470,0.00496967,-0.03
 956190,0.02450570,0.00657758,-0.00035669,-0.00247766,0.00830360,0.0034
 4856,-0.00329476,-0.01980346,-0.00018235,0.00033063,0.00001927,0.00011
 586,-0.00009217,-0.00000955,0.00036775,-0.00032045,-0.00006844,0.00001
 656,-0.00002627,0.00003149,-0.00039119,0.00030283,0.00009761,-0.000022
 39,-0.00002097,-0.00000379,0.00000346,-0.00000122,0.00003001,0.0000618
 2,-0.00003333,-0.00004574,-0.01595566,-0.08928681,0.06770222,-0.014857
 59,-0.00438471,0.01357597,-0.00569999,-0.00354118,0.00218770,0.0365437
 4,0.09707366,-0.00003611,-0.00005650,-0.00006598,0.00005060,0.00004564
 ,0.00001463,0.00001088,0.00001052,-0.00022775,0.00010033,-0.00001480,0
 .00000972,-0.00025788,-0.00015132,0.00058156,0.00000565,0.00002384,-0.
 00001299,-0.00003693,-0.00000235,-0.00006009,-0.00007186,0.00007345,0.
 00008744,0.01275701,0.06390069,-0.02370720,-0.00297285,0.00393696,0.00
 401827,0.00918257,0.01575062,0.00347678,-0.01873142,-0.08351675,0.0158
 8562,-0.00189636,-0.00046225,0.00026194,0.00086595,0.00010862,-0.00032
 623,0.00159498,0.00040786,-0.00079841,-0.00129524,0.00039012,0.0000091
 3,-0.00027860,-0.00027315,0.00004676,-0.00049634,-0.00011775,0.0003369
 2,0.00053796,0.00018788,-0.00037886,-0.00012751,0.00008442,-0.00010431
 ,-0.00011170,0.00003985,0.00000897,0.00094843,0.00008134,0.00008336,0.
 00011592,0.00019422,0.00002828,-0.00010125,0.00004522,-0.00000761,-0.0
 0009588,-0.00018654,0.00005501,-0.00002024,0.00011737,-0.00000595,0.00
 013876,0.00018704,0.00032942,0.00018924,0.00005499,-0.00005253,-0.0001
 0496,-0.00017640,0.00000334,0.00000773,-0.00009287,0.00001548,-0.00047
 428,-0.00020915,-0.00028456,0.00002069,-0.00015393,-0.00008686,0.00004
 786,0.00005937,0.00010754,0.00000005,0.00038563,0.00008926,-0.00020588
 ,0.00015312,0.00005239,0.00021288,-0.00006054,0.00003083,-0.00001755,-
 0.00002541,-0.00000321,-0.00011393,-0.00009214,-0.00014875,0.00017932,
 0.00000071,0.00001197,-0.00002856,0.00002498,-0.00001132,-0.00079326,-
 0.00014710,-0.00008726,0.00003306,-0.00004535,-0.00003009,0.00049570,0
 .00003942,0.00030103,-0.00000388,-0.00003849,-0.00003719,-0.00000249,-
 0.00001419,-0.00032608,-0.00008015,0.00003002,-0.00001228,0.00001208,-
 0.00010303,0.00007327,-0.00007169,-0.00001061,0.00007104,0.00006237,0.
 00003791,-0.00002844,0.00001214,-0.00012879,-0.00041514,0.00007214,-0.
 00000068,0.00003284,-0.00000495,0.00008017,0.00049586,-0.00011798,0.00
 001531,0.00003362,0.00001626,-0.00002236,-0.00000005,0.00000033,0.0000
 0146,-0.00000579,0.00004088,-0.00004577,0.00002690,-0.00000800,-0.0000
 3486,-0.00000709,0.00006061,-0.00004656,0.00001128,0.00003644,-0.00000
 992,-0.00000365,-0.00000096,-0.00000693,0.00002624,-0.00000766,0.00000
 693,0.00002846,-0.00003337,-0.00000580,0.00000952,-0.00000717,0.000025
 39,-0.00006563,-0.00001697,0.00000340,-0.00000626,0.00001058,-0.000002
 46,0.00001642,0.00000307,0.00000115,-0.00001146,0.00006257,-0.00002279
 ,-0.00009898,0.00000478,0.00000828,-0.00000091,-0.00004089,0.00000905,
 0.00003815,0.00003397,-0.00010885,0.00003471,-0.00003345,0.00001724,-0
 .00001244,-0.00003733,0.00001892,0.00001525,0.00019231,0.00001616,0.00
 010625,0.00004250,0.00004717,-0.00005359,0.00003350,0.00001866,-0.0000
 7214,-0.00020600,-0.00000462,-0.00002771,-0.00001714,-0.00004225,0.000
 00008,-0.00002058,0.00003797,-0.00001244,0.00000812,-0.00003310,0.0001
 1596,0.00010750,-0.00000971,-0.00006583,0.00003750,0.00001255,-0.00001
 134,0.00003399,0.00010330,-0.00003669,0.00003281,0.00002441,-0.0000770
 0,-0.00000103,-0.00000336,-0.00000189,-0.00000047,-0.00000307,0.000001
 82,0.00007458,0.00007426,0.00015540,0.00002495,0.00000857,-0.00001337,
 -0.00006583,0.00002600,0.00003787,-0.00009586,-0.00010379,-0.00017386,
 0.00004356,-0.00010579,-0.00001017,-0.00001773,0.00002484,-0.00002580,
 -0.00005549,0.00002863,-0.00000651,0.00015272,-0.00004452,-0.00008602,
 0.00003145,0.00000956,0.00006929,0.00001685,0.00001528,0.00007383,-0.0
 0009035,-0.00000633,0.00000669,-0.00015444,-0.00003097,-0.00001336,0.0
 0002845,-0.00000270,-0.00004019,-0.00000244,0.00000839,-0.00000767,-0.
 00000266,-0.00008732,-0.00002777,-0.00005741,-0.00000866,-0.00006481,-
 0.00002974,0.00002930,-0.00000175,-0.00002351,0.00000439,0.00002805,0.
 00001600,0.00015838,0.00012239,0.00000507,-0.00004072,-0.00003292,-0.0
 0001257,0.00001388,0.00000488,-0.00000043,-0.00000153,-0.00000691,-0.0
 0006313,-0.00000092,0.00004546,-0.00002082,0.00000392,-0.00004691,0.00
 005465,-0.00001572,-0.00000301,0.00002775,-0.00002668,0.00005099,0.000
 09648,0.00001741,-0.00004757,0.00052145,-0.00012280,-0.00004877,-0.000
 14363,0.00004467,-0.00000624,0.00068451,0.00012039,0.00023524,-0.00008
 911,0.00000642,0.00007541,-0.00065852,0.00096776,-0.00051990,-0.000049
 03,-0.00001603,-0.00000083,-0.00000534,0.00001927,0.00005686,0.0000546
 8,-0.00003744,-0.00009189,-0.46146442,-0.00047690,-0.00073367,-0.00003
 407,0.00005156,0.00029430,0.00006206,-0.00096358,0.00070910,-0.0005954
 1,0.00003552,-0.00040248,0.00002243,0.00036518,-0.00277341,0.00105121,
 0.00018249,0.00019411,0.00000159,-0.00014345,0.00010850,-0.00032591,-0
 .00027593,0.00030631,0.00032275,0.79381366,2.32449898,-0.00010005,0.00
 064256,0.00003611,0.00009381,-0.00014611,-0.00001751,0.00037755,-0.000
 68566,0.00085827,-0.00007716,0.00009772,-0.00018544,-0.00026097,0.0009
 1131,-0.00303891,-0.00004337,-0.00009296,0.00006103,0.00001234,-0.0000
 7967,0.00020781,-0.00012395,0.00008552,0.00005222,0.15524600,-1.205884
 25,1.17989984,-0.00020886,0.00017656,0.00000369,0.00013653,-0.00002900
 ,-0.00000737,0.00046468,0.00008270,-0.00001035,0.00006232,0.00000171,0
 .00004119,-0.00030865,-0.00037793,0.00007325,0.00000959,0.00001429,-0.
 00000733,0.00004351,-0.00003637,-0.00003966,0.00005061,-0.00001220,0.0
 0000878,-0.04507362,0.12064155,0.11547127,0.03879551,-0.00007251,0.000
 26794,0.00007204,0.00001493,-0.00008756,-0.00001135,0.00018246,-0.0001
 7108,0.00007448,-0.00002360,0.00003346,0.00000225,-0.00020742,0.000189
 12,-0.00030318,-0.00002183,-0.00004080,0.00000668,-0.00002949,0.000034
 05,0.00005550,0.00005773,-0.00002823,-0.00007753,0.09965604,-0.0847491
 4,-0.12637226,-0.12151462,0.07463798,-0.00024423,0.00022145,0.00001395
 ,0.00011551,-0.00004293,-0.00000275,0.00015325,-0.00019861,-0.00019670
 ,-0.00004590,-0.00004758,0.00005183,-0.00058207,0.00012448,0.00047096,
 0.00000363,-0.00000292,-0.00001478,0.00000404,0.00003600,-0.00002992,-
 0.00000446,-0.00002361,-0.00002720,0.10084872,-0.12850260,-0.07012113,
 -0.11476099,0.14390807,0.07149827,-0.00011435,0.00004429,0.00002486,0.
 00008297,0.00001179,0.00000483,-0.00005652,-0.00009614,-0.00000805,0.0
 0005478,0.00001969,0.00002920,0.00017990,-0.00016088,0.00004102,0.0000
 0947,0.00000010,-0.00002340,-0.00000254,-0.00000576,-0.00004558,-0.000
 07845,-0.00000771,0.00002249,0.04046765,-0.01443678,-0.65111593,0.0067
 9241,0.00615754,0.01332234,-0.04504943,0.00032994,-0.00020353,-0.00005
 234,-0.00013282,0.00002625,0.00002684,-0.00023898,0.00003374,-0.000172
 82,-0.00003636,0.00008760,-0.00001209,0.00042351,0.00037193,0.00053895
 ,-0.00001608,0.00000482,-0.00000316,-0.00000090,-0.00001496,0.00000953
 ,0.00003932,-0.00006477,-0.00001720,-0.01597906,0.29995200,-0.03358416
 ,-0.00034876,0.00280336,-0.01086961,0.00974897,-0.31054202,0.00039083,
 -0.00047201,-0.00010029,-0.00013953,0.00009357,0.00001867,-0.00001071,
 0.00051123,-0.00049335,0.00010135,0.00002751,0.00013671,0.00063896,-0.
 00017324,0.00178706,0.00000323,0.00002223,-0.00006361,0.00004742,-0.00
 001274,-0.00005766,0.00000447,-0.00005708,-0.00004845,-0.62757692,-0.0
 3060358,-1.22436849,-0.00392414,-0.00335413,-0.00124643,0.63679647,0.0
 4718230,1.22573587,-0.00009747,0.00001554,0.00003939,-0.00009550,-0.00
 005258,0.00000444,-0.00092386,-0.00023677,-0.00017065,-0.00006470,0.00
 000975,-0.00003837,0.00083505,-0.00036456,0.00032700,-0.00001248,0.000
 00458,0.00000674,0.00002921,-0.00003496,0.00005253,0.00004660,-0.00001
 347,-0.00002637,0.46575538,-0.89879332,0.38052044,-0.00076405,0.015800
 79,0.00119016,-0.00228587,0.00621123,-0.00633143,-0.46242232,0.0004621
 3,0.00032816,0.00000388,-0.00001530,-0.00014935,-0.00006782,0.00076601
 ,-0.00046339,0.00065818,-0.00006344,0.00035167,-0.00001644,-0.00028731
 ,0.00233473,-0.00126556,-0.00012561,-0.00015125,-0.00001222,0.00005685
 ,-0.00011769,0.00022186,0.00009882,-0.00020820,-0.00017767,-0.87847289
 ,-2.53740460,1.36510796,0.00140208,0.00711092,-0.00460214,-0.00127511,
 0.00754558,-0.01316404,0.87745376,2.52082343,-0.00006362,-0.00032592,-
 0.00002272,-0.00006136,0.00008338,0.00002766,-0.00056026,0.00032898,-0
 .00011182,0.00002319,-0.00010397,-0.00006908,0.00031683,-0.00088908,0.
 00068592,0.00004099,0.00006704,0.00004555,-0.00001374,0.00003747,-0.00
 010020,0.00000615,0.00004908,0.00005943,0.37178230,1.36448579,0.116616
 21,0.00315165,-0.01400055,-0.00039610,0.00095176,-0.00304623,-0.001300
 03,-0.37557388,-1.34668600,-0.11543481\\@
 The archive entry for this job was punched.


 When I told the people of Northern Ireland that I was
 an atheist, a woman in the audience stood up and said,
 "Yes, but is it the God of the Catholics or the God
 of the Protestants in whom you don't believe?"
                               -- Quentin Crisp
 Job cpu time:       5 days  0 hours 42 minutes 43.3 seconds.
 Elapsed time:       0 days  3 hours  3 minutes 58.8 seconds.
 File lengths (MBytes):  RWF=   4640 Int=      0 D2E=      0 Chk=     47 Scr=      1
 Normal termination of Gaussian 16 at Fri Mar 21 09:39:33 2025.
