 Entering Gaussian System, Link 0=g16
 Input=hcooht_nh3_mp2_avdz_opt_anharm.gjf
 Output=hcooht_nh3_mp2_avdz_opt_anharm.log
 Initial command:
 /sw/contrib/chem-src/g16/c01/g16/l1.exe "/scr/Gau-35735.inp" -scrdir="/scr/"
 Entering Link 1 = /sw/contrib/chem-src/g16/c01/g16/l1.exe PID=     35736.
  
 Copyright (c) 1988-2019, Gaussian, Inc.  All Rights Reserved.
  
 This is part of the Gaussian(R) 16 program.  It is based on
 the Gaussian(R) 09 system (copyright 2009, Gaussian, Inc.),
 the Gaussian(R) 03 system (copyright 2003, Gaussian, Inc.),
 the Gaussian(R) 98 system (copyright 1998, Gaussian, Inc.),
 the Gaussian(R) 94 system (copyright 1995, Gaussian, Inc.),
 the Gaussian 92(TM) system (copyright 1992, Gaussian, Inc.),
 the Gaussian 90(TM) system (copyright 1990, Gaussian, Inc.),
 the Gaussian 88(TM) system (copyright 1988, Gaussian, Inc.),
 the Gaussian 86(TM) system (copyright 1986, Carnegie Mellon
 University), and the Gaussian 82(TM) system (copyright 1983,
 Carnegie Mellon University). Gaussian is a federally registered
 trademark of Gaussian, Inc.
  
 This software contains proprietary and confidential information,
 including trade secrets, belonging to Gaussian, Inc.
  
 This software is provided under written license and may be
 used, copied, transmitted, or stored only in accord with that
 written license.
  
 The following legend is applicable only to US Government
 contracts under FAR:
  
                    RESTRICTED RIGHTS LEGEND
  
 Use, reproduction and disclosure by the US Government is
 subject to restrictions as set forth in subparagraphs (a)
 and (c) of the Commercial Computer Software - Restricted
 Rights clause in FAR 52.227-19.
  
 Gaussian, Inc.
 340 Quinnipiac St., Bldg. 40, Wallingford CT 06492
  
  
 ---------------------------------------------------------------
 Warning -- This program may not be used in any manner that
 competes with the business of Gaussian, Inc. or will provide
 assistance to any competitor of Gaussian, Inc.  The licensee
 of this program is prohibited from giving any competitor of
 Gaussian, Inc. access to this program.  By using this program,
 the user acknowledges that Gaussian, Inc. is engaged in the
 business of creating and licensing software in the field of
 computational chemistry and represents and warrants to the
 licensee that it is not a competitor of Gaussian, Inc. and that
 it will not use this program in any manner prohibited above.
 ---------------------------------------------------------------
  

 Cite this work as:
 Gaussian 16, Revision C.01,
 M. J. Frisch, G. W. Trucks, H. B. Schlegel, G. E. Scuseria, 
 M. A. Robb, J. R. Cheeseman, G. Scalmani, V. Barone, 
 G. A. Petersson, H. Nakatsuji, X. Li, M. Caricato, A. V. Marenich, 
 J. Bloino, B. G. Janesko, R. Gomperts, B. Mennucci, H. P. Hratchian, 
 J. V. Ortiz, A. F. Izmaylov, J. L. Sonnenberg, D. Williams-Young, 
 F. Ding, F. Lipparini, F. Egidi, J. Goings, B. Peng, A. Petrone, 
 T. Henderson, D. Ranasinghe, V. G. Zakrzewski, J. Gao, N. Rega, 
 G. Zheng, W. Liang, M. Hada, M. Ehara, K. Toyota, R. Fukuda, 
 J. Hasegawa, M. Ishida, T. Nakajima, Y. Honda, O. Kitao, H. Nakai, 
 T. Vreven, K. Throssell, J. A. Montgomery, Jr., J. E. Peralta, 
 F. Ogliaro, M. J. Bearpark, J. J. Heyd, E. N. Brothers, K. N. Kudin, 
 V. N. Staroverov, T. A. Keith, R. Kobayashi, J. Normand, 
 K. Raghavachari, A. P. Rendell, J. C. Burant, S. S. Iyengar, 
 J. Tomasi, M. Cossi, J. M. Millam, M. Klene, C. Adamo, R. Cammi, 
 J. W. Ochterski, R. L. Martin, K. Morokuma, O. Farkas, 
 J. B. Foresman, and D. J. Fox, Gaussian, Inc., Wallingford CT, 2019.
 
 ******************************************
 Gaussian 16:  EM64L-G16RevC.01  3-Jul-2019
                21-Mar-2025 
 ******************************************
 %nprocshared=40
 Will use up to   40 processors via shared memory.
 %mem=50gb
 ----------------------------------------------
 # MP2/aug-cc-pVDZ opt freq=(vibrot,anharmonic)
 ----------------------------------------------
 1/18=20,19=15,38=1,80=1/1,3;
 2/9=110,12=2,17=6,18=5,40=1/2;
 3/5=16,7=10,11=9,25=1,30=1,71=1/1,2,3;
 4//1;
 5/5=2,38=5/2;
 8/6=4,10=1/1;
 9/15=2,16=-3/6;
 10/5=1/2;
 6/7=2,8=2,9=2,10=2/1;
 7/12=2/1,2,3,16;
 1/18=20,19=15,80=1/3(2);
 2/9=110/2;
 99//99;
 2/9=110/2;
 3/5=16,7=10,11=9,25=1,30=1,71=1/1,2,3;
 4/5=5,16=3,69=1/1;
 5/5=2,38=5/2;
 8/6=4,10=1/1;
 9/15=2,16=-3/6;
 10/5=1/2;
 7/12=2/1,2,3,16;
 1/18=20,19=15,80=1/3(-8);
 2/9=110/2;
 6/7=2,8=2,9=2,10=2/1;
 99/9=10/99;
 ----
 blah
 ----
 Symbolic Z-matrix:
 Charge =  0 Multiplicity = 1
 C                     1.05591  -0.29623   0.00006 
 O                     2.26426  -0.15853  -0.00007 
 O                     0.18697   0.73202   0. 
 H                    -0.74028   0.37008  -0.00001 
 N                    -2.46254  -0.16466  -0.00006 
 H                    -3.0407    0.67575  -0.03616 
 H                    -2.75128  -0.67455   0.83526 
 H                    -2.73917  -0.73631  -0.79868 
 H                     0.56384  -1.29286   0.00021 
 
 Add virtual bond connecting atoms N5         and H4         Dist= 3.41D+00.

 GradGradGradGradGradGradGradGradGradGradGradGradGradGradGradGradGradGrad
 Berny optimization.
 Initialization pass.
                           ----------------------------
                           !    Initial Parameters    !
                           ! (Angstroms and Degrees)  !
 --------------------------                            --------------------------
 ! Name  Definition              Value          Derivative Info.                !
 --------------------------------------------------------------------------------
 ! R1    R(1,2)                  1.2162         estimate D2E/DX2                !
 ! R2    R(1,3)                  1.3462         estimate D2E/DX2                !
 ! R3    R(1,9)                  1.1115         estimate D2E/DX2                !
 ! R4    R(3,4)                  0.9954         estimate D2E/DX2                !
 ! R5    R(4,5)                  1.8034         estimate D2E/DX2                !
 ! R6    R(5,6)                  1.0207         estimate D2E/DX2                !
 ! R7    R(5,7)                  1.0204         estimate D2E/DX2                !
 ! R8    R(5,8)                  1.0203         estimate D2E/DX2                !
 ! A1    A(2,1,3)              123.699          estimate D2E/DX2                !
 ! A2    A(2,1,9)              122.7785         estimate D2E/DX2                !
 ! A3    A(3,1,9)              113.5225         estimate D2E/DX2                !
 ! A4    A(1,3,4)              108.8778         estimate D2E/DX2                !
 ! A5    A(4,5,6)              107.2662         estimate D2E/DX2                !
 ! A6    A(4,5,7)              114.7344         estimate D2E/DX2                !
 ! A7    A(4,5,8)              115.1553         estimate D2E/DX2                !
 ! A8    A(6,5,7)              106.2666         estimate D2E/DX2                !
 ! A9    A(6,5,8)              106.2621         estimate D2E/DX2                !
 ! A10   A(7,5,8)              106.5034         estimate D2E/DX2                !
 ! A11   L(3,4,5,9,-1)         184.0737         estimate D2E/DX2                !
 ! A12   L(3,4,5,9,-2)         180.0005         estimate D2E/DX2                !
 ! D1    D(2,1,3,4)            179.9913         estimate D2E/DX2                !
 ! D2    D(2,1,3,9)            179.9984         estimate D2E/DX2                !
 ! D3    D(9,1,3,4)             -0.007          estimate D2E/DX2                !
 ! D4    D(1,3,5,6)           -177.8958         estimate D2E/DX2                !
 ! D5    D(1,3,5,7)             64.9476         estimate D2E/DX2                !
 ! D6    D(1,3,5,8)            -60.4495         estimate D2E/DX2                !
 --------------------------------------------------------------------------------
 Trust Radius=3.00D-01 FncErr=1.00D-07 GrdErr=1.00D-07 EigMax=2.50D+02 EigMin=1.00D-04
 Number of steps in this run=     36 maximum allowed number of steps=    100.
 GradGradGradGradGradGradGradGradGradGradGradGradGradGradGradGradGradGrad

                          Input orientation:                          
 ---------------------------------------------------------------------
 Center     Atomic      Atomic             Coordinates (Angstroms)
 Number     Number       Type             X           Y           Z
 ---------------------------------------------------------------------
      1          6           0        1.055913   -0.296230    0.000059
      2          8           0        2.264265   -0.158529   -0.000067
      3          8           0        0.186969    0.732016    0.000001
      4          1           0       -0.740279    0.370077   -0.000011
      5          7           0       -2.462537   -0.164660   -0.000062
      6          1           0       -3.040698    0.675748   -0.036164
      7          1           0       -2.751283   -0.674548    0.835261
      8          1           0       -2.739170   -0.736309   -0.798681
      9          1           0        0.563839   -1.292863    0.000205
 ---------------------------------------------------------------------
                    Distance matrix (angstroms):
                    1          2          3          4          5
     1  C    0.000000
     2  O    1.216173   0.000000
     3  O    1.346237   2.260139   0.000000
     4  H    1.915795   3.050690   0.995384   0.000000
     5  N    3.520909   4.726806   2.797125   1.803362   0.000000
     6  H    4.210496   5.370284   3.228360   2.320920   1.020715
     7  H    3.916048   5.110750   3.362946   2.415172   1.020355
     8  H    3.903115   5.099605   3.369890   2.420233   1.020343
     9  H    1.111492   2.044055   2.059652   2.113313   3.229829
                    6          7          8          9
     6  H    0.000000
     7  H    1.632924   0.000000
     8  H    1.632868   1.635154   0.000000
     9  H    4.107242   3.474142   3.443521   0.000000
 Stoichiometry    CH5NO2
 Framework group  C1[X(CH5NO2)]
 Deg. of freedom    21
 Full point group                 C1      NOp   1
 Largest Abelian subgroup         C1      NOp   1
 Largest concise Abelian subgroup C1      NOp   1
                         Standard orientation:                         
 ---------------------------------------------------------------------
 Center     Atomic      Atomic             Coordinates (Angstroms)
 Number     Number       Type             X           Y           Z
 ---------------------------------------------------------------------
      1          6           0        1.055913   -0.296230    0.000059
      2          8           0        2.264265   -0.158529   -0.000067
      3          8           0        0.186969    0.732016    0.000001
      4          1           0       -0.740279    0.370077   -0.000011
      5          7           0       -2.462537   -0.164660   -0.000062
      6          1           0       -3.040698    0.675748   -0.036164
      7          1           0       -2.751283   -0.674548    0.835261
      8          1           0       -2.739170   -0.736309   -0.798681
      9          1           0        0.563839   -1.292863    0.000205
 ---------------------------------------------------------------------
 Rotational constants (GHZ):          33.7092342           2.4483714           2.3107053
 Standard basis: Aug-CC-pVDZ (5D, 7F)
 There are   145 symmetry adapted cartesian basis functions of A   symmetry.
 There are   137 symmetry adapted basis functions of A   symmetry.
   137 basis functions,   227 primitive gaussians,   145 cartesian basis functions
    17 alpha electrons       17 beta electrons
       nuclear repulsion energy       117.2603571021 Hartrees.
 NAtoms=    9 NActive=    9 NUniq=    9 SFac= 1.00D+00 NAtFMM=   60 NAOKFM=F Big=F
 Integral buffers will be    131072 words long.
 Raffenetti 1 integral format.
 Two-electron integral symmetry is turned on.
 One-electron integrals computed using PRISM.
 NBasis=   137 RedAO= T EigKep=  4.34D-04  NBF=   137
 NBsUse=   137 1.00D-06 EigRej= -1.00D+00 NBFU=   137
 ExpMin= 2.97D-02 ExpMax= 1.17D+04 ExpMxC= 4.01D+02 IAcc=3 IRadAn=         5 AccDes= 0.00D+00
 Harris functional with IExCor=  205 and IRadAn=       5 diagonalized for initial guess.
 HarFok:  IExCor=  205 AccDes= 0.00D+00 IRadAn=         5 IDoV= 1 UseB2=F ITyADJ=14
 ICtDFT=  3500011 ScaDFX=  1.000000  1.000000  1.000000  1.000000
 FoFCou: FMM=F IPFlag=           0 FMFlag=      100000 FMFlg1=           0
         NFxFlg=           0 DoJE=T BraDBF=F KetDBF=T FulRan=T
         wScrn=  0.000000 ICntrl=       500 IOpCl=  0 I1Cent=   200000004 NGrid=           0
         NMat0=    1 NMatS0=      1 NMatT0=    0 NMatD0=    1 NMtDS0=    0 NMtDT0=    0
 Petite list used in FoFCou.
 Keep R1 ints in memory in canonical form, NReq=53296041.
 Requested convergence on RMS density matrix=1.00D-08 within 128 cycles.
 Requested convergence on MAX density matrix=1.00D-06.
 Requested convergence on             energy=1.00D-06.
 No special actions if energy rises.
 SCF Done:  E(RHF) =  -245.005384259     A.U. after   13 cycles
            NFock= 13  Conv=0.48D-08     -V/T= 2.0023
 ExpMin= 2.97D-02 ExpMax= 1.17D+04 ExpMxC= 4.01D+02 IAcc=3 IRadAn=         5 AccDes= 0.00D+00
 HarFok:  IExCor=  205 AccDes= 0.00D+00 IRadAn=         5 IDoV=-2 UseB2=F ITyADJ=14
 ICtDFT= 12500011 ScaDFX=  1.000000  1.000000  1.000000  1.000000
 Range of M.O.s used for correlation:     5   137
 NBasis=   137 NAE=    17 NBE=    17 NFC=     4 NFV=     0
 NROrb=    133 NOA=    13 NOB=    13 NVA=   120 NVB=   120

 **** Warning!!: The largest alpha MO coefficient is  0.10888852D+02

 Fully direct method using O(ONN) memory.
 JobTyp=1 Pass  1:  I=   5 to  17 NPSUse= 40 ParTrn=T ParDer=T DoDerP=T.
 Spin components of T(2) and E(2):
     alpha-alpha T2 =       0.2921117636D-01 E2=     -0.9570502132D-01
     alpha-beta  T2 =       0.1619149901D+00 E2=     -0.5466214876D+00
     beta-beta   T2 =       0.2921117636D-01 E2=     -0.9570502132D-01
 ANorm=    0.1104688799D+01
 E2 =    -0.7380315303D+00 EUMP2 =    -0.24574341578921D+03
          IDoAtm=111111111
          Differentiating once with respect to electric field.
                with respect to dipole field.
          Differentiating once with respect to nuclear coordinates.
 Keep R1 ints in memory in canonical form, NReq=53302501.
          There are     1 degrees of freedom in the 1st order CPHF.  IDoFFX=0 NUNeed=     1.
 LinEq1:  Iter=  0 NonCon=     1 RMS=5.71D-03 Max=1.23D-01 NDo=     1
 AX will form     1 AO Fock derivatives at one time.
 LinEq1:  Iter=  1 NonCon=     1 RMS=1.64D-03 Max=1.97D-02 NDo=     1
 LinEq1:  Iter=  2 NonCon=     1 RMS=5.88D-04 Max=7.79D-03 NDo=     1
 LinEq1:  Iter=  3 NonCon=     1 RMS=1.99D-04 Max=3.02D-03 NDo=     1
 LinEq1:  Iter=  4 NonCon=     1 RMS=7.01D-05 Max=5.21D-04 NDo=     1
 LinEq1:  Iter=  5 NonCon=     1 RMS=2.64D-05 Max=5.10D-04 NDo=     1
 LinEq1:  Iter=  6 NonCon=     1 RMS=7.34D-06 Max=9.24D-05 NDo=     1
 LinEq1:  Iter=  7 NonCon=     1 RMS=1.95D-06 Max=1.91D-05 NDo=     1
 LinEq1:  Iter=  8 NonCon=     1 RMS=6.43D-07 Max=5.89D-06 NDo=     1
 LinEq1:  Iter=  9 NonCon=     1 RMS=2.26D-07 Max=1.97D-06 NDo=     1
 LinEq1:  Iter= 10 NonCon=     1 RMS=5.10D-08 Max=4.65D-07 NDo=     1
 LinEq1:  Iter= 11 NonCon=     1 RMS=9.51D-09 Max=6.85D-08 NDo=     1
 LinEq1:  Iter= 12 NonCon=     1 RMS=1.43D-09 Max=9.86D-09 NDo=     1
 LinEq1:  Iter= 13 NonCon=     1 RMS=1.95D-10 Max=1.89D-09 NDo=     1
 LinEq1:  Iter= 14 NonCon=     0 RMS=3.27D-11 Max=3.50D-10 NDo=     1
 Linear equations converged to 1.000D-10 1.000D-09 after    14 iterations.
 End of Minotr F.D. properties file   721 does not exist.
 End of Minotr F.D. properties file   722 does not exist.
 End of Minotr F.D. properties file   788 does not exist.

 **********************************************************************

            Population analysis using the SCF Density.

 **********************************************************************

 Orbital symmetries:
       Occupied  (A) (A) (A) (A) (A) (A) (A) (A) (A) (A) (A) (A)
                 (A) (A) (A) (A) (A)
       Virtual   (A) (A) (A) (A) (A) (A) (A) (A) (A) (A) (A) (A)
                 (A) (A) (A) (A) (A) (A) (A) (A) (A) (A) (A) (A)
                 (A) (A) (A) (A) (A) (A) (A) (A) (A) (A) (A) (A)
                 (A) (A) (A) (A) (A) (A) (A) (A) (A) (A) (A) (A)
                 (A) (A) (A) (A) (A) (A) (A) (A) (A) (A) (A) (A)
                 (A) (A) (A) (A) (A) (A) (A) (A) (A) (A) (A) (A)
                 (A) (A) (A) (A) (A) (A) (A) (A) (A) (A) (A) (A)
                 (A) (A) (A) (A) (A) (A) (A) (A) (A) (A) (A) (A)
                 (A) (A) (A) (A) (A) (A) (A) (A) (A) (A) (A) (A)
                 (A) (A) (A) (A) (A) (A) (A) (A) (A) (A) (A) (A)
 The electronic state is 1-A.
 Alpha  occ. eigenvalues --  -20.59515 -20.54574 -15.60743 -11.38304  -1.43457
 Alpha  occ. eigenvalues --   -1.34421  -1.19749  -0.83673  -0.76118  -0.67915
 Alpha  occ. eigenvalues --   -0.67825  -0.63992  -0.59772  -0.57471  -0.48729
 Alpha  occ. eigenvalues --   -0.45712  -0.43815
 Alpha virt. eigenvalues --    0.01605   0.04247   0.04369   0.05879   0.07668
 Alpha virt. eigenvalues --    0.10606   0.11636   0.14876   0.15534   0.17432
 Alpha virt. eigenvalues --    0.17623   0.17786   0.18204   0.19642   0.23761
 Alpha virt. eigenvalues --    0.24327   0.25200   0.27400   0.27509   0.29109
 Alpha virt. eigenvalues --    0.29510   0.31963   0.32851   0.33145   0.37017
 Alpha virt. eigenvalues --    0.38490   0.42383   0.42868   0.43502   0.44275
 Alpha virt. eigenvalues --    0.48282   0.49393   0.50326   0.51052   0.52235
 Alpha virt. eigenvalues --    0.53356   0.53493   0.55485   0.59204   0.59627
 Alpha virt. eigenvalues --    0.63502   0.65143   0.66769   0.67464   0.69906
 Alpha virt. eigenvalues --    0.70760   0.75109   0.75706   0.79329   0.84064
 Alpha virt. eigenvalues --    0.87793   0.90009   0.92587   0.93470   0.94009
 Alpha virt. eigenvalues --    0.97356   1.02149   1.05239   1.13716   1.15011
 Alpha virt. eigenvalues --    1.18959   1.22009   1.23322   1.24066   1.24078
 Alpha virt. eigenvalues --    1.28131   1.30749   1.34005   1.40047   1.47669
 Alpha virt. eigenvalues --    1.52133   1.58355   1.63712   1.67211   1.75850
 Alpha virt. eigenvalues --    1.78535   1.79198   1.80616   1.87018   1.89541
 Alpha virt. eigenvalues --    1.92987   1.95811   1.97434   1.99382   2.04233
 Alpha virt. eigenvalues --    2.06023   2.10144   2.18125   2.18235   2.26355
 Alpha virt. eigenvalues --    2.27255   2.35125   2.35326   2.35452   2.40019
 Alpha virt. eigenvalues --    2.41718   2.49617   2.51760   2.70319   2.74775
 Alpha virt. eigenvalues --    2.83988   2.84979   2.85541   2.86233   2.94254
 Alpha virt. eigenvalues --    3.09714   3.20793   3.34351   3.50360   3.51824
 Alpha virt. eigenvalues --    3.68657   3.71321   3.74436   3.75837   3.76144
 Alpha virt. eigenvalues --    3.83342   3.92881   4.04714   4.11932   4.38600
          Condensed to atoms (all electrons):
               1          2          3          4          5          6
     1  C    4.067676   0.449018   0.196345  -0.030248   0.002283  -0.000139
     2  O    0.449018   8.346512  -0.057893  -0.000038  -0.000134  -0.000256
     3  O    0.196345  -0.057893   8.305278   0.269738  -0.043328  -0.000901
     4  H   -0.030248  -0.000038   0.269738   0.436432  -0.090810  -0.013231
     5  N    0.002283  -0.000134  -0.043328  -0.090810   6.164372   0.411527
     6  H   -0.000139  -0.000256  -0.000901  -0.013231   0.411527   0.689213
     7  H    0.000810   0.000006  -0.003644  -0.008620   0.408788  -0.068434
     8  H    0.000447  -0.000017  -0.003117  -0.008149   0.407986  -0.071521
     9  H    0.250446  -0.082365  -0.004578  -0.006610   0.006816   0.000058
               7          8          9
     1  C    0.000810   0.000447   0.250446
     2  O    0.000006  -0.000017  -0.082365
     3  O   -0.003644  -0.003117  -0.004578
     4  H   -0.008620  -0.008149  -0.006610
     5  N    0.408788   0.407986   0.006816
     6  H   -0.068434  -0.071521   0.000058
     7  H    0.695565  -0.091074  -0.000817
     8  H   -0.091074   0.700185  -0.000591
     9  H   -0.000817  -0.000591   0.959264
 Mulliken charges:
               1
     1  C    1.063363
     2  O   -0.654833
     3  O   -0.657899
     4  H    0.451536
     5  N   -0.267500
     6  H    0.053685
     7  H    0.067420
     8  H    0.065853
     9  H   -0.121624
 Sum of Mulliken charges =  -0.00000
 Mulliken charges with hydrogens summed into heavy atoms:
               1
     1  C    0.941739
     2  O   -0.654833
     3  O   -0.206363
     5  N   -0.080543
 Electronic spatial extent (au):  <R**2>=            500.9774
 Charge=             -0.0000 electrons
 Dipole moment (field-independent basis, Debye):
    X=             -7.2533    Y=             -2.1206    Z=              0.0012  Tot=              7.5569
 Quadrupole moment (field-independent basis, Debye-Ang):
   XX=            -23.9608   YY=            -24.1812   ZZ=            -23.2681
   XY=              0.2076   XZ=              0.0004   YZ=             -0.0005
 Traceless Quadrupole moment (field-independent basis, Debye-Ang):
   XX=             -0.1574   YY=             -0.3778   ZZ=              0.5352
   XY=              0.2076   XZ=              0.0004   YZ=             -0.0005
 Octapole moment (field-independent basis, Debye-Ang**2):
  XXX=            -60.5046  YYY=             -1.7297  ZZZ=              0.1227  XYY=             -6.0960
  XXY=              2.1119  XXZ=             -0.0093  XZZ=             -4.5575  YZZ=             -1.3678
  YYZ=             -0.1152  XYZ=              0.0241
 Hexadecapole moment (field-independent basis, Debye-Ang**3):
 XXXX=           -499.9115 YYYY=            -56.0705 ZZZZ=            -24.3768 XXXY=              3.5851
 XXXZ=              0.0770 YYYX=             -0.2999 YYYZ=              0.0901 ZZZX=             -0.3570
 ZZZY=             -0.0328 XXYY=            -85.5085 XXZZ=            -79.6011 YYZZ=            -13.1836
 XXYZ=             -0.1388 YYXZ=              0.3276 ZZXY=              4.1879
 N-N= 1.172603571021D+02 E-N=-8.124519028382D+02  KE= 2.444361068769D+02
 Calling FoFJK, ICntrl=  10002127 FMM=F ISym2X=0 I1Cent= 0 IOpClX= 0 NMat=1 NMatS=1 NMatT=0.
 ***** Axes restored to original set *****
 -------------------------------------------------------------------
 Center     Atomic                   Forces (Hartrees/Bohr)
 Number     Number              X              Y              Z
 -------------------------------------------------------------------
      1        6           0.000040882   -0.000022103   -0.000007930
      2        8          -0.000023308    0.000002006    0.000003225
      3        8          -0.000018777    0.000016775    0.000001624
      4        1           0.000000474    0.000002182   -0.000001412
      5        7          -0.000000834    0.000000680    0.000003131
      6        1           0.000003663   -0.000000312    0.000000237
      7        1          -0.000000043   -0.000000536   -0.000001872
      8        1           0.000002427   -0.000000137    0.000000240
      9        1          -0.000004484    0.000001446    0.000002757
 -------------------------------------------------------------------
 Cartesian Forces:  Max     0.000040882 RMS     0.000011366

 GradGradGradGradGradGradGradGradGradGradGradGradGradGradGradGradGradGrad
 Berny optimization.
 FormGI is forming the generalized inverse of G from B-inverse, IUseBI=4.
 Internal  Forces:  Max     0.000022931 RMS     0.000006982
 Search for a local minimum.
 Step number   1 out of a maximum of   36
 All quantities printed in internal units (Hartrees-Bohrs-Radians)
 Mixed Optimization -- En-DIIS/RFO-DIIS
 Second derivative matrix not updated -- first step.
 ITU=  0
     Eigenvalues ---    0.00230   0.00230   0.00230   0.02403   0.02403
     Eigenvalues ---    0.06076   0.08837   0.09982   0.16000   0.16000
     Eigenvalues ---    0.16000   0.16000   0.16000   0.22000   0.32443
     Eigenvalues ---    0.44224   0.44281   0.44283   0.48509   0.55830
     Eigenvalues ---    0.97099
 RFO step:  Lambda= 0.00000000D+00 EMin= 2.30000000D-03
 Linear search not attempted -- first point.
 Iteration  1 RMS(Cart)=  0.00103857 RMS(Int)=  0.00000038
 Iteration  2 RMS(Cart)=  0.00000069 RMS(Int)=  0.00000002
 Variable       Old X    -DE/DX   Delta X   Delta X   Delta X     New X
                                 (Linear)    (Quad)   (Total)
    R1        2.29823  -0.00002   0.00000  -0.00002  -0.00002   2.29821
    R2        2.54402   0.00002   0.00000   0.00004   0.00004   2.54406
    R3        2.10042   0.00000   0.00000   0.00000   0.00000   2.10042
    R4        1.88100  -0.00001   0.00000  -0.00001  -0.00001   1.88099
    R5        3.40786  -0.00000   0.00000  -0.00008  -0.00008   3.40778
    R6        1.92887  -0.00000   0.00000  -0.00001  -0.00001   1.92887
    R7        1.92819  -0.00000   0.00000  -0.00000  -0.00000   1.92819
    R8        1.92817  -0.00000   0.00000  -0.00000  -0.00000   1.92817
    A1        2.15896  -0.00000   0.00000  -0.00002  -0.00002   2.15894
    A2        2.14289   0.00001   0.00000   0.00004   0.00004   2.14293
    A3        1.98134  -0.00000   0.00000  -0.00002  -0.00002   1.98132
    A4        1.90028  -0.00000   0.00000  -0.00003  -0.00003   1.90025
    A5        1.87215  -0.00000   0.00000  -0.00002  -0.00002   1.87213
    A6        2.00249   0.00000   0.00000   0.00002   0.00002   2.00251
    A7        2.00984  -0.00000   0.00000  -0.00002  -0.00002   2.00982
    A8        1.85470   0.00000   0.00000   0.00001   0.00001   1.85471
    A9        1.85462   0.00000   0.00000   0.00001   0.00001   1.85464
   A10        1.85883   0.00000   0.00000   0.00000   0.00000   1.85884
   A11        3.21269  -0.00000   0.00000  -0.00155  -0.00155   3.21114
   A12        3.14160  -0.00000   0.00000  -0.00019  -0.00019   3.14141
    D1        3.14144   0.00000   0.00000   0.00010   0.00010   3.14154
    D2        3.14156   0.00000   0.00000   0.00016   0.00016  -3.14146
    D3       -0.00012  -0.00000   0.00000  -0.00006  -0.00006  -0.00018
    D4       -3.10487   0.00000   0.00000  -0.00016  -0.00016  -3.10503
    D5        1.13355  -0.00000   0.00000  -0.00038  -0.00038   1.13316
    D6       -1.05504  -0.00000   0.00000   0.00009   0.00009  -1.05496
         Item               Value     Threshold  Converged?
 Maximum Force            0.000023     0.000450     YES
 RMS     Force            0.000007     0.000300     YES
 Maximum Displacement     0.002483     0.001800     NO 
 RMS     Displacement     0.001039     0.001200     YES
 Predicted change in Energy=-4.822007D-09
 GradGradGradGradGradGradGradGradGradGradGradGradGradGradGradGradGradGrad

                          Input orientation:                          
 ---------------------------------------------------------------------
 Center     Atomic      Atomic             Coordinates (Angstroms)
 Number     Number       Type             X           Y           Z
 ---------------------------------------------------------------------
      1          6           0        1.055384   -0.296289    0.000035
      2          8           0        2.263826   -0.159493    0.000107
      3          8           0        0.187213    0.732638   -0.000093
      4          1           0       -0.740296    0.371385   -0.000181
      5          7           0       -2.462078   -0.164739   -0.000058
      6          1           0       -3.040907    0.675210   -0.036055
      7          1           0       -2.750326   -0.674909    0.835263
      8          1           0       -2.738323   -0.736566   -0.798682
      9          1           0        0.562525   -1.292536    0.000203
 ---------------------------------------------------------------------
                    Distance matrix (angstroms):
                    1          2          3          4          5
     1  C    0.000000
     2  O    1.216160   0.000000
     3  O    1.346258   2.260137   0.000000
     4  H    1.915791   3.050669   0.995377   0.000000
     5  N    3.519921   4.725907   2.797146   1.803320   0.000000
     6  H    4.210073   5.370124   3.228831   2.320863   1.020712
     7  H    3.914637   5.109291   3.362758   2.415144   1.020354
     8  H    3.901795   5.098291   3.369727   2.420180   1.020343
     9  H    1.111493   2.044067   2.059657   2.113286   3.228026
                    6          7          8          9
     6  H    0.000000
     7  H    1.632928   0.000000
     8  H    1.632872   1.635153   0.000000
     9  H    4.105857   3.471854   3.441354   0.000000
 Stoichiometry    CH5NO2
 Framework group  C1[X(CH5NO2)]
 Deg. of freedom    21
 Full point group                 C1      NOp   1
 Largest Abelian subgroup         C1      NOp   1
 Largest concise Abelian subgroup C1      NOp   1
                         Standard orientation:                         
 ---------------------------------------------------------------------
 Center     Atomic      Atomic             Coordinates (Angstroms)
 Number     Number       Type             X           Y           Z
 ---------------------------------------------------------------------
      1          6           0        1.055449   -0.296094    0.000022
      2          8           0        2.263878   -0.159182    0.000093
      3          8           0        0.187179    0.732749   -0.000107
      4          1           0       -0.740295    0.371407   -0.000195
      5          7           0       -2.462025   -0.164883   -0.000072
      6          1           0       -3.040935    0.675010   -0.036069
      7          1           0       -2.750224   -0.675081    0.835250
      8          1           0       -2.738214   -0.736737   -0.798696
      9          1           0        0.562687   -1.292388    0.000189
 ---------------------------------------------------------------------
 Rotational constants (GHZ):          33.6629289           2.4493748           2.3113810
 Standard basis: Aug-CC-pVDZ (5D, 7F)
 There are   145 symmetry adapted cartesian basis functions of A   symmetry.
 There are   137 symmetry adapted basis functions of A   symmetry.
   137 basis functions,   227 primitive gaussians,   145 cartesian basis functions
    17 alpha electrons       17 beta electrons
       nuclear repulsion energy       117.2652121753 Hartrees.
 NAtoms=    9 NActive=    9 NUniq=    9 SFac= 1.00D+00 NAtFMM=   60 NAOKFM=F Big=F
 Integral buffers will be    131072 words long.
 Raffenetti 1 integral format.
 Two-electron integral symmetry is turned on.
 One-electron integrals computed using PRISM.
 NBasis=   137 RedAO= T EigKep=  4.35D-04  NBF=   137
 NBsUse=   137 1.00D-06 EigRej= -1.00D+00 NBFU=   137
 Initial guess from the checkpoint file:  "/scr/Gau-35736.chk"
 B after Tr=     0.000000    0.000000   -0.000000
         Rot=    1.000000    0.000033    0.000010    0.000015 Ang=   0.00 deg.
 Keep R1 ints in memory in canonical form, NReq=53296041.
 Requested convergence on RMS density matrix=1.00D-08 within 128 cycles.
 Requested convergence on MAX density matrix=1.00D-06.
 Requested convergence on             energy=1.00D-06.
 No special actions if energy rises.
 SCF Done:  E(RHF) =  -245.005384496     A.U. after    7 cycles
            NFock=  7  Conv=0.95D-08     -V/T= 2.0023
 ExpMin= 2.97D-02 ExpMax= 1.17D+04 ExpMxC= 4.01D+02 IAcc=3 IRadAn=         5 AccDes= 0.00D+00
 HarFok:  IExCor=  205 AccDes= 0.00D+00 IRadAn=         5 IDoV=-2 UseB2=F ITyADJ=14
 ICtDFT= 12500011 ScaDFX=  1.000000  1.000000  1.000000  1.000000
 Range of M.O.s used for correlation:     5   137
 NBasis=   137 NAE=    17 NBE=    17 NFC=     4 NFV=     0
 NROrb=    133 NOA=    13 NOB=    13 NVA=   120 NVB=   120

 **** Warning!!: The largest alpha MO coefficient is  0.10894971D+02

 Fully direct method using O(ONN) memory.
 JobTyp=1 Pass  1:  I=   5 to  17 NPSUse= 40 ParTrn=T ParDer=T DoDerP=T.
 Spin components of T(2) and E(2):
     alpha-alpha T2 =       0.2921115214D-01 E2=     -0.9570513712D-01
     alpha-beta  T2 =       0.1619143222D+00 E2=     -0.5466209998D+00
     beta-beta   T2 =       0.2921115214D-01 E2=     -0.9570513712D-01
 ANorm=    0.1104688475D+01
 E2 =    -0.7380312740D+00 EUMP2 =    -0.24574341577050D+03
          IDoAtm=111111111
          Differentiating once with respect to electric field.
                with respect to dipole field.
          Differentiating once with respect to nuclear coordinates.
 Keep R1 ints in memory in canonical form, NReq=53302501.
          There are     1 degrees of freedom in the 1st order CPHF.  IDoFFX=0 NUNeed=     1.
 LinEq1:  Iter=  0 NonCon=     1 RMS=5.71D-03 Max=1.23D-01 NDo=     1
 AX will form     1 AO Fock derivatives at one time.
 LinEq1:  Iter=  1 NonCon=     1 RMS=1.64D-03 Max=1.97D-02 NDo=     1
 LinEq1:  Iter=  2 NonCon=     1 RMS=5.88D-04 Max=7.79D-03 NDo=     1
 LinEq1:  Iter=  3 NonCon=     1 RMS=1.99D-04 Max=3.02D-03 NDo=     1
 LinEq1:  Iter=  4 NonCon=     1 RMS=7.01D-05 Max=5.21D-04 NDo=     1
 LinEq1:  Iter=  5 NonCon=     1 RMS=2.64D-05 Max=5.10D-04 NDo=     1
 LinEq1:  Iter=  6 NonCon=     1 RMS=7.34D-06 Max=9.24D-05 NDo=     1
 LinEq1:  Iter=  7 NonCon=     1 RMS=1.95D-06 Max=1.91D-05 NDo=     1
 LinEq1:  Iter=  8 NonCon=     1 RMS=6.43D-07 Max=5.90D-06 NDo=     1
 LinEq1:  Iter=  9 NonCon=     1 RMS=2.26D-07 Max=1.97D-06 NDo=     1
 LinEq1:  Iter= 10 NonCon=     1 RMS=5.10D-08 Max=4.65D-07 NDo=     1
 LinEq1:  Iter= 11 NonCon=     1 RMS=9.51D-09 Max=6.86D-08 NDo=     1
 LinEq1:  Iter= 12 NonCon=     1 RMS=1.43D-09 Max=9.87D-09 NDo=     1
 LinEq1:  Iter= 13 NonCon=     1 RMS=1.95D-10 Max=1.89D-09 NDo=     1
 LinEq1:  Iter= 14 NonCon=     0 RMS=3.28D-11 Max=3.49D-10 NDo=     1
 Linear equations converged to 1.000D-10 1.000D-09 after    14 iterations.
 End of Minotr F.D. properties file   721 does not exist.
 End of Minotr F.D. properties file   722 does not exist.
 End of Minotr F.D. properties file   788 does not exist.
 Calling FoFJK, ICntrl=  10002127 FMM=F ISym2X=0 I1Cent= 0 IOpClX= 0 NMat=1 NMatS=1 NMatT=0.
 ***** Axes restored to original set *****
 -------------------------------------------------------------------
 Center     Atomic                   Forces (Hartrees/Bohr)
 Number     Number              X              Y              Z
 -------------------------------------------------------------------
      1        6           0.000007892   -0.000007183    0.000012277
      2        8          -0.000005845   -0.000000275   -0.000004469
      3        8          -0.000007768    0.000027798   -0.000005506
      4        1           0.000011269   -0.000033481    0.000001674
      5        7          -0.000003788    0.000011691    0.000000819
      6        1          -0.000002868   -0.000001678    0.000000290
      7        1           0.000000989    0.000000318   -0.000000039
      8        1           0.000002693    0.000000713   -0.000001137
      9        1          -0.000002572    0.000002097   -0.000003909
 -------------------------------------------------------------------
 Cartesian Forces:  Max     0.000033481 RMS     0.000009874

 GradGradGradGradGradGradGradGradGradGradGradGradGradGradGradGradGradGrad
 Berny optimization.
 Using GEDIIS/GDIIS optimizer.
 FormGI is forming the generalized inverse of G from B-inverse, IUseBI=4.
 Internal  Forces:  Max     0.000028962 RMS     0.000007083
 Search for a local minimum.
 Step number   2 out of a maximum of   36
 All quantities printed in internal units (Hartrees-Bohrs-Radians)
 Mixed Optimization -- En-DIIS/RFO-DIIS
 Swapping is turned off.
 Update second derivatives using D2CorX and points    1    2
 DE=  1.87D-08 DEPred=-4.82D-09 R=-3.88D+00
 Trust test=-3.88D+00 RLast= 1.64D-03 DXMaxT set to 1.50D-01
 ITU= -1  0
     Eigenvalues ---    0.00223   0.00230   0.01616   0.02403   0.02603
     Eigenvalues ---    0.05792   0.08948   0.09955   0.14752   0.16000
     Eigenvalues ---    0.16000   0.16000   0.16486   0.21871   0.32441
     Eigenvalues ---    0.44105   0.44269   0.44283   0.47744   0.51372
     Eigenvalues ---    0.92839
 En-DIIS/RFO-DIIS/Sim-DIIS IScMMF=       -3 using points:     2    1
 RFO step:  Lambda=-4.25689681D-08.
 DidBck=T Rises=F RFO-DIIS coefs:    0.15602    0.84398
 Iteration  1 RMS(Cart)=  0.00088883 RMS(Int)=  0.00000029
 Iteration  2 RMS(Cart)=  0.00000054 RMS(Int)=  0.00000001
 Variable       Old X    -DE/DX   Delta X   Delta X   Delta X     New X
                                 (Linear)    (Quad)   (Total)
    R1        2.29821  -0.00001   0.00002  -0.00003  -0.00001   2.29820
    R2        2.54406   0.00000  -0.00003   0.00005   0.00002   2.54408
    R3        2.10042  -0.00000  -0.00000   0.00000   0.00000   2.10042
    R4        1.88099   0.00000   0.00001  -0.00002  -0.00001   1.88098
    R5        3.40778  -0.00000   0.00007  -0.00010  -0.00004   3.40774
    R6        1.92887   0.00000   0.00000  -0.00001  -0.00000   1.92886
    R7        1.92819  -0.00000   0.00000  -0.00000  -0.00000   1.92819
    R8        1.92817  -0.00000   0.00000  -0.00000  -0.00000   1.92817
    A1        2.15894   0.00000   0.00001  -0.00002  -0.00001   2.15893
    A2        2.14293   0.00000  -0.00003   0.00005   0.00002   2.14295
    A3        1.98132  -0.00000   0.00002  -0.00003  -0.00001   1.98131
    A4        1.90025  -0.00002   0.00002  -0.00005  -0.00003   1.90022
    A5        1.87213   0.00001   0.00002  -0.00002   0.00000   1.87213
    A6        2.00251  -0.00000  -0.00001   0.00002   0.00000   2.00251
    A7        2.00982  -0.00001   0.00002  -0.00003  -0.00002   2.00980
    A8        1.85471   0.00000  -0.00001   0.00002   0.00001   1.85472
    A9        1.85464   0.00000  -0.00001   0.00002   0.00001   1.85464
   A10        1.85884  -0.00000  -0.00000  -0.00000  -0.00000   1.85883
   A11        3.21114   0.00003   0.00131   0.00010   0.00141   3.21255
   A12        3.14141   0.00000   0.00016   0.00002   0.00018   3.14159
    D1        3.14154  -0.00000  -0.00008   0.00010   0.00002   3.14156
    D2       -3.14146  -0.00001  -0.00013   0.00017   0.00003  -3.14143
    D3       -0.00018   0.00000   0.00005  -0.00006  -0.00001  -0.00020
    D4       -3.10503   0.00000   0.00014  -0.00022  -0.00008  -3.10511
    D5        1.13316   0.00000   0.00032  -0.00023   0.00009   1.13326
    D6       -1.05496  -0.00000  -0.00007  -0.00025  -0.00032  -1.05528
         Item               Value     Threshold  Converged?
 Maximum Force            0.000029     0.000450     YES
 RMS     Force            0.000007     0.000300     YES
 Maximum Displacement     0.002212     0.001800     NO 
 RMS     Displacement     0.000889     0.001200     YES
 Predicted change in Energy=-2.128442D-08
 GradGradGradGradGradGradGradGradGradGradGradGradGradGradGradGradGradGrad

                          Input orientation:                          
 ---------------------------------------------------------------------
 Center     Atomic      Atomic             Coordinates (Angstroms)
 Number     Number       Type             X           Y           Z
 ---------------------------------------------------------------------
      1          6           0        1.055822   -0.296247    0.000028
      2          8           0        2.264166   -0.158640   -0.000007
      3          8           0        0.186960    0.732110   -0.000142
      4          1           0       -0.740295    0.370215   -0.000102
      5          7           0       -2.462442   -0.164671   -0.000061
      6          1           0       -3.040668    0.675694   -0.036017
      7          1           0       -2.751078   -0.674701    0.835210
      8          1           0       -2.739059   -0.736245   -0.798738
      9          1           0        0.563612   -1.292814    0.000371
 ---------------------------------------------------------------------
                    Distance matrix (angstroms):
                    1          2          3          4          5
     1  C    0.000000
     2  O    1.216154   0.000000
     3  O    1.346268   2.260137   0.000000
     4  H    1.915779   3.050651   0.995374   0.000000
     5  N    3.520723   4.726612   2.797060   1.803300   0.000000
     6  H    4.210368   5.370165   3.228320   2.320845   1.020711
     7  H    3.915768   5.110438   3.362885   2.415128   1.020353
     8  H    3.902915   5.099398   3.369779   2.420151   1.020342
     9  H    1.111493   2.044073   2.059657   2.113253   3.229506
                    6          7          8          9
     6  H    0.000000
     7  H    1.632931   0.000000
     8  H    1.632875   1.635151   0.000000
     9  H    4.106967   3.473642   3.443252   0.000000
 Stoichiometry    CH5NO2
 Framework group  C1[X(CH5NO2)]
 Deg. of freedom    21
 Full point group                 C1      NOp   1
 Largest Abelian subgroup         C1      NOp   1
 Largest concise Abelian subgroup C1      NOp   1
                         Standard orientation:                         
 ---------------------------------------------------------------------
 Center     Atomic      Atomic             Coordinates (Angstroms)
 Number     Number       Type             X           Y           Z
 ---------------------------------------------------------------------
      1          6           0        1.055844   -0.296227    0.000049
      2          8           0        2.264187   -0.158605    0.000014
      3          8           0        0.186970    0.732120   -0.000120
      4          1           0       -0.740281    0.370214   -0.000080
      5          7           0       -2.462421   -0.164692   -0.000040
      6          1           0       -3.040657    0.675666   -0.035995
      7          1           0       -2.751051   -0.674725    0.835232
      8          1           0       -2.739032   -0.736269   -0.798716
      9          1           0        0.563646   -1.292800    0.000392
 ---------------------------------------------------------------------
 Rotational constants (GHZ):          33.7026186           2.4485834           2.3108629
 Standard basis: Aug-CC-pVDZ (5D, 7F)
 There are   145 symmetry adapted cartesian basis functions of A   symmetry.
 There are   137 symmetry adapted basis functions of A   symmetry.
   137 basis functions,   227 primitive gaussians,   145 cartesian basis functions
    17 alpha electrons       17 beta electrons
       nuclear repulsion energy       117.2617135638 Hartrees.
 NAtoms=    9 NActive=    9 NUniq=    9 SFac= 1.00D+00 NAtFMM=   60 NAOKFM=F Big=F
 Integral buffers will be    131072 words long.
 Raffenetti 1 integral format.
 Two-electron integral symmetry is turned on.
 One-electron integrals computed using PRISM.
 NBasis=   137 RedAO= T EigKep=  4.34D-04  NBF=   137
 NBsUse=   137 1.00D-06 EigRej= -1.00D+00 NBFU=   137
 Initial guess from the checkpoint file:  "/scr/Gau-35736.chk"
 B after Tr=     0.000000    0.000000    0.000000
         Rot=    1.000000    0.000006   -0.000008   -0.000014 Ang=   0.00 deg.
 Keep R1 ints in memory in canonical form, NReq=53296041.
 Requested convergence on RMS density matrix=1.00D-08 within 128 cycles.
 Requested convergence on MAX density matrix=1.00D-06.
 Requested convergence on             energy=1.00D-06.
 No special actions if energy rises.
 SCF Done:  E(RHF) =  -245.005384218     A.U. after    8 cycles
            NFock=  8  Conv=0.75D-08     -V/T= 2.0023
 ExpMin= 2.97D-02 ExpMax= 1.17D+04 ExpMxC= 4.01D+02 IAcc=3 IRadAn=         5 AccDes= 0.00D+00
 HarFok:  IExCor=  205 AccDes= 0.00D+00 IRadAn=         5 IDoV=-2 UseB2=F ITyADJ=14
 ICtDFT= 12500011 ScaDFX=  1.000000  1.000000  1.000000  1.000000
 Range of M.O.s used for correlation:     5   137
 NBasis=   137 NAE=    17 NBE=    17 NFC=     4 NFV=     0
 NROrb=    133 NOA=    13 NOB=    13 NVA=   120 NVB=   120

 **** Warning!!: The largest alpha MO coefficient is  0.10888609D+02

 Fully direct method using O(ONN) memory.
 JobTyp=1 Pass  1:  I=   5 to  17 NPSUse= 40 ParTrn=T ParDer=T DoDerP=T.
 Spin components of T(2) and E(2):
     alpha-alpha T2 =       0.2921114749D-01 E2=     -0.9570508878D-01
     alpha-beta  T2 =       0.1619145841D+00 E2=     -0.5466213957D+00
     beta-beta   T2 =       0.2921114749D-01 E2=     -0.9570508878D-01
 ANorm=    0.1104688589D+01
 E2 =    -0.7380315733D+00 EUMP2 =    -0.24574341579173D+03
          IDoAtm=111111111
          Differentiating once with respect to electric field.
                with respect to dipole field.
          Differentiating once with respect to nuclear coordinates.
 Keep R1 ints in memory in canonical form, NReq=53302501.
          There are     1 degrees of freedom in the 1st order CPHF.  IDoFFX=0 NUNeed=     1.
 LinEq1:  Iter=  0 NonCon=     1 RMS=5.71D-03 Max=1.23D-01 NDo=     1
 AX will form     1 AO Fock derivatives at one time.
 LinEq1:  Iter=  1 NonCon=     1 RMS=1.64D-03 Max=1.97D-02 NDo=     1
 LinEq1:  Iter=  2 NonCon=     1 RMS=5.88D-04 Max=7.79D-03 NDo=     1
 LinEq1:  Iter=  3 NonCon=     1 RMS=1.99D-04 Max=3.02D-03 NDo=     1
 LinEq1:  Iter=  4 NonCon=     1 RMS=7.01D-05 Max=5.21D-04 NDo=     1
 LinEq1:  Iter=  5 NonCon=     1 RMS=2.64D-05 Max=5.10D-04 NDo=     1
 LinEq1:  Iter=  6 NonCon=     1 RMS=7.34D-06 Max=9.24D-05 NDo=     1
 LinEq1:  Iter=  7 NonCon=     1 RMS=1.95D-06 Max=1.91D-05 NDo=     1
 LinEq1:  Iter=  8 NonCon=     1 RMS=6.43D-07 Max=5.89D-06 NDo=     1
 LinEq1:  Iter=  9 NonCon=     1 RMS=2.26D-07 Max=1.97D-06 NDo=     1
 LinEq1:  Iter= 10 NonCon=     1 RMS=5.10D-08 Max=4.65D-07 NDo=     1
 LinEq1:  Iter= 11 NonCon=     1 RMS=9.51D-09 Max=6.85D-08 NDo=     1
 LinEq1:  Iter= 12 NonCon=     1 RMS=1.43D-09 Max=9.86D-09 NDo=     1
 LinEq1:  Iter= 13 NonCon=     1 RMS=1.95D-10 Max=1.89D-09 NDo=     1
 LinEq1:  Iter= 14 NonCon=     0 RMS=3.29D-11 Max=3.48D-10 NDo=     1
 Linear equations converged to 1.000D-10 1.000D-09 after    14 iterations.
 End of Minotr F.D. properties file   721 does not exist.
 End of Minotr F.D. properties file   722 does not exist.
 End of Minotr F.D. properties file   788 does not exist.
 Calling FoFJK, ICntrl=  10002127 FMM=F ISym2X=0 I1Cent= 0 IOpClX= 0 NMat=1 NMatS=1 NMatT=0.
 ***** Axes restored to original set *****
 -------------------------------------------------------------------
 Center     Atomic                   Forces (Hartrees/Bohr)
 Number     Number              X              Y              Z
 -------------------------------------------------------------------
      1        6           0.000004553    0.000000164    0.000016752
      2        8           0.000000912   -0.000001952   -0.000006197
      3        8           0.000000840    0.000001779   -0.000004106
      4        1          -0.000006742    0.000000021   -0.000002762
      5        7           0.000000089   -0.000001834    0.000002680
      6        1           0.000000598    0.000000702    0.000000179
      7        1          -0.000001292   -0.000000054   -0.000000275
      8        1           0.000001350    0.000000604   -0.000000848
      9        1          -0.000000308    0.000000569   -0.000005424
 -------------------------------------------------------------------
 Cartesian Forces:  Max     0.000016752 RMS     0.000004146

 GradGradGradGradGradGradGradGradGradGradGradGradGradGradGradGradGradGrad
 Berny optimization.
 Using GEDIIS/GDIIS optimizer.
 FormGI is forming the generalized inverse of G from B-inverse, IUseBI=4.
 Internal  Forces:  Max     0.000007434 RMS     0.000002630
 Search for a local minimum.
 Step number   3 out of a maximum of   36
 All quantities printed in internal units (Hartrees-Bohrs-Radians)
 Mixed Optimization -- En-DIIS/RFO-DIIS
 Swapping is turned off.
 Update second derivatives using D2CorX and points    2    3
 DE= -2.12D-08 DEPred=-2.13D-08 R= 9.97D-01
 Trust test= 9.97D-01 RLast= 1.46D-03 DXMaxT set to 1.50D-01
 ITU=  0 -1  0
     Eigenvalues ---    0.00223   0.00230   0.01863   0.02320   0.02403
     Eigenvalues ---    0.05787   0.08982   0.09953   0.14673   0.15999
     Eigenvalues ---    0.16000   0.16000   0.16734   0.21851   0.32440
     Eigenvalues ---    0.44105   0.44269   0.44283   0.47789   0.51368
     Eigenvalues ---    0.92861
 En-DIIS/RFO-DIIS/Sim-DIIS IScMMF=       -3 using points:     3    2    1
 RFO step:  Lambda=-1.46793965D-09.
 DidBck=T Rises=F RFO-DIIS coefs:    0.51615    0.03506    0.44879
 Iteration  1 RMS(Cart)=  0.00004015 RMS(Int)=  0.00000000
 Iteration  2 RMS(Cart)=  0.00000000 RMS(Int)=  0.00000000
 Variable       Old X    -DE/DX   Delta X   Delta X   Delta X     New X
                                 (Linear)    (Quad)   (Total)
    R1        2.29820   0.00000   0.00002  -0.00001   0.00000   2.29820
    R2        2.54408   0.00000  -0.00003   0.00003   0.00000   2.54408
    R3        2.10042  -0.00000  -0.00000   0.00000  -0.00000   2.10042
    R4        1.88098   0.00001   0.00001  -0.00000   0.00001   1.88099
    R5        3.40774  -0.00000   0.00005  -0.00005   0.00000   3.40774
    R6        1.92886   0.00000   0.00000  -0.00000   0.00000   1.92886
    R7        1.92819   0.00000   0.00000  -0.00000   0.00000   1.92819
    R8        1.92817  -0.00000   0.00000  -0.00000   0.00000   1.92817
    A1        2.15893   0.00000   0.00001  -0.00000   0.00001   2.15894
    A2        2.14295  -0.00000  -0.00003   0.00002  -0.00000   2.14294
    A3        1.98131  -0.00000   0.00002  -0.00002  -0.00000   1.98130
    A4        1.90022   0.00000   0.00003  -0.00002   0.00001   1.90023
    A5        1.87213  -0.00000   0.00001  -0.00001  -0.00000   1.87212
    A6        2.00251   0.00000  -0.00001   0.00002   0.00001   2.00252
    A7        2.00980  -0.00000   0.00002  -0.00002  -0.00001   2.00980
    A8        1.85472  -0.00000  -0.00001   0.00001  -0.00000   1.85472
    A9        1.85464   0.00000  -0.00001   0.00001  -0.00000   1.85464
   A10        1.85883   0.00000   0.00000   0.00000   0.00000   1.85884
   A11        3.21255  -0.00000   0.00001  -0.00003  -0.00001   3.21254
   A12        3.14159  -0.00000  -0.00000  -0.00010  -0.00010   3.14149
    D1        3.14156  -0.00000  -0.00005  -0.00004  -0.00010   3.14146
    D2       -3.14143  -0.00001  -0.00009  -0.00008  -0.00016   3.14159
    D3       -0.00020   0.00000   0.00003   0.00003   0.00007  -0.00013
    D4       -3.10511   0.00000   0.00011  -0.00018  -0.00007  -3.10518
    D5        1.13326  -0.00000   0.00013  -0.00019  -0.00006   1.13320
    D6       -1.05528  -0.00000   0.00012  -0.00018  -0.00006  -1.05534
         Item               Value     Threshold  Converged?
 Maximum Force            0.000007     0.000450     YES
 RMS     Force            0.000003     0.000300     YES
 Maximum Displacement     0.000127     0.001800     YES
 RMS     Displacement     0.000040     0.001200     YES
 Predicted change in Energy=-1.587178D-09
 Optimization completed.
    -- Stationary point found.
                           ----------------------------
                           !   Optimized Parameters   !
                           ! (Angstroms and Degrees)  !
 --------------------------                            --------------------------
 ! Name  Definition              Value          Derivative Info.                !
 --------------------------------------------------------------------------------
 ! R1    R(1,2)                  1.2162         -DE/DX =    0.0                 !
 ! R2    R(1,3)                  1.3463         -DE/DX =    0.0                 !
 ! R3    R(1,9)                  1.1115         -DE/DX =    0.0                 !
 ! R4    R(3,4)                  0.9954         -DE/DX =    0.0                 !
 ! R5    R(4,5)                  1.8033         -DE/DX =    0.0                 !
 ! R6    R(5,6)                  1.0207         -DE/DX =    0.0                 !
 ! R7    R(5,7)                  1.0204         -DE/DX =    0.0                 !
 ! R8    R(5,8)                  1.0203         -DE/DX =    0.0                 !
 ! A1    A(2,1,3)              123.6977         -DE/DX =    0.0                 !
 ! A2    A(2,1,9)              122.7819         -DE/DX =    0.0                 !
 ! A3    A(3,1,9)              113.5204         -DE/DX =    0.0                 !
 ! A4    A(1,3,4)              108.8745         -DE/DX =    0.0                 !
 ! A5    A(4,5,6)              107.265          -DE/DX =    0.0                 !
 ! A6    A(4,5,7)              114.7356         -DE/DX =    0.0                 !
 ! A7    A(4,5,8)              115.1533         -DE/DX =    0.0                 !
 ! A8    A(6,5,7)              106.2677         -DE/DX =    0.0                 !
 ! A9    A(6,5,8)              106.2633         -DE/DX =    0.0                 !
 ! A10   A(7,5,8)              106.5034         -DE/DX =    0.0                 !
 ! A11   L(3,4,5,9,-1)         184.0656         -DE/DX =    0.0                 !
 ! A12   L(3,4,5,9,-2)         180.0            -DE/DX =    0.0                 !
 ! D1    D(2,1,3,4)            179.9981         -DE/DX =    0.0                 !
 ! D2    D(2,1,3,9)            180.0093         -DE/DX =    0.0                 !
 ! D3    D(9,1,3,4)             -0.0112         -DE/DX =    0.0                 !
 ! D4    D(1,3,5,6)           -177.9098         -DE/DX =    0.0                 !
 ! D5    D(1,3,5,7)             64.9309         -DE/DX =    0.0                 !
 ! D6    D(1,3,5,8)            -60.463          -DE/DX =    0.0                 !
 --------------------------------------------------------------------------------
 GradGradGradGradGradGradGradGradGradGradGradGradGradGradGradGradGradGrad

                          Input orientation:                          
 ---------------------------------------------------------------------
 Center     Atomic      Atomic             Coordinates (Angstroms)
 Number     Number       Type             X           Y           Z
 ---------------------------------------------------------------------
      1          6           0        1.055822   -0.296247    0.000028
      2          8           0        2.264166   -0.158640   -0.000007
      3          8           0        0.186960    0.732110   -0.000142
      4          1           0       -0.740295    0.370215   -0.000102
      5          7           0       -2.462442   -0.164671   -0.000061
      6          1           0       -3.040668    0.675694   -0.036017
      7          1           0       -2.751078   -0.674701    0.835210
      8          1           0       -2.739059   -0.736245   -0.798738
      9          1           0        0.563612   -1.292814    0.000371
 ---------------------------------------------------------------------
                    Distance matrix (angstroms):
                    1          2          3          4          5
     1  C    0.000000
     2  O    1.216154   0.000000
     3  O    1.346268   2.260137   0.000000
     4  H    1.915779   3.050651   0.995374   0.000000
     5  N    3.520723   4.726612   2.797060   1.803300   0.000000
     6  H    4.210368   5.370165   3.228320   2.320845   1.020711
     7  H    3.915768   5.110438   3.362885   2.415128   1.020353
     8  H    3.902915   5.099398   3.369779   2.420151   1.020342
     9  H    1.111493   2.044073   2.059657   2.113253   3.229506
                    6          7          8          9
     6  H    0.000000
     7  H    1.632931   0.000000
     8  H    1.632875   1.635151   0.000000
     9  H    4.106967   3.473642   3.443252   0.000000
 Stoichiometry    CH5NO2
 Framework group  C1[X(CH5NO2)]
 Deg. of freedom    21
 Full point group                 C1      NOp   1
 Largest Abelian subgroup         C1      NOp   1
 Largest concise Abelian subgroup C1      NOp   1
                         Standard orientation:                         
 ---------------------------------------------------------------------
 Center     Atomic      Atomic             Coordinates (Angstroms)
 Number     Number       Type             X           Y           Z
 ---------------------------------------------------------------------
      1          6           0        1.055844   -0.296227    0.000049
      2          8           0        2.264187   -0.158605    0.000014
      3          8           0        0.186970    0.732120   -0.000120
      4          1           0       -0.740281    0.370214   -0.000080
      5          7           0       -2.462421   -0.164692   -0.000040
      6          1           0       -3.040657    0.675666   -0.035995
      7          1           0       -2.751051   -0.674725    0.835232
      8          1           0       -2.739032   -0.736269   -0.798716
      9          1           0        0.563646   -1.292800    0.000392
 ---------------------------------------------------------------------
 Rotational constants (GHZ):          33.7026186           2.4485834           2.3108629

 **********************************************************************

            Population analysis using the SCF Density.

 **********************************************************************

 Orbital symmetries:
       Occupied  (A) (A) (A) (A) (A) (A) (A) (A) (A) (A) (A) (A)
                 (A) (A) (A) (A) (A)
       Virtual   (A) (A) (A) (A) (A) (A) (A) (A) (A) (A) (A) (A)
                 (A) (A) (A) (A) (A) (A) (A) (A) (A) (A) (A) (A)
                 (A) (A) (A) (A) (A) (A) (A) (A) (A) (A) (A) (A)
                 (A) (A) (A) (A) (A) (A) (A) (A) (A) (A) (A) (A)
                 (A) (A) (A) (A) (A) (A) (A) (A) (A) (A) (A) (A)
                 (A) (A) (A) (A) (A) (A) (A) (A) (A) (A) (A) (A)
                 (A) (A) (A) (A) (A) (A) (A) (A) (A) (A) (A) (A)
                 (A) (A) (A) (A) (A) (A) (A) (A) (A) (A) (A) (A)
                 (A) (A) (A) (A) (A) (A) (A) (A) (A) (A) (A) (A)
                 (A) (A) (A) (A) (A) (A) (A) (A) (A) (A) (A) (A)
 The electronic state is 1-A.
 Alpha  occ. eigenvalues --  -20.59513 -20.54574 -15.60743 -11.38304  -1.43457
 Alpha  occ. eigenvalues --   -1.34422  -1.19749  -0.83672  -0.76117  -0.67915
 Alpha  occ. eigenvalues --   -0.67826  -0.63992  -0.59771  -0.57472  -0.48729
 Alpha  occ. eigenvalues --   -0.45713  -0.43816
 Alpha virt. eigenvalues --    0.01605   0.04247   0.04369   0.05879   0.07668
 Alpha virt. eigenvalues --    0.10606   0.11636   0.14876   0.15534   0.17432
 Alpha virt. eigenvalues --    0.17623   0.17785   0.18204   0.19641   0.23761
 Alpha virt. eigenvalues --    0.24327   0.25200   0.27400   0.27509   0.29109
 Alpha virt. eigenvalues --    0.29510   0.31963   0.32851   0.33145   0.37018
 Alpha virt. eigenvalues --    0.38489   0.42384   0.42869   0.43502   0.44275
 Alpha virt. eigenvalues --    0.48283   0.49393   0.50326   0.51052   0.52235
 Alpha virt. eigenvalues --    0.53356   0.53493   0.55484   0.59203   0.59627
 Alpha virt. eigenvalues --    0.63502   0.65143   0.66768   0.67466   0.69909
 Alpha virt. eigenvalues --    0.70761   0.75109   0.75706   0.79330   0.84064
 Alpha virt. eigenvalues --    0.87793   0.90008   0.92587   0.93471   0.94008
 Alpha virt. eigenvalues --    0.97354   1.02149   1.05239   1.13717   1.15010
 Alpha virt. eigenvalues --    1.18960   1.22010   1.23324   1.24068   1.24081
 Alpha virt. eigenvalues --    1.28131   1.30750   1.34005   1.40046   1.47669
 Alpha virt. eigenvalues --    1.52133   1.58354   1.63711   1.67212   1.75851
 Alpha virt. eigenvalues --    1.78537   1.79199   1.80618   1.87018   1.89541
 Alpha virt. eigenvalues --    1.92986   1.95810   1.97434   1.99380   2.04234
 Alpha virt. eigenvalues --    2.06022   2.10142   2.18126   2.18236   2.26355
 Alpha virt. eigenvalues --    2.27257   2.35126   2.35326   2.35454   2.40022
 Alpha virt. eigenvalues --    2.41717   2.49615   2.51763   2.70318   2.74775
 Alpha virt. eigenvalues --    2.83990   2.84978   2.85540   2.86235   2.94254
 Alpha virt. eigenvalues --    3.09718   3.20794   3.34349   3.50360   3.51825
 Alpha virt. eigenvalues --    3.68657   3.71321   3.74436   3.75838   3.76144
 Alpha virt. eigenvalues --    3.83341   3.92882   4.04714   4.11934   4.38603
          Condensed to atoms (all electrons):
               1          2          3          4          5          6
     1  C    4.067694   0.449031   0.196326  -0.030229   0.002274  -0.000142
     2  O    0.449031   8.346473  -0.057895  -0.000039  -0.000133  -0.000256
     3  O    0.196326  -0.057895   8.305312   0.269753  -0.043320  -0.000900
     4  H   -0.030229  -0.000039   0.269753   0.436431  -0.090821  -0.013230
     5  N    0.002274  -0.000133  -0.043320  -0.090821   6.164391   0.411517
     6  H   -0.000142  -0.000256  -0.000900  -0.013230   0.411517   0.689207
     7  H    0.000810   0.000006  -0.003643  -0.008622   0.408794  -0.068439
     8  H    0.000450  -0.000017  -0.003121  -0.008154   0.407996  -0.071504
     9  H    0.250430  -0.082363  -0.004580  -0.006619   0.006815   0.000059
               7          8          9
     1  C    0.000810   0.000450   0.250430
     2  O    0.000006  -0.000017  -0.082363
     3  O   -0.003643  -0.003121  -0.004580
     4  H   -0.008622  -0.008154  -0.006619
     5  N    0.408794   0.407996   0.006815
     6  H   -0.068439  -0.071504   0.000059
     7  H    0.695576  -0.091082  -0.000817
     8  H   -0.091082   0.700164  -0.000593
     9  H   -0.000817  -0.000593   0.959272
 Mulliken charges:
               1
     1  C    1.063355
     2  O   -0.654807
     3  O   -0.657932
     4  H    0.451530
     5  N   -0.267512
     6  H    0.053689
     7  H    0.067418
     8  H    0.065863
     9  H   -0.121604
 Sum of Mulliken charges =  -0.00000
 Mulliken charges with hydrogens summed into heavy atoms:
               1
     1  C    0.941751
     2  O   -0.654807
     3  O   -0.206402
     5  N   -0.080543
 Electronic spatial extent (au):  <R**2>=            500.9464
 Charge=             -0.0000 electrons
 Dipole moment (field-independent basis, Debye):
    X=             -7.2530    Y=             -2.1207    Z=              0.0013  Tot=              7.5567
 Quadrupole moment (field-independent basis, Debye-Ang):
   XX=            -23.9607   YY=            -24.1815   ZZ=            -23.2681
   XY=              0.2081   XZ=             -0.0001   YZ=             -0.0003
 Traceless Quadrupole moment (field-independent basis, Debye-Ang):
   XX=             -0.1573   YY=             -0.3781   ZZ=              0.5353
   XY=              0.2081   XZ=             -0.0001   YZ=             -0.0003
 Octapole moment (field-independent basis, Debye-Ang**2):
  XXX=            -60.4963  YYY=             -1.7302  ZZZ=              0.1224  XYY=             -6.0964
  XXY=              2.1131  XXZ=             -0.0102  XZZ=             -4.5570  YZZ=             -1.3681
  YYZ=             -0.1144  XYZ=              0.0242
 Hexadecapole moment (field-independent basis, Debye-Ang**3):
 XXXX=           -499.8701 YYYY=            -56.0778 ZZZZ=            -24.3767 XXXY=              3.5839
 XXXZ=              0.0734 YYYX=             -0.2987 YYYZ=              0.0919 ZZZX=             -0.3577
 ZZZY=             -0.0302 XXYY=            -85.5035 XXZZ=            -79.5950 YYZZ=            -13.1844
 XXYZ=             -0.1367 YYXZ=              0.3258 ZZXY=              4.1880
 N-N= 1.172617135638D+02 E-N=-8.124546819456D+02  KE= 2.444361585205D+02
 Unable to Open any file for archive entry.
 1\1\GINC-N3092\FOpt\RMP2-FC\Aug-CC-pVDZ\C1H5N1O2\GDS001\21-Mar-2025\0\
 \# MP2/aug-cc-pVDZ opt freq=(vibrot,anharmonic)\\blah\\0,1\C,1.0558220
 11,-0.2962468925,0.0000277819\O,2.2641659932,-0.1586397826,-0.00000745
 8\O,0.1869602077,0.7321100333,-0.000142121\H,-0.740294925,0.3702150056
 ,-0.0001020572\N,-2.4624416682,-0.1646707102,-0.0000614463\H,-3.040667
 5756,0.6756940769,-0.0360165405\H,-2.7510777923,-0.6747009125,0.835209
 9524\H,-2.7390593609,-0.7362445062,-0.798737816\H,0.5636121101,-1.2928
 143118,0.0003707047\\Version=EM64L-G16RevC.01\State=1-A\HF=-245.005384
 2\MP2=-245.7434158\RMSD=7.451e-09\RMSF=4.146e-06\Dipole=-2.6649412,-0.
 7282658,0.0004571\PG=C01 [X(C1H5N1O2)]\\@
 The archive entry for this job was punched.


 THE CAUTIOUS SELDOM ERR...CONFUCIUS                   
 Job cpu time:       0 days  0 hours 13 minutes 48.2 seconds.
 Elapsed time:       0 days  0 hours  0 minutes 25.8 seconds.
 File lengths (MBytes):  RWF=     15 Int=      0 D2E=      0 Chk=      3 Scr=      1
 Normal termination of Gaussian 16 at Fri Mar 21 06:35:03 2025.
 Link1:  Proceeding to internal job step number  2.
 ----------------------------------------------------------------------
 #N Geom=AllCheck Guess=TCheck SCRF=Check GenChk RMP2(FC)/Aug-CC-pVDZ F
 req
 ----------------------------------------------------------------------
 1/10=4,29=7,30=1,38=21,40=1,80=1/1,6,3;
 2/12=2,40=1/2;
 3/5=16,7=10,11=1,14=-4,25=1,30=1,70=2,71=2,116=1,140=1/1,2,3;
 4/5=101,69=2/1;
 5/5=2,38=6,98=1/2;
 8/6=3,8=1,10=1,19=11,30=-1/1;
 9/15=3,16=-3/6;
 11/6=1,8=1,15=11,17=12,24=-1,27=1,28=-2,29=300,32=6,42=3/1,2,10;
 10/6=2,21=1,60=-2/2;
 8/6=4,8=1,10=1,19=11,30=-1/11,4;
 10/5=1,20=4,60=-2/2;
 11/12=2,14=11,16=1,17=2,28=-2,42=3,76=2/2,10,12;
 6/7=2,8=2,9=2,10=2,22=-1/1;
 7/10=1,12=2,25=1,44=2,70=1,71=2/1,2,3,16;
 1/38=20,80=1/6(3);
 7/8=1,25=202,44=-1,70=1,71=1,92=10/16,17;
 1/10=4,30=1,38=20,80=1/3;
 99//99;
 3/5=16,7=10,11=1,14=-2,25=1,30=1,70=5,71=2,116=1,140=1/1,2,3;
 4/5=5,16=3,69=2/1;
 5/5=2,38=5,98=1/2;
 8/6=3,8=1,10=1,19=11,30=-1/1;
 9/15=3,16=-3/6;
 11/6=1,8=1,15=11,17=12,24=-1,27=1,28=-2,29=300,32=6,42=3/1,2,10;
 10/6=2,21=1,60=-2/2;
 8/6=4,8=1,10=1,19=11,30=-1/11,4;
 10/5=1,20=4,60=-2/2;
 11/12=2,14=11,16=1,17=2,28=-2,42=3,76=2/2,10,12;
 6/7=2,8=2,9=2,10=2,22=-1/1;
 7/7=1,10=1,12=2,25=1,44=2,70=1,71=1/1,2,3,16;
 1/38=20,80=1/6(-12);
 7/8=1,25=202,44=-1,70=1,71=1,92=10/16,17;
 1/10=4,30=1,38=20,80=1/3;
 99//99;
 Structure from the checkpoint file:  "/scr/Gau-35736.chk"
 ----
 blah
 ----
 Charge =  0 Multiplicity = 1
 Redundant internal coordinates found in file.  (old form).
 C,0,1.055822011,-0.2962468925,0.0000277819
 O,0,2.2641659932,-0.1586397826,-0.000007458
 O,0,0.1869602077,0.7321100333,-0.000142121
 H,0,-0.740294925,0.3702150056,-0.0001020572
 N,0,-2.4624416682,-0.1646707102,-0.0000614463
 H,0,-3.0406675756,0.6756940769,-0.0360165405
 H,0,-2.7510777923,-0.6747009125,0.8352099524
 H,0,-2.7390593609,-0.7362445062,-0.798737816
 H,0,0.5636121101,-1.2928143118,0.0003707047
 Recover connectivity data from disk.
 Numerical evaluation of third derivatives.
 Nuclear step= 0.010000 Angstroms, electric field step= 0.000333 atomic units, NStep=1.

 GradGradGradGradGradGradGradGradGradGradGradGradGradGradGradGradGradGrad
 Berny optimization.
 Initialization pass.
                           ----------------------------
                           !    Initial Parameters    !
                           ! (Angstroms and Degrees)  !
 --------------------------                            --------------------------
 ! Name  Definition              Value          Derivative Info.                !
 --------------------------------------------------------------------------------
 ! R1    R(1,2)                  1.2162         calculate D2E/DX2 analytically  !
 ! R2    R(1,3)                  1.3463         calculate D2E/DX2 analytically  !
 ! R3    R(1,9)                  1.1115         calculate D2E/DX2 analytically  !
 ! R4    R(3,4)                  0.9954         calculate D2E/DX2 analytically  !
 ! R5    R(4,5)                  1.8033         calculate D2E/DX2 analytically  !
 ! R6    R(5,6)                  1.0207         calculate D2E/DX2 analytically  !
 ! R7    R(5,7)                  1.0204         calculate D2E/DX2 analytically  !
 ! R8    R(5,8)                  1.0203         calculate D2E/DX2 analytically  !
 ! A1    A(2,1,3)              123.6977         calculate D2E/DX2 analytically  !
 ! A2    A(2,1,9)              122.7819         calculate D2E/DX2 analytically  !
 ! A3    A(3,1,9)              113.5204         calculate D2E/DX2 analytically  !
 ! A4    A(1,3,4)              108.8745         calculate D2E/DX2 analytically  !
 ! A5    A(4,5,6)              107.265          calculate D2E/DX2 analytically  !
 ! A6    A(4,5,7)              114.7356         calculate D2E/DX2 analytically  !
 ! A7    A(4,5,8)              115.1533         calculate D2E/DX2 analytically  !
 ! A8    A(6,5,7)              106.2677         calculate D2E/DX2 analytically  !
 ! A9    A(6,5,8)              106.2633         calculate D2E/DX2 analytically  !
 ! A10   A(7,5,8)              106.5034         calculate D2E/DX2 analytically  !
 ! A11   L(3,4,5,9,-1)         184.0656         calculate D2E/DX2 analytically  !
 ! A12   L(3,4,5,9,-2)         180.0            calculate D2E/DX2 analytically  !
 ! D1    D(2,1,3,4)            179.9981         calculate D2E/DX2 analytically  !
 ! D2    D(2,1,3,9)           -179.9907         calculate D2E/DX2 analytically  !
 ! D3    D(9,1,3,4)             -0.0112         calculate D2E/DX2 analytically  !
 ! D4    D(1,3,5,6)           -177.9098         calculate D2E/DX2 analytically  !
 ! D5    D(1,3,5,7)             64.9309         calculate D2E/DX2 analytically  !
 ! D6    D(1,3,5,8)            -60.463          calculate D2E/DX2 analytically  !
 --------------------------------------------------------------------------------
 Trust Radius=3.00D-01 FncErr=1.00D-07 GrdErr=1.00D-07 EigMax=2.50D+02 EigMin=1.00D-04
 Number of steps in this run=      2 maximum allowed number of steps=      2.
 GradGradGradGradGradGradGradGradGradGradGradGradGradGradGradGradGradGrad

                          Input orientation:                          
 ---------------------------------------------------------------------
 Center     Atomic      Atomic             Coordinates (Angstroms)
 Number     Number       Type             X           Y           Z
 ---------------------------------------------------------------------
      1          6           0        1.055822   -0.296247    0.000028
      2          8           0        2.264166   -0.158640   -0.000007
      3          8           0        0.186960    0.732110   -0.000142
      4          1           0       -0.740295    0.370215   -0.000102
      5          7           0       -2.462442   -0.164671   -0.000061
      6          1           0       -3.040668    0.675694   -0.036017
      7          1           0       -2.751078   -0.674701    0.835210
      8          1           0       -2.739059   -0.736245   -0.798738
      9          1           0        0.563612   -1.292814    0.000371
 ---------------------------------------------------------------------
                    Distance matrix (angstroms):
                    1          2          3          4          5
     1  C    0.000000
     2  O    1.216154   0.000000
     3  O    1.346268   2.260137   0.000000
     4  H    1.915779   3.050651   0.995374   0.000000
     5  N    3.520723   4.726612   2.797060   1.803300   0.000000
     6  H    4.210368   5.370165   3.228320   2.320845   1.020711
     7  H    3.915768   5.110438   3.362885   2.415128   1.020353
     8  H    3.902915   5.099398   3.369779   2.420151   1.020342
     9  H    1.111493   2.044073   2.059657   2.113253   3.229506
                    6          7          8          9
     6  H    0.000000
     7  H    1.632931   0.000000
     8  H    1.632875   1.635151   0.000000
     9  H    4.106967   3.473642   3.443252   0.000000
 Stoichiometry    CH5NO2
 Framework group  C1[X(CH5NO2)]
 Deg. of freedom    21
 Full point group                 C1      NOp   1
 Largest Abelian subgroup         C1      NOp   1
 Largest concise Abelian subgroup C1      NOp   1
                         Standard orientation:                         
 ---------------------------------------------------------------------
 Center     Atomic      Atomic             Coordinates (Angstroms)
 Number     Number       Type             X           Y           Z
 ---------------------------------------------------------------------
      1          6           0        1.055844   -0.296227    0.000049
      2          8           0        2.264187   -0.158605    0.000014
      3          8           0        0.186970    0.732120   -0.000120
      4          1           0       -0.740281    0.370214   -0.000080
      5          7           0       -2.462421   -0.164692   -0.000040
      6          1           0       -3.040657    0.675666   -0.035995
      7          1           0       -2.751051   -0.674725    0.835232
      8          1           0       -2.739032   -0.736269   -0.798716
      9          1           0        0.563646   -1.292800    0.000392
 ---------------------------------------------------------------------
 Rotational constants (GHZ):          33.7026186           2.4485834           2.3108629
 Standard basis: Aug-CC-pVDZ (5D, 7F)
 There are   145 symmetry adapted cartesian basis functions of A   symmetry.
 There are   137 symmetry adapted basis functions of A   symmetry.
   137 basis functions,   227 primitive gaussians,   145 cartesian basis functions
    17 alpha electrons       17 beta electrons
       nuclear repulsion energy       117.2617135638 Hartrees.
 NAtoms=    9 NActive=    9 NUniq=    9 SFac= 1.00D+00 NAtFMM=   60 NAOKFM=F Big=F
 Integral buffers will be    131072 words long.
 Raffenetti 1 integral format.
 Two-electron integral symmetry is turned on.
 One-electron integrals computed using PRISM.
 NBasis=   137 RedAO= T EigKep=  4.34D-04  NBF=   137
 NBsUse=   137 1.00D-06 EigRej= -1.00D+00 NBFU=   137
 Initial guess from the checkpoint file:  "/scr/Gau-35736.chk"
 B after Tr=    -0.000000   -0.000000    0.000000
         Rot=    1.000000    0.000000   -0.000000    0.000000 Ang=   0.00 deg.
 Keep R1 ints in memory in canonical form, NReq=53296041.
 Requested convergence on RMS density matrix=1.00D-08 within 128 cycles.
 Requested convergence on MAX density matrix=1.00D-06.
 Requested convergence on             energy=1.00D-06.
 No special actions if energy rises.
 SCF Done:  E(RHF) =  -245.005384218     A.U. after    1 cycles
            NFock=  1  Conv=0.10D-08     -V/T= 2.0023
 ExpMin= 2.97D-02 ExpMax= 1.17D+04 ExpMxC= 4.01D+02 IAcc=3 IRadAn=         5 AccDes= 0.00D+00
 HarFok:  IExCor=  205 AccDes= 0.00D+00 IRadAn=         5 IDoV=-2 UseB2=F ITyADJ=14
 ICtDFT= 12500011 ScaDFX=  1.000000  1.000000  1.000000  1.000000
 Range of M.O.s used for correlation:     5   137
 NBasis=   137 NAE=    17 NBE=    17 NFC=     4 NFV=     0
 NROrb=    133 NOA=    13 NOB=    13 NVA=   120 NVB=   120

 **** Warning!!: The largest alpha MO coefficient is  0.10888609D+02

 Disk-based method using ON**2 memory for 13 occupieds at a time.
 Permanent disk used for amplitudes=     5132640 words.
 Estimated scratch disk usage=    76159380 words.
 Actual    scratch disk usage=    69949844 words.
 JobTyp=1 Pass  1:  I=   5 to  17 NPSUse= 40 ParTrn=T ParDer=T DoDerP=T.
 (rs|ai) integrals will be sorted in core.
 Spin components of T(2) and E(2):
     alpha-alpha T2 =       0.2921114756D-01 E2=     -0.9570508888D-01
     alpha-beta  T2 =       0.1619145844D+00 E2=     -0.5466213960D+00
     beta-beta   T2 =       0.2921114756D-01 E2=     -0.9570508888D-01
 ANorm=    0.1104688589D+01
 E2 =    -0.7380315738D+00 EUMP2 =    -0.24574341579223D+03
 G2DrvN: will do    10 centers at a time, making    1 passes.
 Calling FoFCou, ICntrl=  3107 FMM=F I1Cent=   0 AccDes= 0.00D+00.
 End of G2Drv F.D. properties file   721 does not exist.
 End of G2Drv F.D. properties file   722 does not exist.
 End of G2Drv F.D. properties file   788 does not exist.
          IDoAtm=111111111
          Differentiating once with respect to electric field.
                with respect to dipole field.
          Differentiating once with respect to nuclear coordinates.
 Keep R1 ints in memory in canonical form, NReq=53297408.
          There are    30 degrees of freedom in the 1st order CPHF.  IDoFFX=6 NUNeed=    30.
     27 vectors produced by pass  0 Test12= 6.80D-15 3.33D-09 XBig12= 1.01D+01 1.35D+00.
 AX will form    27 AO Fock derivatives at one time.
     27 vectors produced by pass  1 Test12= 6.80D-15 3.33D-09 XBig12= 9.72D-01 1.93D-01.
     27 vectors produced by pass  2 Test12= 6.80D-15 3.33D-09 XBig12= 4.73D-02 4.44D-02.
     27 vectors produced by pass  3 Test12= 6.80D-15 3.33D-09 XBig12= 8.06D-04 6.17D-03.
     27 vectors produced by pass  4 Test12= 6.80D-15 3.33D-09 XBig12= 9.21D-06 4.61D-04.
     27 vectors produced by pass  5 Test12= 6.80D-15 3.33D-09 XBig12= 7.23D-08 4.84D-05.
     24 vectors produced by pass  6 Test12= 6.80D-15 3.33D-09 XBig12= 4.41D-10 4.33D-06.
      7 vectors produced by pass  7 Test12= 6.80D-15 3.33D-09 XBig12= 2.61D-12 2.10D-07.
      3 vectors produced by pass  8 Test12= 6.80D-15 3.33D-09 XBig12= 1.41D-14 1.46D-08.
 InvSVY:  IOpt=1 It=  1 EMax= 1.78D-15
 Solved reduced A of dimension   196 with    30 vectors.
 End of Minotr F.D. properties file   721 does not exist.
 End of Minotr F.D. properties file   722 does not exist.
 End of Minotr F.D. properties file   788 does not exist.
 MDV=  6710886400.
 Form MO integral derivatives with frozen-active canonical formalism.
 Discarding MO integrals.
 Reordered first order wavefunction length =      8323200
 In DefCFB: NBatch=  1 ICI= 17 ICA=120 LFMax= 60
            Large arrays: LIAPS=   162098400 LIARS=    51765000 words.
 Semi-Direct transformation.
 ModeAB=           4 MOrb=            17 LenV=    6710261197
 LASXX=     19984996 LTotXX=    19984996 LenRXX=    40403305
 LTotAB=    20418309 MaxLAS=    24515054 LenRXY=           0
 NonZer=    60388301 LenScr=    91353600 LnRSAI=    24515054
 LnScr1=    37552128 LExtra=           0 Total=    193824087
 MaxDsk=          -1 SrtSym=           T ITran=            4
 JobTyp=0 Pass  1:  I=   1 to  17.
 (rs|ai) integrals will be sorted in core.
 SymMOI:  orbitals are not symmetric.
 Spin components of T(2) and E(2):
     alpha-alpha T2 =       0.2921114756D-01 E2=     -0.9570508888D-01
     alpha-beta  T2 =       0.1619145844D+00 E2=     -0.5466213960D+00
     beta-beta   T2 =       0.2921114756D-01 E2=     -0.9570508888D-01
 ANorm=    0.1562265585D+01
 E2 =    -0.7380315738D+00 EUMP2 =    -0.24574341579223D+03
          IDoAtm=111111111
          Differentiating once with respect to electric field.
                with respect to dipole field.
          Differentiating once with respect to nuclear coordinates.
          There are     1 degrees of freedom in the 1st order CPHF.  IDoFFX=0 NUNeed=     1.
 LinEq1:  Iter=  0 NonCon=     1 RMS=5.71D-03 Max=1.23D-01 NDo=     1
 LinEq1:  Iter=  1 NonCon=     1 RMS=1.64D-03 Max=1.97D-02 NDo=     1
 LinEq1:  Iter=  2 NonCon=     1 RMS=5.88D-04 Max=7.79D-03 NDo=     1
 LinEq1:  Iter=  3 NonCon=     1 RMS=1.99D-04 Max=3.02D-03 NDo=     1
 LinEq1:  Iter=  4 NonCon=     1 RMS=7.01D-05 Max=5.21D-04 NDo=     1
 LinEq1:  Iter=  5 NonCon=     1 RMS=2.64D-05 Max=5.10D-04 NDo=     1
 LinEq1:  Iter=  6 NonCon=     1 RMS=7.34D-06 Max=9.24D-05 NDo=     1
 LinEq1:  Iter=  7 NonCon=     1 RMS=1.95D-06 Max=1.91D-05 NDo=     1
 LinEq1:  Iter=  8 NonCon=     1 RMS=6.43D-07 Max=5.89D-06 NDo=     1
 LinEq1:  Iter=  9 NonCon=     1 RMS=2.26D-07 Max=1.97D-06 NDo=     1
 LinEq1:  Iter= 10 NonCon=     1 RMS=5.10D-08 Max=4.65D-07 NDo=     1
 LinEq1:  Iter= 11 NonCon=     1 RMS=9.51D-09 Max=6.85D-08 NDo=     1
 LinEq1:  Iter= 12 NonCon=     1 RMS=1.43D-09 Max=9.86D-09 NDo=     1
 LinEq1:  Iter= 13 NonCon=     1 RMS=1.95D-10 Max=1.89D-09 NDo=     1
 LinEq1:  Iter= 14 NonCon=     0 RMS=3.29D-11 Max=3.48D-10 NDo=     1
 Linear equations converged to 1.000D-10 1.000D-09 after    14 iterations.
 End of Minotr F.D. properties file   721 does not exist.
 End of Minotr F.D. properties file   722 does not exist.
 End of Minotr F.D. properties file   788 does not exist.
 Symmetrizing basis deriv contribution to polar:
 IMax=3 JMax=2 DiffMx= 0.00D+00
 G2DrvN: will do    10 centers at a time, making    1 passes.
 Calling FoFCou, ICntrl=  3107 FMM=F I1Cent=   0 AccDes= 0.00D+00.
 End of G2Drv F.D. properties file   721 does not exist.
 End of G2Drv F.D. properties file   722 does not exist.
 End of G2Drv F.D. properties file   788 does not exist.
[...]
 00020618,0.00013133,0.00001355,-0.00028720,0.00017075,-0.00005141,0.00
 046880,0.00000544,-0.00022454,-0.00046086,-0.00008875,0.00031976,-0.00
 003031,0.00006771,0.00011518,0.00006191,-0.00007355,-0.00009065,0.0000
 2653,0.00017127,0.00028792,-0.00000296,-0.00013278,-0.00009505,0.00001
 348,0.00008455,-0.00015086,-0.00003905,-0.00010688,-0.00002569,0.00002
 009,-0.00020774,0.00013185,-0.00018436,0.00014740,0.00000395,0.0001244
 1,-0.00007279,0.00003294,-0.00001259,0.00025304,-0.00003725,-0.0000898
 6,-0.00008481,-0.00002868,0.00002398,-0.00000465,0.00001057,0.00006794
 ,0.00002024,-0.00001155,-0.00009755,0.00000034,0.00005930,-0.00001602,
 -0.00030391,-0.00039252,0.00008345,0.00009225,0.00010254,0.00011229,0.
 00002321,-0.00003117,-0.00025263,0.00012764,0.00030430,-0.12947546,-1.
 43189865,0.00048117,0.00718476,-0.01237623,0.00004009,-0.01051623,0.04
 143662,0.00000877,-0.00166650,-0.00305019,-0.00001629,-0.00047415,0.00
 103702,-0.00002616,-0.00037802,0.00007146,0.00001445,0.00030694,-0.000
 13425,-0.00014966,0.00035818,-0.00013607,0.00016840,0.13466047,-1.4352
 2220,-2.25672682,0.00104582,0.03930674,0.01225723,-0.00001173,-0.00881
 688,0.01144355,0.00001595,-0.00052506,0.00307671,-0.00001234,0.0002318
 6,-0.00044653,-0.00000491,0.00018070,0.00024059,0.00000679,-0.00009933
 ,-0.00014745,-0.00012789,-0.00010610,-0.00014783,0.00012967,1.40505028
 ,2.23045054,0.00052060,0.00105752,0.61566362,-0.00002427,-0.00000482,0
 .00887300,0.00002450,-0.00001325,0.01147036,-0.00000219,0.00000187,-0.
 00210539,-0.00000186,-0.00000330,0.00008338,0.00000346,0.00000338,0.00
 011250,-0.00022775,0.00004662,-0.00000582,0.00022829,-0.00004666,-0.00
 001279,-0.00052077,-0.00104136,-0.63407887,0.00233152,0.01497431,-0.04
 491748,0.00007074,-0.00014654,0.00756362,0.00090217,0.00036688,-0.0000
 3239,0.00497359,0.00154964,0.01202758,0.00004560,-0.00654039,-0.005465
 33,-0.00001483,0.00005461,0.00385694,0.00001528,-0.00003392,-0.0069778
 8,-0.00362729,-0.02034068,-0.00000103,-0.00724448,0.00866561,-0.000039
 82,4.86609600,-0.05636041,0.02878462,0.00007576,0.00475957,0.00201910,
 -0.00002913,2.38240769,-0.18272227,-0.00005459,0.00004652,-0.02278940,
 0.00002252,-0.00001077,0.00201606,-0.00015076,-0.00010874,-1.11454822,
 -0.00446546,0.02719808,-0.00001979,0.01042861,-0.01036490,0.00000431,-
 4.85525886,-2.34438803,0.00018297,4.80405534,0.04372580,0.00559170,0.0
 0000036,0.00528407,-0.00765535,0.00001203,-2.37588792,0.15372640,0.000
 04280,2.31316068,-0.12931399,-0.00002343,-0.00001131,0.00705459,0.0000
 0266,-0.00000172,0.00197520,0.00021559,0.00007207,1.13175198,-0.000217
 45,-0.00002182,-1.10404264,0.00337757,-0.01647572,0.00000533,-0.006782
 22,0.00587427,-0.00000207,0.00080392,0.00871346,-0.00001302,0.02813310
 ,0.01682112,0.00004532,0.01226879,0.00081182,-0.00346559,-0.00001510,-
 0.00213702,0.00122980,-0.00000354,0.00127168,0.00219231,-0.00001169,0.
 02096503,-0.02804662,-0.00002754,-0.01382769,0.03898638,-0.00000029,0.
 00000185,0.00032682,0.00000139,0.00000161,-0.00041696,-0.00000216,-0.0
 0000803,0.00095750,0.00001824,-0.00007269,-0.03521387,-0.00006987,0.00
 015925,0.04606056,0.00039726,-0.00168136,0.00000738,-0.00043418,0.0005
 6393,-0.00000340,-0.00070035,0.00130142,-0.00000640,0.00142239,0.00903
 621,-0.00030967,-0.00975109,-0.01409368,0.00042040,0.00641732,0.000848
 62,-0.00118958,0.00000556,-0.00075244,0.00027894,-0.00000029,-0.001892
 23,0.00033821,0.00000052,0.00289659,0.00535686,-0.00021118,0.00168347,
 -0.01171702,0.00048463,0.00093315,0.00557643,-0.00002872,0.00004023,-0
 .00003443,0.00002515,-0.00000689,0.00001709,0.00004084,-0.00001801,-0.
 00008160,-0.00005286,-0.00015966,-0.00119753,-0.00015693,0.00037265,0.
 00156639,0.00002562,-0.00025833,-0.00177476,0.00054389,-0.00152450,-0.
 00023747,-0.00078970,0.00045391,0.00011079,-0.00016193,0.00069103,0.00
 012635,0.00616202,-0.00228978,0.00831604,-0.01384103,0.00309697,-0.013
 00533,0.00131665,-0.00186137,0.00022962,0.00590169,-0.00036371,0.00043
 863,-0.00004586,0.00017424,-0.00007992,0.00003631,0.00092517,-0.000102
 22,-0.00005201,-0.00024416,-0.00161113,0.00025559,-0.00314166,0.000377
 23,0.00192392,0.00175251,0.00064621,0.00018447,0.00058192,-0.00070928,
 0.00085179,-0.00084331,0.00002785,-0.00066499,0.00015824,-0.00000286,-
 0.00156962,-0.00000815,0.00001629,0.00374121,-0.00040431,0.00164836,-0
 .00085520,0.00439961,-0.00706261,-0.00157320,0.00006043,0.00072335,0.0
 0227840,-0.00284975,0.00401800,0.00056661,-0.00153500,0.00023648,-0.00
 080496,0.00045692,-0.00010927,-0.00018016,0.00065602,-0.00011327,0.006
 45275,-0.00286770,-0.00803554,-0.01413092,0.00413096,0.01264469,0.0012
 8159,-0.00188468,-0.00008523,0.00085785,0.00037035,-0.00219473,0.00594
 258,-0.00041795,0.00051935,0.00005545,0.00022241,-0.00009321,-0.000035
 32,0.00105044,-0.00010374,0.00007282,-0.00054470,-0.00161084,-0.000055
 68,-0.00300829,-0.00012881,-0.00248913,0.00189045,0.00064099,-0.000148
 96,0.00052740,0.00113320,-0.00058743,0.00034315,-0.00025351,-0.0008167
 8,0.00079792,0.00001651,0.00064063,-0.00014824,-0.00000111,0.00149981,
 0.00003020,0.00000641,-0.00366306,0.00061945,0.00142469,0.00105012,-0.
 00488218,-0.00634621,0.00144006,-0.00008087,0.00075704,0.00218430,0.00
 054752,0.00060333,-0.00235289,0.00318514,0.00350906,-0.00002627,-0.000
 98201,-0.00002925,-0.00024883,-0.00065898,0.00003901,0.00027316,0.0022
 1925,0.00000621,0.00307009,-0.00698247,0.00000649,-0.00007810,-0.00021
 808,-0.00000708,0.00005040,0.00002890,0.00000251,0.00001056,-0.0000546
 7,-0.00001365,0.00001467,-0.00006291,0.00001780,-0.00306569,-0.0047681
 2,0.00221077,0.00002477,-0.00137732,-0.00226158,-0.00000074,0.00380024
 ,-0.00413241,0.00002054,-0.00867858,0.00356297,0.00000158,0.00336104,0
 .00057234,-0.00000141,0.00029738,0.00006897,-0.00000550,0.00032442,-0.
 00009273,0.00007466,0.00032998,-0.00010343,-0.00006893,0.00671096,0.00
 017511,0.00001611,0.00006002,0.00397751,-0.00001025,-0.00000391,-0.000
 46647,0.00000715,-0.00000596,0.00267099,0.00000643,-0.00001615,-0.0034
 0077,-0.00000368,0.00000853,0.00012839,-0.00000078,-0.00000047,0.00002
 444,-0.00000269,-0.00000019,0.00002828,0.00000975,0.00000311,0.0000302
 7,-0.00002204,-0.00004499,-0.00299265,-0.00028473,-0.00002583,0.000785
 02,0.00007856,-0.00014723,-0.00012020,0.00035151,-0.00021107,-0.000032
 75,-0.00058619,-0.00008539,-0.00022332,0.00004395,0.00024215,0.0001741
 2,-0.00001346,0.00005545,-0.00024290,0.00001306,-0.00003255,0.00034206
 ,-0.00009754,0.00151629,-0.00001253,0.00053237,-0.00052704,-0.00003280
 ,0.01034768,-0.00003567,-0.00038158,0.00008215,0.00009279,0.00000151,-
 0.00002944,0.00426759,0.00061919,-0.00007476,0.00004972,0.00063143,0.0
 0002273,-0.00001165,-0.00014627,0.00002622,-0.00004217,-0.00235820,0.0
 0051980,-0.00183924,-0.00000582,-0.00057754,0.00052774,-0.00000115,-0.
 01276214,-0.00487073,0.00001222,0.01426972,0.00021090,-0.00043350,-0.0
 0000182,-0.00027196,0.00016732,0.00001110,-0.00599995,-0.00006769,-0.0
 0001510,0.00693998,-0.00043029,0.00000882,-0.00000717,-0.00014952,0.00
 000472,0.00000383,-0.00002256,0.00000216,-0.00001002,0.00227182,-0.000
 00409,0.00001730,-0.00284158,-0.00074067,0.00096357,-0.00000106,0.0004
 7117,-0.00020309,-0.00000029,0.00253185,0.00038399,-0.00001252,-0.0026
 3510,-0.00083709,0.00002580,0.00893834,-0.00001256,0.00020961,-0.00001
 568,0.00013881,-0.00013095,-0.00000842,0.00098321,0.00003468,0.0000169
 7,-0.00041473,-0.00102729,0.00004527,-0.37584514,1.48801441,-0.0000129
 4,0.00000101,0.00000147,-0.00000163,-0.00000210,-0.00001941,-0.0000051
 7,-0.00000341,0.00002861,0.00000076,0.00000693,-0.00136406,0.00299515,
 -0.00323173,1.49465351,0.00033520,-0.00013737,0.00000290,-0.00012710,0
 .00000518,-0.00000151,-0.00024365,-0.00016683,0.00001199,0.00050797,0.
 00036713,-0.00001952,-0.31397427,0.93315418,-0.03966246,0.28273520,-0.
 00090901,0.00095676,0.00000448,0.00054273,-0.00012427,0.00000042,0.000
 80345,-0.00064922,0.00000728,-0.00221834,0.00041942,-0.00005668,0.8889
 6314,-1.00649763,0.05549376,-0.91571528,1.02042791,0.00003670,-0.00003
 041,-0.00000070,-0.00002086,0.00000184,0.00001194,-0.00003146,0.000021
 42,-0.00008100,0.00008412,-0.00000698,0.00022498,-0.03797846,0.0557927
 1,0.28850218,0.03888388,-0.05676601,-0.30379960,-0.00004362,-0.0000659
 1,-0.00000993,0.00000661,0.00001816,0.00000895,-0.00012146,0.00007485,
 -0.00015320,0.00028167,-0.00023037,0.00062485,0.14670297,-0.26844418,0
 .44910595,0.01545735,0.01363671,-0.01723529,-0.17566516,0.00044148,-0.
 00035586,0.00002677,-0.00027494,0.00004598,-0.00000521,-0.00041825,0.0
 0016319,0.00001519,0.00076685,0.00061142,-0.00037932,-0.24762886,-0.18
 210533,0.74935650,-0.00882958,-0.00626702,0.03149334,0.25207520,0.1711
 7025,-0.00088088,0.00066857,0.00000957,0.00051583,-0.00011654,0.000018
 76,0.00066277,-0.00027753,-0.00016607,-0.00128772,-0.00104143,0.000929
 07,0.41135994,0.74286873,-0.94346710,0.00504438,-0.00471205,0.00653482
 ,-0.42393757,-0.75779448,0.95164763,-0.00006182,-0.00006195,0.00001083
 ,0.00001352,0.00001654,-0.00001073,-0.00011845,0.00008605,0.00015790,0
 .00028840,-0.00029210,-0.00063941,0.15868697,-0.28937477,-0.41243014,0
 .01527169,0.01481642,0.01627159,0.01335415,0.00389111,0.00859876,-0.18
 745163,0.00050757,-0.00041165,-0.00001754,-0.00031123,0.00006003,0.000
 01061,-0.00047062,0.00018613,-0.00003605,0.00084968,0.00070824,0.00038
 602,-0.26570245,-0.29847736,-0.80162036,-0.00871062,-0.00822252,-0.030
 50930,0.00293208,0.01675781,0.02034294,0.27091189,0.28942974,0.0008524
 1,-0.00063634,0.00000920,-0.00049223,0.00011633,0.00002292,-0.00062675
 ,0.00025777,-0.00018354,0.00120314,0.00103551,0.00088902,-0.37638265,-
 0.79546227,-0.83836033,-0.00426243,0.00602787,0.00862974,-0.00841885,-
 0.02272339,-0.01549420,0.38805013,0.81144868,0.84450290,0.00002187,-0.
 00013849,-0.00003020,-0.00008435,0.00000575,0.00003794,-0.00006864,0.0
 0016797,0.00000943,0.00010723,0.00011348,-0.00000333,0.00001876,-0.000
 18482,0.00001048,0.00003761,0.00008017,-0.00001022,0.00002752,-0.00002
 301,-0.00007551,0.00001717,-0.00000629,0.00007722,-0.00007716,-0.00009
 147,-0.00014549,0.00002492,0.00005272,0.00002960,-0.00000197,-0.000154
 68,0.00009379,0.00001580,0.00025879,0.00005237,0.00000076,-0.00009407,
 -0.00002013,-0.00000060,0.00003320,-0.00004343,0.00000340,0.00000346,-
 0.00002043,0.00006180,0.00000681,-0.00003042,-0.00006417,-0.00001476,0
 .00008415,0.00000555,0.00004640,-0.00013836,-0.00000887,-0.00000311,0.
 00003548,0.00001757,0.00000123,0.00000324,-0.00000145,-0.00000551,0.00
 006283,-0.00000592,-0.00000559,0.00002514,0.00000278,0.00000092,-0.000
 02235,0.00001510,0.00001060,-0.00001249,-0.00000892,-0.00000501,-0.000
 01569,-0.00001583,-0.00003994,0.00006219,0.00009748,-0.00014126,-0.000
 25286,0.00007863,-0.00015063,0.00042083,-0.00011922,0.00021592,-0.0000
 3415,0.00011396,0.00001564,0.00008650,0.00004610,-0.00007240,-0.000080
 87,-0.00001350,0.00005661,-0.00002199,0.00001442,-0.00003317,-0.000020
 22,-0.00035308,-0.00007533,-0.00001016,0.00006862,0.00001187,-0.000032
 75,0.00046488,0.00005321,0.00007070,0.00008249,-0.00006365,0.00002462,
 -0.00002922,0.00018370,0.00003271,-0.00007608,0.00005196,-0.00021035,0
 .00002369,-0.00001163,0.00003127,0.00002780,-0.00003695,0.00038952,-0.
 00002601,0.00007821,-0.00000744,0.00008610,-0.00001287,-0.00000140,0.0
 0011721,-0.00025960,0.00001258,-0.00107747,0.00004257,0.00001124,0.000
 00325,-0.00003767,0.00004737,0.00000934,-0.00041699,-0.00031529,-0.000
 01760,0.00073640,0.00013355,0.00000376,-0.00000268,-0.00017215,0.00000
 583,0.00000031,-0.00002111,0.00001030,-0.00001655,-0.00035081,-0.00002
 768,0.00002128,0.00105624,0.00021329,-0.00027431,0.00000836,-0.0003401
 8,0.00005692,-0.00000062,-0.00006501,0.00024480,-0.00000529,-0.0007009
 6,0.00048422,-0.00001529,0.50843105,0.00063610,-0.00191530,-0.00003041
 ,-0.00045127,0.00033779,-0.00000379,-0.00017432,0.00266417,-0.00003005
 ,0.00292986,-0.00287917,0.00013417,-1.63129217,2.15880102,-0.00002995,
 0.00004100,-0.00005377,0.00001353,-0.00000944,-0.00000021,-0.00000316,
 -0.00006909,0.00073214,-0.00007102,0.00006071,-0.00270511,0.06085340,-
 0.08248147,0.37067295,0.00044215,-0.00051692,0.00000223,-0.00007615,0.
 00016066,-0.00000227,-0.00094515,0.00009982,-0.00000324,0.00181724,-0.
 00056763,0.00003926,-0.66603623,1.94415249,-0.08328084,0.65788579,-0.0
 0030975,0.00129185,0.00001598,0.00016882,-0.00025383,0.00000152,-0.000
 21204,-0.00166655,0.00004460,-0.00190496,0.00200550,-0.00016249,1.9240
 1086,-1.99151591,0.11551301,-1.91547318,1.97427047,0.00002258,-0.00005
 857,0.00005168,-0.00000551,0.00001381,0.00002921,-0.00000477,0.0000691
 4,0.00003710,0.00007561,-0.00007954,0.00020003,-0.08254088,0.11563599,
 0.69307553,0.08205787,-0.11424247,-0.68014662,-0.00020105,0.00029796,-
 0.00002074,0.00013013,-0.00006929,-0.00001002,0.00030850,-0.00009612,0
 .00002863,-0.00009804,-0.00013789,0.00010004,0.07572588,-0.15132471,0.
 27936160,0.00342614,-0.00319760,-0.00020841,-0.08805074,-0.00018685,0.
 00029170,0.00002338,0.00016643,-0.00005936,0.00000333,0.00035645,-0.00
 040067,-0.00009800,-0.00078649,0.00047804,0.00013146,-0.14101347,-0.05
 129912,0.40983637,-0.01377678,0.00815722,0.00454771,0.15482892,0.03447
 282,-0.00022505,-0.00011332,0.00002543,0.00010840,0.00006007,0.0000032
 3,-0.00019571,0.00011254,-0.00033236,-0.00027701,-0.00063407,0.0009814
 8,0.25704239,0.40271204,-0.56059780,0.00733295,-0.00269631,-0.00667907
 ,-0.27158525,-0.40636311,0.57500127,-0.00020229,0.00030197,0.00001641,
 0.00013189,-0.00007029,0.00000811,0.00031190,-0.00009646,-0.00001772,-
 0.00010378,-0.00016151,-0.00012100,0.08265645,-0.16429495,-0.25683759,
 0.00351855,-0.00316655,0.00060635,0.00874896,0.00043775,0.00789972,-0.
 09506351,-0.00017361,0.00029041,-0.00001649,0.00015877,-0.00005898,-0.
 00000276,0.00036325,-0.00040247,0.00008315,-0.00076054,0.00051578,-0.0
 0010438,-0.15219691,-0.11445587,-0.44289094,-0.01422356,0.00792556,-0.
 00589878,-0.00025131,0.00837632,0.00678548,0.16709923,0.09783605,0.000
 23461,0.00012965,0.00002491,-0.00011787,-0.00006303,0.00000503,0.00019
 092,-0.00011308,-0.00033179,0.00029863,0.00064220,0.00096443,-0.235340
 02,-0.43593520,-0.50107218,-0.00614564,0.00152319,-0.00655593,-0.00767
 503,-0.00808584,-0.00841171,0.24844996,0.44204926,0.51537253,0.0001487
 3,0.00011375,-0.00003314,0.00000483,-0.00002025,0.00003802,0.00009214,
 -0.00006570,0.00000964,-0.00001429,0.00005851,0.00000478,0.00011571,-0
 .00018103,-0.00000597,-0.00003235,0.00008438,-0.00000284,0.00001022,-0
 .00002595,-0.00010045,0.00000182,-0.00001531,0.00010444,-0.00032681,0.
 00006394,0.00012575,0.00002634,-0.00008495,-0.00004326,-0.00000185,-0.
 00003660,-0.00000720,0.00001453,-0.00002001,0.00000299,-0.00000112,-0.
 00001994,0.00026240,-0.00000015,0.00014510,-0.00021430,0.00001271,-0.0
 0004996,-0.00001694,0.00013669,-0.00004918,-0.00002680,-0.00014715,0.0
 0005160,-0.00008265,0.00000499,0.00004598,-0.00006459,-0.00000834,-0.0
 0000301,-0.00000521,0.00001752,0.00000072,0.00003531,-0.00000225,-0.00
 000556,0.00004701,-0.00000204,-0.00000127,-0.00005153,-0.00000033,0.00
 000297,-0.00001193,0.00000918,0.00000471,0.00000954,-0.00000426,-0.000
 00454,0.00000471,-0.00001447,-0.00004000,0.00003671,0.00013998,0.00021
 478,0.00074067,0.00008140,-0.00015553,0.00045340,0.00001417,-0.0003723
 9,-0.00002875,0.00000689,-0.00004054,-0.00016230,0.00004164,0.00013748
 ,0.00002278,-0.00001247,0.00005552,0.00006418,0.00001071,-0.00003120,-
 0.00011797,-0.00007126,0.00018310,-0.00001573,0.00002664,-0.00008214,-
 0.00003067,0.00062350,-0.00009010,-0.00019183,0.00008902,0.00017963,0.
 00003860,-0.00003074,0.00011176,0.00044350,-0.00006707,0.00004827,-0.0
 0011509,0.00001871,-0.00000739,-0.00001838,0.00002360,-0.00005020,0.00
 029745,0.00004744,0.00005311,-0.00000597,0.00000236,0.00000853,-0.0000
 0035,-0.00065310,-0.00017098,0.00001642,0.00046952,-0.00032769,0.00025
 723,-0.00000879,0.00001389,-0.00006655,0.00001260,0.00014282,-0.000480
 92,-0.00001795,-0.00049580,0.00037547,-0.00000880,-0.00000332,-0.00023
 029,0.00000436,0.00000108,0.00002828,-0.00001064,-0.00001137,-0.000234
 44,0.00001531,0.00003249,0.00060729,0.00074528,-0.00040788,0.00000789,
 -0.00039482,0.00002537,-0.00000107,0.00064454,0.00033136,-0.00000789,-
 0.00064931,0.00099338,0.00001550,-0.55579342,-0.00042029,0.00005266,-0
 .00000749,0.00028698,0.00009130,-0.00000805,-0.00063760,-0.00002352,0.
 00006015,-0.00000513,-0.00253399,-0.00008535,1.00470012,0.77743778,0.0
 0001731,-0.00007778,-0.00007262,-0.00001466,0.00001093,-0.00007768,-0.
 00000688,0.00007633,0.00150739,0.00006554,-0.00003203,-0.00422005,-0.0
 6050563,0.08815196,2.82060456,-0.00035532,0.00030989,-0.00000391,0.000
 21364,-0.00006463,0.00000066,0.00066814,0.00006464,-0.00000247,-0.0005
 3886,-0.00038091,0.00000630,-0.00224298,-0.00794898,0.00036838,-0.0028
 1328,-0.00008314,0.00023796,-0.00000140,0.00003160,-0.00006834,-0.0000
 0051,0.00023747,-0.00007570,-0.00000667,-0.00028575,0.00007996,0.00002
 555,-0.03427693,0.00198991,-0.00100051,0.00295448,0.00803034,0.0000002
 5,0.00001091,0.00006619,0.00000056,-0.00000253,-0.00000888,0.00000732,
 -0.00000819,-0.00024813,0.00000161,0.00000363,0.00045469,0.00134440,-0
 .00077161,-0.01906774,-0.00006696,-0.00044810,-0.00173180,-0.00016236,
 0.00009034,-0.00007170,0.00003736,0.00000281,0.00000840,-0.00058659,-0
 .00024490,-0.00014819,0.00063520,-0.00005338,0.00042540,0.26788644,-0.
 47964629,0.75486120,0.00259755,0.01538048,-0.01001508,-0.26747163,0.00
 036473,-0.00032019,-0.00000550,-0.00019288,0.00002791,-0.00000773,-0.0
 0000707,0.00011845,0.00043931,0.00048887,0.00116670,-0.00125564,-0.468
 16216,-0.28798034,1.28530505,0.00255531,-0.00516869,0.00332647,0.46346
 995,0.29616037,-0.00011284,0.00000941,0.00005925,0.00007996,0.00001263
 ,0.00003722,-0.00060194,0.00003710,-0.00061677,-0.00002775,-0.00108676
 ,0.00184588,0.73565395,1.28344715,-1.48699001,0.00141927,-0.00488385,0
 .01032614,-0.74063039,-1.28327733,1.46551010,-0.00016713,0.00010399,0.
 00006268,0.00003784,-0.00000111,-0.00001028,-0.00060361,-0.00024111,0.
 00015876,0.00064608,-0.00010437,-0.00044070,0.28970935,-0.51605093,-0.
 69479058,0.00245196,0.01601016,0.00873055,-0.00295290,0.00144793,0.004
 22669,-0.28913663,0.00037439,-0.00026973,0.00001760,-0.00019680,0.0000
 1865,0.00001253,0.00006680,0.00007113,-0.00048221,0.00044193,0.0013171
 4,0.00129729,-0.50312468,-0.48923279,-1.37245221,0.00248571,-0.0049603
 3,-0.00210923,0.00103398,-0.00397664,0.00561864,0.49886969,0.49709029,
 0.00009463,0.00005928,0.00005460,-0.00006230,-0.00002079,0.00004197,0.
 00061779,-0.00010141,-0.00058747,-0.00006357,0.00110519,0.00170270,-0.
 67649493,-1.37079140,-1.31168301,-0.00172554,0.00631782,0.01022620,-0.
 00443861,-0.00449174,0.00984507,0.68206500,1.36806140,1.29040604,-0.00
 019079,-0.00017494,-0.00002591,0.00005593,0.00001424,0.00003506,-0.000
 04828,0.00005970,0.00000814,0.00004066,0.00021207,-0.00000673,0.000094
 94,-0.00027788,0.00000531,0.00001915,0.00003162,-0.00000265,0.00001692
 ,0.00003533,-0.00000696,0.00001504,0.00004898,0.00000753,-0.00000357,0
 .00000786,-0.00034446,0.00003046,0.00011250,0.00009793,-0.00000244,-0.
 00001513,0.00010028,0.00001669,-0.00003479,-0.00011504,-0.00000074,-0.
 00007858,0.00019897,0.00001824,0.00002450,-0.00006512,-0.00000135,-0.0
 0003298,-0.00002757,0.00012301,-0.00003424,-0.00005772,-0.00013836,0.0
 0005087,0.00021273,0.00000759,0.00005324,-0.00027962,-0.00000860,-0.00
 000438,0.00005126,0.00001715,-0.00000055,0.00001545,-0.00000125,-0.000
 00839,0.00004594,-0.00001221,0.00000464,-0.00000082,0.00000427,-0.0000
 0234,-0.00001667,0.00000898,-0.00003291,-0.00001688,-0.00000214,0.0000
 3620,-0.00000610,-0.00001379,-0.00004551,0.00020743\\@
 The archive entry for this job was punched.


 CONFIDENCE: THAT QUIET ASSURED FEELING YOU HAVE
 JUST BEFORE YOU FALL FLAT ON YOUR FACE.
 Job cpu time:       1 days  6 hours 20 minutes 54.0 seconds.
 Elapsed time:       0 days  0 hours 46 minutes 29.6 seconds.
 File lengths (MBytes):  RWF=   1832 Int=      0 D2E=      0 Chk=     43 Scr=      1
 Normal termination of Gaussian 16 at Fri Mar 21 07:21:39 2025.
