 Entering Gaussian System, Link 0=g16
 Input=hcooht_h2o_mp2_avdz_opt_anharm.gjf
 Output=hcooht_h2o_mp2_avdz_opt_anharm.log
 Initial command:
 /sw/contrib/chem-src/g16/c01/g16/l1.exe "/scr/Gau-36181.inp" -scrdir="/scr/"
 Entering Link 1 = /sw/contrib/chem-src/g16/c01/g16/l1.exe PID=     36182.
  
 Copyright (c) 1988-2019, Gaussian, Inc.  All Rights Reserved.
  
 This is part of the Gaussian(R) 16 program.  It is based on
 the Gaussian(R) 09 system (copyright 2009, Gaussian, Inc.),
 the Gaussian(R) 03 system (copyright 2003, Gaussian, Inc.),
 the Gaussian(R) 98 system (copyright 1998, Gaussian, Inc.),
 the Gaussian(R) 94 system (copyright 1995, Gaussian, Inc.),
 the Gaussian 92(TM) system (copyright 1992, Gaussian, Inc.),
 the Gaussian 90(TM) system (copyright 1990, Gaussian, Inc.),
 the Gaussian 88(TM) system (copyright 1988, Gaussian, Inc.),
 the Gaussian 86(TM) system (copyright 1986, Carnegie Mellon
 University), and the Gaussian 82(TM) system (copyright 1983,
 Carnegie Mellon University). Gaussian is a federally registered
 trademark of Gaussian, Inc.
  
 This software contains proprietary and confidential information,
 including trade secrets, belonging to Gaussian, Inc.
  
 This software is provided under written license and may be
 used, copied, transmitted, or stored only in accord with that
 written license.
  
 The following legend is applicable only to US Government
 contracts under FAR:
  
                    RESTRICTED RIGHTS LEGEND
  
 Use, reproduction and disclosure by the US Government is
 subject to restrictions as set forth in subparagraphs (a)
 and (c) of the Commercial Computer Software - Restricted
 Rights clause in FAR 52.227-19.
  
 Gaussian, Inc.
 340 Quinnipiac St., Bldg. 40, Wallingford CT 06492
  
  
 ---------------------------------------------------------------
 Warning -- This program may not be used in any manner that
 competes with the business of Gaussian, Inc. or will provide
 assistance to any competitor of Gaussian, Inc.  The licensee
 of this program is prohibited from giving any competitor of
 Gaussian, Inc. access to this program.  By using this program,
 the user acknowledges that Gaussian, Inc. is engaged in the
 business of creating and licensing software in the field of
 computational chemistry and represents and warrants to the
 licensee that it is not a competitor of Gaussian, Inc. and that
 it will not use this program in any manner prohibited above.
 ---------------------------------------------------------------
  

 Cite this work as:
 Gaussian 16, Revision C.01,
 M. J. Frisch, G. W. Trucks, H. B. Schlegel, G. E. Scuseria, 
 M. A. Robb, J. R. Cheeseman, G. Scalmani, V. Barone, 
 G. A. Petersson, H. Nakatsuji, X. Li, M. Caricato, A. V. Marenich, 
 J. Bloino, B. G. Janesko, R. Gomperts, B. Mennucci, H. P. Hratchian, 
 J. V. Ortiz, A. F. Izmaylov, J. L. Sonnenberg, D. Williams-Young, 
 F. Ding, F. Lipparini, F. Egidi, J. Goings, B. Peng, A. Petrone, 
 T. Henderson, D. Ranasinghe, V. G. Zakrzewski, J. Gao, N. Rega, 
 G. Zheng, W. Liang, M. Hada, M. Ehara, K. Toyota, R. Fukuda, 
 J. Hasegawa, M. Ishida, T. Nakajima, Y. Honda, O. Kitao, H. Nakai, 
 T. Vreven, K. Throssell, J. A. Montgomery, Jr., J. E. Peralta, 
 F. Ogliaro, M. J. Bearpark, J. J. Heyd, E. N. Brothers, K. N. Kudin, 
 V. N. Staroverov, T. A. Keith, R. Kobayashi, J. Normand, 
 K. Raghavachari, A. P. Rendell, J. C. Burant, S. S. Iyengar, 
 J. Tomasi, M. Cossi, J. M. Millam, M. Klene, C. Adamo, R. Cammi, 
 J. W. Ochterski, R. L. Martin, K. Morokuma, O. Farkas, 
 J. B. Foresman, and D. J. Fox, Gaussian, Inc., Wallingford CT, 2019.
 
 ******************************************
 Gaussian 16:  EM64L-G16RevC.01  3-Jul-2019
                21-Mar-2025 
 ******************************************
 %nprocshared=40
 Will use up to   40 processors via shared memory.
 %mem=50gb
 ----------------------------------------------
 # MP2/aug-cc-pVDZ opt freq=(vibrot,anharmonic)
 ----------------------------------------------
 1/18=20,19=15,38=1,80=1/1,3;
 2/9=110,12=2,17=6,18=5,40=1/2;
 3/5=16,7=10,11=9,25=1,30=1,71=1/1,2,3;
 4//1;
 5/5=2,38=5/2;
 8/6=4,10=1/1;
 9/15=2,16=-3/6;
 10/5=1/2;
 6/7=2,8=2,9=2,10=2/1;
 7/12=2/1,2,3,16;
 1/18=20,19=15,80=1/3(2);
 2/9=110/2;
 99//99;
 2/9=110/2;
 3/5=16,7=10,11=9,25=1,30=1,71=1/1,2,3;
 4/5=5,16=3,69=1/1;
 5/5=2,38=5/2;
 8/6=4,10=1/1;
 9/15=2,16=-3/6;
 10/5=1/2;
 7/12=2/1,2,3,16;
 1/18=20,19=15,80=1/3(-8);
 2/9=110/2;
 6/7=2,8=2,9=2,10=2/1;
 99/9=10/99;
 ----
 blah
 ----
 Symbolic Z-matrix:
 Charge =  0 Multiplicity = 1
 C                     1.03144  -0.29808  -0.00035 
 O                     2.23923  -0.17689   0.00071 
 O                     0.18357   0.75714  -0.00076 
 H                    -0.73731   0.41842  -0.00162 
 O                    -2.42386  -0.2396    0.00033 
 H                     0.51467  -1.28023  -0.00104 
 H                    -2.97628  -0.03412   0.76654 
 H                    -2.98117  -0.04072  -0.76406 
 
 Add virtual bond connecting atoms O5         and H4         Dist= 3.42D+00.

 GradGradGradGradGradGradGradGradGradGradGradGradGradGradGradGradGradGrad
 Berny optimization.
 Initialization pass.
                           ----------------------------
                           !    Initial Parameters    !
                           ! (Angstroms and Degrees)  !
 --------------------------                            --------------------------
 ! Name  Definition              Value          Derivative Info.                !
 --------------------------------------------------------------------------------
 ! R1    R(1,2)                  1.2139         estimate D2E/DX2                !
 ! R2    R(1,3)                  1.3537         estimate D2E/DX2                !
 ! R3    R(1,6)                  1.1098         estimate D2E/DX2                !
 ! R4    R(3,4)                  0.9812         estimate D2E/DX2                !
 ! R5    R(4,5)                  1.8104         estimate D2E/DX2                !
 ! R6    R(5,7)                  0.9667         estimate D2E/DX2                !
 ! R7    R(5,8)                  0.9667         estimate D2E/DX2                !
 ! A1    A(2,1,3)              123.0521         estimate D2E/DX2                !
 ! A2    A(2,1,6)              123.4813         estimate D2E/DX2                !
 ! A3    A(3,1,6)              113.4666         estimate D2E/DX2                !
 ! A4    A(1,3,4)              108.5871         estimate D2E/DX2                !
 ! A5    A(4,5,7)              117.1268         estimate D2E/DX2                !
 ! A6    A(4,5,8)              117.4815         estimate D2E/DX2                !
 ! A7    A(7,5,8)              104.6889         estimate D2E/DX2                !
 ! A8    L(3,4,5,6,-1)         178.881          estimate D2E/DX2                !
 ! A9    L(3,4,5,6,-2)         179.8842         estimate D2E/DX2                !
 ! D1    D(2,1,3,4)           -179.999          estimate D2E/DX2                !
 ! D2    D(2,1,3,6)           -179.9985         estimate D2E/DX2                !
 ! D3    D(6,1,3,4)             -0.0006         estimate D2E/DX2                !
 ! D4    D(1,3,5,7)            116.9077         estimate D2E/DX2                !
 ! D5    D(1,3,5,8)           -116.7396         estimate D2E/DX2                !
 ! D6    D(4,5,7,8)            132.0912         estimate D2E/DX2                !
 --------------------------------------------------------------------------------
 Trust Radius=3.00D-01 FncErr=1.00D-07 GrdErr=1.00D-07 EigMax=2.50D+02 EigMin=1.00D-04
 Number of steps in this run=     32 maximum allowed number of steps=    100.
 GradGradGradGradGradGradGradGradGradGradGradGradGradGradGradGradGradGrad

                          Input orientation:                          
 ---------------------------------------------------------------------
 Center     Atomic      Atomic             Coordinates (Angstroms)
 Number     Number       Type             X           Y           Z
 ---------------------------------------------------------------------
      1          6           0        1.031435   -0.298081   -0.000346
      2          8           0        2.239233   -0.176894    0.000708
      3          8           0        0.183566    0.757141   -0.000758
      4          1           0       -0.737312    0.418420   -0.001617
      5          8           0       -2.423863   -0.239604    0.000331
      6          1           0        0.514666   -1.280233   -0.001037
      7          1           0       -2.976279   -0.034118    0.766542
      8          1           0       -2.981169   -0.040720   -0.764056
 ---------------------------------------------------------------------
                    Distance matrix (angstroms):
                    1          2          3          4          5
     1  C    0.000000
     2  O    1.213863   0.000000
     3  O    1.353653   2.257917   0.000000
     4  H    1.908361   3.035494   0.981198   0.000000
     5  O    3.455793   4.663518   2.791449   1.810374   0.000000
     6  H    1.109808   2.047313   2.064103   2.110183   3.117349
     7  H    4.088956   5.273372   3.346560   2.409944   0.966678
     8  H    4.092735   5.277879   3.351828   2.413921   0.966660
                    6          7          8
     6  H    0.000000
     7  H    3.785324   0.000000
     8  H    3.786747   1.530620   0.000000
 Stoichiometry    CH4O3
 Framework group  C1[X(CH4O3)]
 Deg. of freedom    18
 Full point group                 C1      NOp   1
 Largest Abelian subgroup         C1      NOp   1
 Largest concise Abelian subgroup C1      NOp   1
                         Standard orientation:                         
 ---------------------------------------------------------------------
 Center     Atomic      Atomic             Coordinates (Angstroms)
 Number     Number       Type             X           Y           Z
 ---------------------------------------------------------------------
      1          6           0        1.031435   -0.298081   -0.000346
      2          8           0        2.239233   -0.176894    0.000708
      3          8           0        0.183566    0.757141   -0.000758
      4          1           0       -0.737312    0.418420   -0.001617
      5          8           0       -2.423863   -0.239604    0.000331
      6          1           0        0.514666   -1.280233   -0.001037
      7          1           0       -2.976279   -0.034118    0.766542
      8          1           0       -2.981169   -0.040720   -0.764056
 ---------------------------------------------------------------------
 Rotational constants (GHZ):          34.4960887           2.4441244           2.3070110
 Standard basis: Aug-CC-pVDZ (5D, 7F)
 There are   136 symmetry adapted cartesian basis functions of A   symmetry.
 There are   128 symmetry adapted basis functions of A   symmetry.
   128 basis functions,   216 primitive gaussians,   136 cartesian basis functions
    17 alpha electrons       17 beta electrons
       nuclear repulsion energy       115.2418546996 Hartrees.
 NAtoms=    8 NActive=    8 NUniq=    8 SFac= 1.00D+00 NAtFMM=   60 NAOKFM=F Big=F
 Integral buffers will be    131072 words long.
 Raffenetti 1 integral format.
 Two-electron integral symmetry is turned on.
 One-electron integrals computed using PRISM.
 NBasis=   128 RedAO= T EigKep=  5.11D-04  NBF=   128
 NBsUse=   128 1.00D-06 EigRej= -1.00D+00 NBFU=   128
 ExpMin= 2.97D-02 ExpMax= 1.17D+04 ExpMxC= 4.01D+02 IAcc=3 IRadAn=         5 AccDes= 0.00D+00
 Harris functional with IExCor=  205 and IRadAn=       5 diagonalized for initial guess.
 HarFok:  IExCor=  205 AccDes= 0.00D+00 IRadAn=         5 IDoV= 1 UseB2=F ITyADJ=14
 ICtDFT=  3500011 ScaDFX=  1.000000  1.000000  1.000000  1.000000
 FoFCou: FMM=F IPFlag=           0 FMFlag=      100000 FMFlg1=           0
         NFxFlg=           0 DoJE=T BraDBF=F KetDBF=T FulRan=T
         wScrn=  0.000000 ICntrl=       500 IOpCl=  0 I1Cent=   200000004 NGrid=           0
         NMat0=    1 NMatS0=      1 NMatT0=    0 NMatD0=    1 NMtDS0=    0 NMtDT0=    0
 Petite list used in FoFCou.
 Keep R1 ints in memory in canonical form, NReq=42647392.
 Requested convergence on RMS density matrix=1.00D-08 within 128 cycles.
 Requested convergence on MAX density matrix=1.00D-06.
 Requested convergence on             energy=1.00D-06.
 No special actions if energy rises.
 SCF Done:  E(RHF) =  -264.838822302     A.U. after   13 cycles
            NFock= 13  Conv=0.47D-08     -V/T= 2.0021
 ExpMin= 2.97D-02 ExpMax= 1.17D+04 ExpMxC= 4.01D+02 IAcc=3 IRadAn=         5 AccDes= 0.00D+00
 HarFok:  IExCor=  205 AccDes= 0.00D+00 IRadAn=         5 IDoV=-2 UseB2=F ITyADJ=14
 ICtDFT= 12500011 ScaDFX=  1.000000  1.000000  1.000000  1.000000
 Range of M.O.s used for correlation:     5   128
 NBasis=   128 NAE=    17 NBE=    17 NFC=     4 NFV=     0
 NROrb=    124 NOA=    13 NOB=    13 NVA=   111 NVB=   111

 **** Warning!!: The largest alpha MO coefficient is  0.11239946D+02

 Fully direct method using O(ONN) memory.
 JobTyp=1 Pass  1:  I=   5 to  17 NPSUse= 40 ParTrn=T ParDer=T DoDerP=T.
 Spin components of T(2) and E(2):
     alpha-alpha T2 =       0.2922971452D-01 E2=     -0.1000054040D+00
     alpha-beta  T2 =       0.1578253627D+00 E2=     -0.5557124996D+00
     beta-beta   T2 =       0.2922971452D-01 E2=     -0.1000054040D+00
 ANorm=    0.1102853024D+01
 E2 =    -0.7557233077D+00 EUMP2 =    -0.26559454560994D+03
          IDoAtm=11111111
          Differentiating once with respect to electric field.
                with respect to dipole field.
          Differentiating once with respect to nuclear coordinates.
 Keep R1 ints in memory in canonical form, NReq=42654107.
          There are     1 degrees of freedom in the 1st order CPHF.  IDoFFX=0 NUNeed=     1.
 LinEq1:  Iter=  0 NonCon=     1 RMS=6.09D-03 Max=1.23D-01 NDo=     1
 AX will form     1 AO Fock derivatives at one time.
 LinEq1:  Iter=  1 NonCon=     1 RMS=1.72D-03 Max=2.09D-02 NDo=     1
 LinEq1:  Iter=  2 NonCon=     1 RMS=6.14D-04 Max=8.67D-03 NDo=     1
 LinEq1:  Iter=  3 NonCon=     1 RMS=2.17D-04 Max=3.32D-03 NDo=     1
 LinEq1:  Iter=  4 NonCon=     1 RMS=7.38D-05 Max=5.35D-04 NDo=     1
 LinEq1:  Iter=  5 NonCon=     1 RMS=2.59D-05 Max=4.63D-04 NDo=     1
 LinEq1:  Iter=  6 NonCon=     1 RMS=7.39D-06 Max=9.07D-05 NDo=     1
 LinEq1:  Iter=  7 NonCon=     1 RMS=2.26D-06 Max=2.02D-05 NDo=     1
 LinEq1:  Iter=  8 NonCon=     1 RMS=9.04D-07 Max=7.58D-06 NDo=     1
 LinEq1:  Iter=  9 NonCon=     1 RMS=2.89D-07 Max=2.49D-06 NDo=     1
 LinEq1:  Iter= 10 NonCon=     1 RMS=5.86D-08 Max=5.55D-07 NDo=     1
 LinEq1:  Iter= 11 NonCon=     1 RMS=1.06D-08 Max=8.50D-08 NDo=     1
 LinEq1:  Iter= 12 NonCon=     1 RMS=1.51D-09 Max=1.01D-08 NDo=     1
 LinEq1:  Iter= 13 NonCon=     1 RMS=1.95D-10 Max=1.24D-09 NDo=     1
 LinEq1:  Iter= 14 NonCon=     0 RMS=2.93D-11 Max=2.42D-10 NDo=     1
 Linear equations converged to 1.000D-10 1.000D-09 after    14 iterations.
 End of Minotr F.D. properties file   721 does not exist.
 End of Minotr F.D. properties file   722 does not exist.
 End of Minotr F.D. properties file   788 does not exist.

 **********************************************************************

            Population analysis using the SCF Density.

 **********************************************************************

 Orbital symmetries:
       Occupied  (A) (A) (A) (A) (A) (A) (A) (A) (A) (A) (A) (A)
                 (A) (A) (A) (A) (A)
       Virtual   (A) (A) (A) (A) (A) (A) (A) (A) (A) (A) (A) (A)
                 (A) (A) (A) (A) (A) (A) (A) (A) (A) (A) (A) (A)
                 (A) (A) (A) (A) (A) (A) (A) (A) (A) (A) (A) (A)
                 (A) (A) (A) (A) (A) (A) (A) (A) (A) (A) (A) (A)
                 (A) (A) (A) (A) (A) (A) (A) (A) (A) (A) (A) (A)
                 (A) (A) (A) (A) (A) (A) (A) (A) (A) (A) (A) (A)
                 (A) (A) (A) (A) (A) (A) (A) (A) (A) (A) (A) (A)
                 (A) (A) (A) (A) (A) (A) (A) (A) (A) (A) (A) (A)
                 (A) (A) (A) (A) (A) (A) (A) (A) (A) (A) (A) (A)
                 (A) (A) (A)
 The electronic state is 1-A.
 Alpha  occ. eigenvalues --  -20.63254 -20.60617 -20.55238 -11.38856  -1.44341
 Alpha  occ. eigenvalues --   -1.40865  -1.35213  -0.84474  -0.77046  -0.76888
 Alpha  occ. eigenvalues --   -0.64960  -0.64558  -0.60500  -0.58050  -0.55379
 Alpha  occ. eigenvalues --   -0.46549  -0.44552
 Alpha virt. eigenvalues --    0.01509   0.04297   0.05149   0.06594   0.10235
 Alpha virt. eigenvalues --    0.11593   0.13611   0.15869   0.17564   0.17788
 Alpha virt. eigenvalues --    0.20082   0.20300   0.21860   0.23839   0.23940
 Alpha virt. eigenvalues --    0.26122   0.26755   0.28703   0.31166   0.31860
 Alpha virt. eigenvalues --    0.32634   0.34587   0.35605   0.36892   0.39825
 Alpha virt. eigenvalues --    0.42624   0.43457   0.45506   0.49374   0.50440
 Alpha virt. eigenvalues --    0.52199   0.53061   0.53420   0.54027   0.61382
 Alpha virt. eigenvalues --    0.63209   0.63680   0.64752   0.66128   0.70774
 Alpha virt. eigenvalues --    0.72847   0.78732   0.80342   0.84579   0.84636
 Alpha virt. eigenvalues --    0.90618   0.91737   0.94456   0.96889   1.02081
 Alpha virt. eigenvalues --    1.09945   1.11696   1.13954   1.15886   1.20882
 Alpha virt. eigenvalues --    1.21277   1.21905   1.26966   1.28948   1.30511
 Alpha virt. eigenvalues --    1.34808   1.40881   1.43454   1.44763   1.48949
 Alpha virt. eigenvalues --    1.58194   1.61287   1.62500   1.67254   1.74614
 Alpha virt. eigenvalues --    1.82116   1.83036   1.90008   1.94770   1.94830
 Alpha virt. eigenvalues --    1.99573   2.04386   2.05522   2.10224   2.13587
 Alpha virt. eigenvalues --    2.19107   2.25883   2.30622   2.38024   2.42862
 Alpha virt. eigenvalues --    2.42987   2.50042   2.57861   2.67896   2.71638
 Alpha virt. eigenvalues --    2.80393   2.87349   2.94585   3.03177   3.18768
 Alpha virt. eigenvalues --    3.32540   3.66661   3.67705   3.69691   3.70382
 Alpha virt. eigenvalues --    3.73364   3.74504   3.75317   3.80383   3.82235
 Alpha virt. eigenvalues --    3.90919   4.00477   4.04912   4.11131   4.26124
 Alpha virt. eigenvalues --    4.39608
          Condensed to atoms (all electrons):
               1          2          3          4          5          6
     1  C    4.059664   0.452588   0.178315  -0.024836   0.000897   0.259252
     2  O    0.452588   8.323881  -0.058106   0.000534  -0.000412  -0.078284
     3  O    0.178315  -0.058106   8.286654   0.282786  -0.043024  -0.019689
     4  H   -0.024836   0.000534   0.282786   0.455776  -0.037305  -0.004932
     5  O    0.000897  -0.000412  -0.043024  -0.037305   7.806473   0.003721
     6  H    0.259252  -0.078284  -0.019689  -0.004932   0.003721   0.935677
     7  H    0.001453   0.000015  -0.002834  -0.004096   0.360459   0.000463
     8  H    0.001445   0.000016  -0.002794  -0.004086   0.360391   0.000455
               7          8
     1  C    0.001453   0.001445
     2  O    0.000015   0.000016
     3  O   -0.002834  -0.002794
     4  H   -0.004096  -0.004086
     5  O    0.360459   0.360391
     6  H    0.000463   0.000455
     7  H    0.490599  -0.046957
     8  H   -0.046957   0.490407
 Mulliken charges:
               1
     1  C    1.071222
     2  O   -0.640232
     3  O   -0.621307
     4  H    0.336158
     5  O   -0.451199
     6  H   -0.096663
     7  H    0.200898
     8  H    0.201124
 Sum of Mulliken charges =  -0.00000
 Mulliken charges with hydrogens summed into heavy atoms:
               1
     1  C    0.974559
     2  O   -0.640232
     3  O   -0.285149
     5  O   -0.049178
 Electronic spatial extent (au):  <R**2>=            482.7070
 Charge=             -0.0000 electrons
 Dipole moment (field-independent basis, Debye):
    X=             -7.1165    Y=             -1.0762    Z=             -0.0009  Tot=              7.1974
 Quadrupole moment (field-independent basis, Debye-Ang):
   XX=            -20.4013   YY=            -25.6919   ZZ=            -21.3129
   XY=             -2.1794   XZ=             -0.0031   YZ=              0.0163
 Traceless Quadrupole moment (field-independent basis, Debye-Ang):
   XX=              2.0674   YY=             -3.2232   ZZ=              1.1558
   XY=             -2.1794   XZ=             -0.0031   YZ=              0.0163
 Octapole moment (field-independent basis, Debye-Ang**2):
  XXX=            -80.1215  YYY=             -1.2084  ZZZ=              0.0109  XYY=             -1.1328
  XXY=              7.3951  XXZ=             -0.0361  XZZ=             -9.8535  YZZ=             -0.0652
  YYZ=             -0.0032  XYZ=             -0.0411
 Hexadecapole moment (field-independent basis, Debye-Ang**3):
 XXXX=           -373.1537 YYYY=            -54.3076 ZZZZ=            -20.5462 XXXY=             -5.2332
 XXXZ=              0.1303 YYYX=             -1.7881 YYYZ=              0.0111 ZZZX=             -0.0240
 ZZZY=              0.0168 XXYY=            -96.4758 XXZZ=            -59.8227 YYZZ=            -13.2655
 XXYZ=              0.1315 YYXZ=              0.0069 ZZXY=              0.4323
 N-N= 1.152418546996D+02 E-N=-8.570058357640D+02  KE= 2.642712864397D+02
 Calling FoFJK, ICntrl=  10002127 FMM=F ISym2X=0 I1Cent= 0 IOpClX= 0 NMat=1 NMatS=1 NMatT=0.
 ***** Axes restored to original set *****
 -------------------------------------------------------------------
 Center     Atomic                   Forces (Hartrees/Bohr)
 Number     Number              X              Y              Z
 -------------------------------------------------------------------
      1        6          -0.000001629    0.000004366    0.000001915
      2        8          -0.000000539   -0.000001053   -0.000000348
      3        8           0.000005206    0.000005214   -0.000001283
      4        1          -0.000009283   -0.000000643   -0.000014917
      5        8           0.000029002   -0.000017660    0.000028781
      6        1           0.000001272   -0.000006968   -0.000000575
      7        1          -0.000023641   -0.000000500   -0.000035225
      8        1          -0.000000388    0.000017243    0.000021651
 -------------------------------------------------------------------
 Cartesian Forces:  Max     0.000035225 RMS     0.000014419

 GradGradGradGradGradGradGradGradGradGradGradGradGradGradGradGradGradGrad
 Berny optimization.
 FormGI is forming the generalized inverse of G from B-inverse, IUseBI=4.
 Internal  Forces:  Max     0.000039903 RMS     0.000012852
 Search for a local minimum.
 Step number   1 out of a maximum of   32
 All quantities printed in internal units (Hartrees-Bohrs-Radians)
 Mixed Optimization -- En-DIIS/RFO-DIIS
 Second derivative matrix not updated -- first step.
 ITU=  0
     Eigenvalues ---    0.00230   0.00230   0.00230   0.02305   0.02305
     Eigenvalues ---    0.03357   0.05998   0.13928   0.16000   0.16000
     Eigenvalues ---    0.16000   0.22000   0.32620   0.51153   0.54061
     Eigenvalues ---    0.54065   0.54252   0.98155
 RFO step:  Lambda=-3.14279945D-08 EMin= 2.30000000D-03
 Linear search not attempted -- first point.
 Iteration  1 RMS(Cart)=  0.00027374 RMS(Int)=  0.00000005
 Iteration  2 RMS(Cart)=  0.00000006 RMS(Int)=  0.00000001
 Variable       Old X    -DE/DX   Delta X   Delta X   Delta X     New X
                                 (Linear)    (Quad)   (Total)
    R1        2.29387  -0.00000   0.00000  -0.00000  -0.00000   2.29387
    R2        2.55803   0.00000   0.00000   0.00000   0.00000   2.55804
    R3        2.09723   0.00001   0.00000   0.00002   0.00002   2.09725
    R4        1.85419   0.00000   0.00000   0.00001   0.00001   1.85420
    R5        3.42111  -0.00000   0.00000  -0.00007  -0.00007   3.42104
    R6        1.82676  -0.00001   0.00000  -0.00003  -0.00003   1.82673
    R7        1.82672  -0.00001   0.00000  -0.00002  -0.00002   1.82670
    A1        2.14766  -0.00000   0.00000  -0.00001  -0.00001   2.14766
    A2        2.15515  -0.00000   0.00000  -0.00003  -0.00003   2.15513
    A3        1.98037   0.00001   0.00000   0.00003   0.00003   1.98040
    A4        1.89520  -0.00000   0.00000  -0.00000  -0.00000   1.89520
    A5        2.04425   0.00004   0.00000   0.00016   0.00016   2.04441
    A6        2.05044  -0.00001   0.00000  -0.00018  -0.00018   2.05026
    A7        1.82717  -0.00003   0.00000  -0.00032  -0.00032   1.82684
    A8        3.12206  -0.00000   0.00000  -0.00041  -0.00041   3.12165
    A9        3.13957   0.00000   0.00000   0.00002   0.00002   3.13959
    D1       -3.14158  -0.00000   0.00000  -0.00000  -0.00000  -3.14158
    D2       -3.14157  -0.00000   0.00000  -0.00003  -0.00003  -3.14159
    D3       -0.00001   0.00000   0.00000   0.00002   0.00002   0.00001
    D4        2.04042   0.00001   0.00000  -0.00012  -0.00012   2.04031
    D5       -2.03749  -0.00001   0.00000  -0.00050  -0.00050  -2.03799
    D6        2.30543  -0.00001   0.00000  -0.00043  -0.00043   2.30500
         Item               Value     Threshold  Converged?
 Maximum Force            0.000040     0.000450     YES
 RMS     Force            0.000013     0.000300     YES
 Maximum Displacement     0.000555     0.001800     YES
 RMS     Displacement     0.000274     0.001200     YES
 Predicted change in Energy=-1.571312D-08
 Optimization completed.
    -- Stationary point found.
                           ----------------------------
                           !   Optimized Parameters   !
                           ! (Angstroms and Degrees)  !
 --------------------------                            --------------------------
 ! Name  Definition              Value          Derivative Info.                !
 --------------------------------------------------------------------------------
 ! R1    R(1,2)                  1.2139         -DE/DX =    0.0                 !
 ! R2    R(1,3)                  1.3537         -DE/DX =    0.0                 !
 ! R3    R(1,6)                  1.1098         -DE/DX =    0.0                 !
 ! R4    R(3,4)                  0.9812         -DE/DX =    0.0                 !
 ! R5    R(4,5)                  1.8104         -DE/DX =    0.0                 !
 ! R6    R(5,7)                  0.9667         -DE/DX =    0.0                 !
 ! R7    R(5,8)                  0.9667         -DE/DX =    0.0                 !
 ! A1    A(2,1,3)              123.0521         -DE/DX =    0.0                 !
 ! A2    A(2,1,6)              123.4813         -DE/DX =    0.0                 !
 ! A3    A(3,1,6)              113.4666         -DE/DX =    0.0                 !
 ! A4    A(1,3,4)              108.5871         -DE/DX =    0.0                 !
 ! A5    A(4,5,7)              117.1268         -DE/DX =    0.0                 !
 ! A6    A(4,5,8)              117.4815         -DE/DX =    0.0                 !
 ! A7    A(7,5,8)              104.6889         -DE/DX =    0.0                 !
 ! A8    L(3,4,5,6,-1)         178.881          -DE/DX =    0.0                 !
 ! A9    L(3,4,5,6,-2)         179.8842         -DE/DX =    0.0                 !
 ! D1    D(2,1,3,4)           -179.999          -DE/DX =    0.0                 !
 ! D2    D(2,1,3,6)           -179.9985         -DE/DX =    0.0                 !
 ! D3    D(6,1,3,4)             -0.0006         -DE/DX =    0.0                 !
 ! D4    D(1,3,5,7)            116.9077         -DE/DX =    0.0                 !
 ! D5    D(1,3,5,8)           -116.7396         -DE/DX =    0.0                 !
 ! D6    D(4,5,7,8)            132.0912         -DE/DX =    0.0                 !
 --------------------------------------------------------------------------------
 GradGradGradGradGradGradGradGradGradGradGradGradGradGradGradGradGradGrad

                          Input orientation:                          
 ---------------------------------------------------------------------
 Center     Atomic      Atomic             Coordinates (Angstroms)
 Number     Number       Type             X           Y           Z
 ---------------------------------------------------------------------
      1          6           0        1.031435   -0.298081   -0.000346
      2          8           0        2.239233   -0.176894    0.000708
      3          8           0        0.183566    0.757141   -0.000758
      4          1           0       -0.737312    0.418420   -0.001617
      5          8           0       -2.423863   -0.239604    0.000331
      6          1           0        0.514666   -1.280233   -0.001037
      7          1           0       -2.976279   -0.034118    0.766542
      8          1           0       -2.981169   -0.040720   -0.764056
 ---------------------------------------------------------------------
                    Distance matrix (angstroms):
                    1          2          3          4          5
     1  C    0.000000
     2  O    1.213863   0.000000
     3  O    1.353653   2.257917   0.000000
     4  H    1.908361   3.035494   0.981198   0.000000
     5  O    3.455793   4.663518   2.791449   1.810374   0.000000
     6  H    1.109808   2.047313   2.064103   2.110183   3.117349
     7  H    4.088956   5.273372   3.346560   2.409944   0.966678
     8  H    4.092735   5.277879   3.351828   2.413921   0.966660
                    6          7          8
     6  H    0.000000
     7  H    3.785324   0.000000
     8  H    3.786747   1.530620   0.000000
 Stoichiometry    CH4O3
 Framework group  C1[X(CH4O3)]
 Deg. of freedom    18
 Full point group                 C1      NOp   1
 Largest Abelian subgroup         C1      NOp   1
 Largest concise Abelian subgroup C1      NOp   1
                         Standard orientation:                         
 ---------------------------------------------------------------------
 Center     Atomic      Atomic             Coordinates (Angstroms)
 Number     Number       Type             X           Y           Z
 ---------------------------------------------------------------------
      1          6           0        1.031435   -0.298081   -0.000346
      2          8           0        2.239233   -0.176894    0.000708
      3          8           0        0.183566    0.757141   -0.000758
      4          1           0       -0.737312    0.418420   -0.001617
      5          8           0       -2.423863   -0.239604    0.000331
      6          1           0        0.514666   -1.280233   -0.001037
      7          1           0       -2.976279   -0.034118    0.766542
      8          1           0       -2.981169   -0.040720   -0.764056
 ---------------------------------------------------------------------
 Rotational constants (GHZ):          34.4960887           2.4441244           2.3070110
 Unable to Open any file for archive entry.
 1\1\GINC-N3081\FOpt\RMP2-FC\Aug-CC-pVDZ\C1H4O3\GDS001\21-Mar-2025\0\\#
  MP2/aug-cc-pVDZ opt freq=(vibrot,anharmonic)\\blah\\0,1\C,1.031435,-0
 .298081,-0.000346\O,2.239233,-0.176894,0.000708\O,0.183566,0.757141,-0
 .000758\H,-0.737312,0.41842,-0.001617\O,-2.423863,-0.239604,0.000331\H
 ,0.514666,-1.280233,-0.001037\H,-2.976279,-0.034118,0.766542\H,-2.9811
 69,-0.04072,-0.764056\\Version=EM64L-G16RevC.01\State=1-A\HF=-264.8388
 223\MP2=-265.5945456\RMSD=4.662e-09\RMSF=1.442e-05\Dipole=-2.5812368,-
 0.3447339,-0.0002397\PG=C01 [X(C1H4O3)]\\@
 The archive entry for this job was punched.


 I do not feel obliged to believe that the same God who
 has endowed us with sense, reason, and intellect has
 intended us to forgo their use.
                   --Galileo Galilei
 Job cpu time:       0 days  0 hours  4 minutes  5.0 seconds.
 Elapsed time:       0 days  0 hours  0 minutes  7.6 seconds.
 File lengths (MBytes):  RWF=     10 Int=      0 D2E=      0 Chk=      3 Scr=      1
 Normal termination of Gaussian 16 at Fri Mar 21 06:51:42 2025.
 Link1:  Proceeding to internal job step number  2.
 ----------------------------------------------------------------------
 #N Geom=AllCheck Guess=TCheck SCRF=Check GenChk RMP2(FC)/Aug-CC-pVDZ F
 req
 ----------------------------------------------------------------------
 1/10=4,29=7,30=1,38=21,40=1,80=1/1,6,3;
 2/12=2,40=1/2;
 3/5=16,7=10,11=1,14=-4,25=1,30=1,70=2,71=2,116=1,140=1/1,2,3;
 4/5=101,69=2/1;
 5/5=2,38=6,98=1/2;
 8/6=3,8=1,10=1,19=11,30=-1/1;
 9/15=3,16=-3/6;
 11/6=1,8=1,15=11,17=12,24=-1,27=1,28=-2,29=300,32=6,42=3/1,2,10;
 10/6=2,21=1,60=-2/2;
 8/6=4,8=1,10=1,19=11,30=-1/11,4;
 10/5=1,20=4,60=-2/2;
 11/12=2,14=11,16=1,17=2,28=-2,42=3,76=2/2,10,12;
 6/7=2,8=2,9=2,10=2,22=-1/1;
 7/10=1,12=2,25=1,44=2,70=1,71=2/1,2,3,16;
 1/38=20,80=1/6(3);
 7/8=1,25=202,44=-1,70=1,71=1,92=10/16,17;
 1/10=4,30=1,38=20,80=1/3;
 99//99;
 3/5=16,7=10,11=1,14=-2,25=1,30=1,70=5,71=2,116=1,140=1/1,2,3;
 4/5=5,16=3,69=2/1;
 5/5=2,38=5,98=1/2;
 8/6=3,8=1,10=1,19=11,30=-1/1;
 9/15=3,16=-3/6;
 11/6=1,8=1,15=11,17=12,24=-1,27=1,28=-2,29=300,32=6,42=3/1,2,10;
 10/6=2,21=1,60=-2/2;
 8/6=4,8=1,10=1,19=11,30=-1/11,4;
 10/5=1,20=4,60=-2/2;
 11/12=2,14=11,16=1,17=2,28=-2,42=3,76=2/2,10,12;
 6/7=2,8=2,9=2,10=2,22=-1/1;
 7/7=1,10=1,12=2,25=1,44=2,70=1,71=1/1,2,3,16;
 1/38=20,80=1/6(-12);
 7/8=1,25=202,44=-1,70=1,71=1,92=10/16,17;
 1/10=4,30=1,38=20,80=1/3;
 99//99;
 Structure from the checkpoint file:  "/scr/Gau-36182.chk"
 ----
 blah
 ----
 Charge =  0 Multiplicity = 1
 Redundant internal coordinates found in file.  (old form).
 C,0,1.031435,-0.298081,-0.000346
 O,0,2.239233,-0.176894,0.000708
 O,0,0.183566,0.757141,-0.000758
 H,0,-0.737312,0.41842,-0.001617
 O,0,-2.423863,-0.239604,0.000331
 H,0,0.514666,-1.280233,-0.001037
 H,0,-2.976279,-0.034118,0.766542
 H,0,-2.981169,-0.04072,-0.764056
 Recover connectivity data from disk.
 Numerical evaluation of third derivatives.
 Nuclear step= 0.010000 Angstroms, electric field step= 0.000333 atomic units, NStep=1.

 GradGradGradGradGradGradGradGradGradGradGradGradGradGradGradGradGradGrad
 Berny optimization.
 Initialization pass.
                           ----------------------------
                           !    Initial Parameters    !
                           ! (Angstroms and Degrees)  !
 --------------------------                            --------------------------
 ! Name  Definition              Value          Derivative Info.                !
 --------------------------------------------------------------------------------
 ! R1    R(1,2)                  1.2139         calculate D2E/DX2 analytically  !
 ! R2    R(1,3)                  1.3537         calculate D2E/DX2 analytically  !
 ! R3    R(1,6)                  1.1098         calculate D2E/DX2 analytically  !
 ! R4    R(3,4)                  0.9812         calculate D2E/DX2 analytically  !
 ! R5    R(4,5)                  1.8104         calculate D2E/DX2 analytically  !
 ! R6    R(5,7)                  0.9667         calculate D2E/DX2 analytically  !
 ! R7    R(5,8)                  0.9667         calculate D2E/DX2 analytically  !
 ! A1    A(2,1,3)              123.0521         calculate D2E/DX2 analytically  !
 ! A2    A(2,1,6)              123.4813         calculate D2E/DX2 analytically  !
 ! A3    A(3,1,6)              113.4666         calculate D2E/DX2 analytically  !
 ! A4    A(1,3,4)              108.5871         calculate D2E/DX2 analytically  !
 ! A5    A(4,5,7)              117.1268         calculate D2E/DX2 analytically  !
 ! A6    A(4,5,8)              117.4815         calculate D2E/DX2 analytically  !
 ! A7    A(7,5,8)              104.6889         calculate D2E/DX2 analytically  !
 ! A8    L(3,4,5,6,-1)         178.881          calculate D2E/DX2 analytically  !
 ! A9    L(3,4,5,6,-2)         179.8842         calculate D2E/DX2 analytically  !
 ! D1    D(2,1,3,4)           -179.999          calculate D2E/DX2 analytically  !
 ! D2    D(2,1,3,6)           -179.9985         calculate D2E/DX2 analytically  !
 ! D3    D(6,1,3,4)             -0.0006         calculate D2E/DX2 analytically  !
 ! D4    D(1,3,5,7)            116.9077         calculate D2E/DX2 analytically  !
 ! D5    D(1,3,5,8)           -116.7396         calculate D2E/DX2 analytically  !
 ! D6    D(4,5,7,8)            132.0912         calculate D2E/DX2 analytically  !
 --------------------------------------------------------------------------------
 Trust Radius=3.00D-01 FncErr=1.00D-07 GrdErr=1.00D-07 EigMax=2.50D+02 EigMin=1.00D-04
 Number of steps in this run=      2 maximum allowed number of steps=      2.
 GradGradGradGradGradGradGradGradGradGradGradGradGradGradGradGradGradGrad

                          Input orientation:                          
 ---------------------------------------------------------------------
 Center     Atomic      Atomic             Coordinates (Angstroms)
 Number     Number       Type             X           Y           Z
 ---------------------------------------------------------------------
      1          6           0        1.031435   -0.298081   -0.000346
      2          8           0        2.239233   -0.176894    0.000708
      3          8           0        0.183566    0.757141   -0.000758
      4          1           0       -0.737312    0.418420   -0.001617
      5          8           0       -2.423863   -0.239604    0.000331
      6          1           0        0.514666   -1.280233   -0.001037
      7          1           0       -2.976279   -0.034118    0.766542
      8          1           0       -2.981169   -0.040720   -0.764056
 ---------------------------------------------------------------------
                    Distance matrix (angstroms):
                    1          2          3          4          5
     1  C    0.000000
     2  O    1.213863   0.000000
     3  O    1.353653   2.257917   0.000000
     4  H    1.908361   3.035494   0.981198   0.000000
     5  O    3.455793   4.663518   2.791449   1.810374   0.000000
     6  H    1.109808   2.047313   2.064103   2.110183   3.117349
     7  H    4.088956   5.273372   3.346560   2.409944   0.966678
     8  H    4.092735   5.277879   3.351828   2.413921   0.966660
                    6          7          8
     6  H    0.000000
     7  H    3.785324   0.000000
     8  H    3.786747   1.530620   0.000000
 Stoichiometry    CH4O3
 Framework group  C1[X(CH4O3)]
 Deg. of freedom    18
 Full point group                 C1      NOp   1
 Largest Abelian subgroup         C1      NOp   1
 Largest concise Abelian subgroup C1      NOp   1
                         Standard orientation:                         
 ---------------------------------------------------------------------
 Center     Atomic      Atomic             Coordinates (Angstroms)
 Number     Number       Type             X           Y           Z
 ---------------------------------------------------------------------
      1          6           0        1.031435   -0.298081   -0.000346
      2          8           0        2.239233   -0.176894    0.000708
      3          8           0        0.183566    0.757141   -0.000758
      4          1           0       -0.737312    0.418420   -0.001617
      5          8           0       -2.423863   -0.239604    0.000331
      6          1           0        0.514666   -1.280233   -0.001037
      7          1           0       -2.976279   -0.034118    0.766542
      8          1           0       -2.981169   -0.040720   -0.764056
 ---------------------------------------------------------------------
 Rotational constants (GHZ):          34.4960887           2.4441244           2.3070110
 Standard basis: Aug-CC-pVDZ (5D, 7F)
 There are   136 symmetry adapted cartesian basis functions of A   symmetry.
 There are   128 symmetry adapted basis functions of A   symmetry.
   128 basis functions,   216 primitive gaussians,   136 cartesian basis functions
    17 alpha electrons       17 beta electrons
       nuclear repulsion energy       115.2418546996 Hartrees.
 NAtoms=    8 NActive=    8 NUniq=    8 SFac= 1.00D+00 NAtFMM=   60 NAOKFM=F Big=F
 Integral buffers will be    131072 words long.
 Raffenetti 1 integral format.
 Two-electron integral symmetry is turned on.
 One-electron integrals computed using PRISM.
 NBasis=   128 RedAO= T EigKep=  5.11D-04  NBF=   128
 NBsUse=   128 1.00D-06 EigRej= -1.00D+00 NBFU=   128
 Initial guess from the checkpoint file:  "/scr/Gau-36182.chk"
 B after Tr=     0.000000   -0.000000    0.000000
         Rot=    1.000000   -0.000000    0.000000    0.000000 Ang=   0.00 deg.
 Keep R1 ints in memory in canonical form, NReq=42647392.
 Requested convergence on RMS density matrix=1.00D-08 within 128 cycles.
 Requested convergence on MAX density matrix=1.00D-06.
 Requested convergence on             energy=1.00D-06.
 No special actions if energy rises.
 SCF Done:  E(RHF) =  -264.838822302     A.U. after    1 cycles
            NFock=  1  Conv=0.58D-09     -V/T= 2.0021
 ExpMin= 2.97D-02 ExpMax= 1.17D+04 ExpMxC= 4.01D+02 IAcc=3 IRadAn=         5 AccDes= 0.00D+00
 HarFok:  IExCor=  205 AccDes= 0.00D+00 IRadAn=         5 IDoV=-2 UseB2=F ITyADJ=14
 ICtDFT= 12500011 ScaDFX=  1.000000  1.000000  1.000000  1.000000
 Range of M.O.s used for correlation:     5   128
 NBasis=   128 NAE=    17 NBE=    17 NFC=     4 NFV=     0
 NROrb=    124 NOA=    13 NOB=    13 NVA=   111 NVB=   111

 **** Warning!!: The largest alpha MO coefficient is  0.11239946D+02

 Disk-based method using ON**2 memory for 13 occupieds at a time.
 Permanent disk used for amplitudes=     4391049 words.
 Estimated scratch disk usage=    63144352 words.
 Actual    scratch disk usage=    57696672 words.
 JobTyp=1 Pass  1:  I=   5 to  17 NPSUse= 40 ParTrn=T ParDer=T DoDerP=T.
 (rs|ai) integrals will be sorted in core.
 Spin components of T(2) and E(2):
     alpha-alpha T2 =       0.2922971450D-01 E2=     -0.1000054040D+00
     alpha-beta  T2 =       0.1578253630D+00 E2=     -0.5557124998D+00
     beta-beta   T2 =       0.2922971450D-01 E2=     -0.1000054040D+00
 ANorm=    0.1102853024D+01
 E2 =    -0.7557233077D+00 EUMP2 =    -0.26559454560997D+03
 G2DrvN: will do     9 centers at a time, making    1 passes.
 Calling FoFCou, ICntrl=  3107 FMM=F I1Cent=   0 AccDes= 0.00D+00.
 End of G2Drv F.D. properties file   721 does not exist.
 End of G2Drv F.D. properties file   722 does not exist.
 End of G2Drv F.D. properties file   788 does not exist.
          IDoAtm=11111111
          Differentiating once with respect to electric field.
                with respect to dipole field.
          Differentiating once with respect to nuclear coordinates.
 Keep R1 ints in memory in canonical form, NReq=42648648.
          There are    27 degrees of freedom in the 1st order CPHF.  IDoFFX=6 NUNeed=    27.
     24 vectors produced by pass  0 Test12= 6.99D-15 3.70D-09 XBig12= 8.68D+00 1.46D+00.
 AX will form    24 AO Fock derivatives at one time.
     24 vectors produced by pass  1 Test12= 6.99D-15 3.70D-09 XBig12= 8.69D-01 1.64D-01.
     24 vectors produced by pass  2 Test12= 6.99D-15 3.70D-09 XBig12= 3.78D-02 4.85D-02.
     24 vectors produced by pass  3 Test12= 6.99D-15 3.70D-09 XBig12= 7.96D-04 5.56D-03.
     24 vectors produced by pass  4 Test12= 6.99D-15 3.70D-09 XBig12= 9.20D-06 5.10D-04.
     24 vectors produced by pass  5 Test12= 6.99D-15 3.70D-09 XBig12= 6.99D-08 3.87D-05.
     23 vectors produced by pass  6 Test12= 6.99D-15 3.70D-09 XBig12= 4.60D-10 4.48D-06.
      7 vectors produced by pass  7 Test12= 6.99D-15 3.70D-09 XBig12= 3.17D-12 3.22D-07.
      3 vectors produced by pass  8 Test12= 6.99D-15 3.70D-09 XBig12= 1.82D-14 1.96D-08.
 InvSVY:  IOpt=1 It=  1 EMax= 6.70D-16
 Solved reduced A of dimension   177 with    27 vectors.
 End of Minotr F.D. properties file   721 does not exist.
 End of Minotr F.D. properties file   722 does not exist.
 End of Minotr F.D. properties file   788 does not exist.
 MDV=  6710886400.
 Form MO integral derivatives with frozen-active canonical formalism.
 Discarding MO integrals.
 Reordered first order wavefunction length =      7121538
 In DefCFB: NBatch=  1 ICI= 17 ICA=111 LFMax= 56
            Large arrays: LIAPS=   131395584 LIARS=    44910600 words.
 Semi-Direct transformation.
 ModeAB=           4 MOrb=            17 LenV=    6710324343
 LASXX=     16177132 LTotXX=    16177132 LenRXX=    32730661
 LTotAB=    16553529 MaxLAS=    20210688 LenRXY=           0
 NonZer=    48907793 LenScr=    74127360 LnRSAI=    20210688
 LnScr1=    31088640 LExtra=           0 Total=    158157349
 MaxDsk=          -1 SrtSym=           T ITran=            4
 JobTyp=0 Pass  1:  I=   1 to  17.
 (rs|ai) integrals will be sorted in core.
 SymMOI:  orbitals are not symmetric.
 Spin components of T(2) and E(2):
     alpha-alpha T2 =       0.2922971450D-01 E2=     -0.1000054040D+00
     alpha-beta  T2 =       0.1578253630D+00 E2=     -0.5557124998D+00
     beta-beta   T2 =       0.2922971450D-01 E2=     -0.1000054040D+00
 ANorm=    0.1559669703D+01
 E2 =    -0.7557233077D+00 EUMP2 =    -0.26559454560997D+03
          IDoAtm=11111111
          Differentiating once with respect to electric field.
                with respect to dipole field.
          Differentiating once with respect to nuclear coordinates.
          There are     1 degrees of freedom in the 1st order CPHF.  IDoFFX=0 NUNeed=     1.
 LinEq1:  Iter=  0 NonCon=     1 RMS=6.09D-03 Max=1.23D-01 NDo=     1
 LinEq1:  Iter=  1 NonCon=     1 RMS=1.72D-03 Max=2.09D-02 NDo=     1
 LinEq1:  Iter=  2 NonCon=     1 RMS=6.14D-04 Max=8.67D-03 NDo=     1
 LinEq1:  Iter=  3 NonCon=     1 RMS=2.17D-04 Max=3.32D-03 NDo=     1
 LinEq1:  Iter=  4 NonCon=     1 RMS=7.38D-05 Max=5.35D-04 NDo=     1
 LinEq1:  Iter=  5 NonCon=     1 RMS=2.59D-05 Max=4.63D-04 NDo=     1
 LinEq1:  Iter=  6 NonCon=     1 RMS=7.39D-06 Max=9.07D-05 NDo=     1
 LinEq1:  Iter=  7 NonCon=     1 RMS=2.26D-06 Max=2.02D-05 NDo=     1
 LinEq1:  Iter=  8 NonCon=     1 RMS=9.04D-07 Max=7.58D-06 NDo=     1
 LinEq1:  Iter=  9 NonCon=     1 RMS=2.89D-07 Max=2.49D-06 NDo=     1
 LinEq1:  Iter= 10 NonCon=     1 RMS=5.86D-08 Max=5.55D-07 NDo=     1
 LinEq1:  Iter= 11 NonCon=     1 RMS=1.06D-08 Max=8.50D-08 NDo=     1
 LinEq1:  Iter= 12 NonCon=     1 RMS=1.51D-09 Max=1.01D-08 NDo=     1
 LinEq1:  Iter= 13 NonCon=     1 RMS=1.95D-10 Max=1.24D-09 NDo=     1
 LinEq1:  Iter= 14 NonCon=     0 RMS=2.93D-11 Max=2.42D-10 NDo=     1
 Linear equations converged to 1.000D-10 1.000D-09 after    14 iterations.
 End of Minotr F.D. properties file   721 does not exist.
 End of Minotr F.D. properties file   722 does not exist.
 End of Minotr F.D. properties file   788 does not exist.
 Symmetrizing basis deriv contribution to polar:
 IMax=3 JMax=2 DiffMx= 0.00D+00
 G2DrvN: will do     9 centers at a time, making    1 passes.
 Calling FoFCou, ICntrl=  3107 FMM=F I1Cent=   0 AccDes= 0.00D+00.
 End of G2Drv F.D. properties file   721 does not exist.
 End of G2Drv F.D. properties file   722 does not exist.
 End of G2Drv F.D. properties file   788 does not exist.
 R2 and R3 integrals will be kept in memory, NReq=    88082780.
 DD1Dir will call FoFMem   1 times, MxPair=       306
 NAB=   153 NAA=     0 NBB=     0.
 Discarding MO integrals.

 **********************************************************************

            Population analysis using the MP2 Density.

 **********************************************************************

 Orbital symmetries:
       Occupied  (A) (A) (A) (A) (A) (A) (A) (A) (A) (A) (A) (A)
                 (A) (A) (A) (A) (A)
       Virtual   (A) (A) (A) (A) (A) (A) (A) (A) (A) (A) (A) (A)
                 (A) (A) (A) (A) (A) (A) (A) (A) (A) (A) (A) (A)
                 (A) (A) (A) (A) (A) (A) (A) (A) (A) (A) (A) (A)
                 (A) (A) (A) (A) (A) (A) (A) (A) (A) (A) (A) (A)
                 (A) (A) (A) (A) (A) (A) (A) (A) (A) (A) (A) (A)
                 (A) (A) (A) (A) (A) (A) (A) (A) (A) (A) (A) (A)
                 (A) (A) (A) (A) (A) (A) (A) (A) (A) (A) (A) (A)
                 (A) (A) (A) (A) (A) (A) (A) (A) (A) (A) (A) (A)
                 (A) (A) (A) (A) (A) (A) (A) (A) (A) (A) (A) (A)
                 (A) (A) (A)
 The electronic state is 1-A.
 Alpha  occ. eigenvalues --  -20.63254 -20.60617 -20.55238 -11.38856  -1.44341
 Alpha  occ. eigenvalues --   -1.40865  -1.35213  -0.84474  -0.77046  -0.76888
 Alpha  occ. eigenvalues --   -0.64960  -0.64558  -0.60500  -0.58050  -0.55379
 Alpha  occ. eigenvalues --   -0.46549  -0.44552
 Alpha virt. eigenvalues --    0.01509   0.04297   0.05149   0.06594   0.10235
 Alpha virt. eigenvalues --    0.11593   0.13611   0.15869   0.17564   0.17788
 Alpha virt. eigenvalues --    0.20082   0.20300   0.21860   0.23839   0.23940
 Alpha virt. eigenvalues --    0.26122   0.26755   0.28703   0.31166   0.31860
 Alpha virt. eigenvalues --    0.32634   0.34587   0.35605   0.36892   0.39825
 Alpha virt. eigenvalues --    0.42624   0.43457   0.45506   0.49374   0.50440
 Alpha virt. eigenvalues --    0.52199   0.53061   0.53420   0.54027   0.61382
 Alpha virt. eigenvalues --    0.63209   0.63680   0.64752   0.66128   0.70774
 Alpha virt. eigenvalues --    0.72847   0.78732   0.80342   0.84579   0.84636
 Alpha virt. eigenvalues --    0.90618   0.91737   0.94456   0.96889   1.02081
 Alpha virt. eigenvalues --    1.09945   1.11696   1.13954   1.15886   1.20882
 Alpha virt. eigenvalues --    1.21277   1.21905   1.26966   1.28948   1.30511
 Alpha virt. eigenvalues --    1.34808   1.40881   1.43454   1.44763   1.48949
 Alpha virt. eigenvalues --    1.58194   1.61287   1.62500   1.67254   1.74614
 Alpha virt. eigenvalues --    1.82116   1.83036   1.90008   1.94770   1.94830
 Alpha virt. eigenvalues --    1.99573   2.04386   2.05522   2.10224   2.13587
 Alpha virt. eigenvalues --    2.19107   2.25883   2.30622   2.38024   2.42862
 Alpha virt. eigenvalues --    2.42987   2.50042   2.57861   2.67896   2.71638
 Alpha virt. eigenvalues --    2.80393   2.87349   2.94585   3.03177   3.18768
 Alpha virt. eigenvalues --    3.32540   3.66661   3.67705   3.69691   3.70382
 Alpha virt. eigenvalues --    3.73364   3.74504   3.75317   3.80383   3.82235
 Alpha virt. eigenvalues --    3.90919   4.00477   4.04912   4.11131   4.26124
 Alpha virt. eigenvalues --    4.39608
          Condensed to atoms (all electrons):
               1          2          3          4          5          6
     1  C    4.575697   0.394602   0.139502  -0.069544   0.001327   0.111464
     2  O    0.394602   8.204784  -0.061156   0.000442  -0.000678  -0.066512
     3  O    0.139502  -0.061156   8.168963   0.263150  -0.044815  -0.013587
     4  H   -0.069544   0.000442   0.263150   0.591674  -0.016476  -0.007264
     5  O    0.001327  -0.000678  -0.044815  -0.016476   7.715924   0.001288
     6  H    0.111464  -0.066512  -0.013587  -0.007264   0.001288   1.127087
     7  H    0.001615  -0.000045  -0.002640  -0.006185   0.343665   0.000572
     8  H    0.001612  -0.000044  -0.002603  -0.006165   0.343668   0.000564
               7          8
     1  C    0.001615   0.001612
     2  O   -0.000045  -0.000044
     3  O   -0.002640  -0.002603
     4  H   -0.006185  -0.006165
     5  O    0.343665   0.343668
     6  H    0.000572   0.000564
     7  H    0.566639  -0.064337
     8  H   -0.064337   0.566397
 Mulliken charges:
               1
     1  C    0.843725
     2  O   -0.471393
     3  O   -0.446813
     4  H    0.250368
     5  O   -0.343902
     6  H   -0.153610
     7  H    0.160717
     8  H    0.160909
 Sum of Mulliken charges =  -0.00000
 Mulliken charges with hydrogens summed into heavy atoms:
               1
     1  C    0.690115
     2  O   -0.471393
     3  O   -0.196446
     5  O   -0.022276
 APT charges:
               1
     1  C    1.082117
     2  O   -0.672133
     3  O   -0.811313
     4  H    0.444036
     5  O   -0.567932
     6  H   -0.021199
     7  H    0.273247
     8  H    0.273178
 Sum of APT charges =  -0.00000
 APT charges with hydrogens summed into heavy atoms:
               1
     1  C    1.060918
     2  O   -0.672133
     3  O   -0.367278
     5  O   -0.021507
 Electronic spatial extent (au):  <R**2>=            483.6310
 Charge=             -0.0000 electrons
 Dipole moment (field-independent basis, Debye):
    X=             -6.5608    Y=             -0.8762    Z=             -0.0006  Tot=              6.6191
 Quadrupole moment (field-independent basis, Debye-Ang):
   XX=            -20.1685   YY=            -26.5121   ZZ=            -21.9684
   XY=             -2.0635   XZ=             -0.0020   YZ=              0.0162
 Traceless Quadrupole moment (field-independent basis, Debye-Ang):
   XX=              2.7145   YY=             -3.6291   ZZ=              0.9146
   XY=             -2.0635   XZ=             -0.0020   YZ=              0.0162
 Octapole moment (field-independent basis, Debye-Ang**2):
  XXX=            -73.4168  YYY=             -0.8381  ZZZ=              0.0113  XYY=             -0.8240
  XXY=              6.9225  XXZ=             -0.0364  XZZ=             -9.2150  YZZ=             -0.0315
  YYZ=             -0.0034  XYZ=             -0.0420
 Hexadecapole moment (field-independent basis, Debye-Ang**3):
 XXXX=           -388.0319 YYYY=            -58.5094 ZZZZ=            -22.4858 XXXY=             -5.6514
 XXXZ=              0.1350 YYYX=             -1.8063 YYYZ=              0.0114 ZZZX=             -0.0208
 ZZZY=              0.0173 XXYY=           -100.1227 XXZZ=            -62.3434 YYZZ=            -14.2175
 XXYZ=              0.1321 YYXZ=              0.0081 ZZXY=              0.4244
 N-N= 1.152418546996D+02 E-N=-8.566083785657D+02  KE= 2.648063186891D+02
  Exact polarizability:      43.977      -1.110      29.958       0.012       0.005      24.858
 Approx polarizability:      30.795      -0.456      23.072       0.011       0.008      21.891
 Calling FoFJK, ICntrl=  10100127 FMM=F ISym2X=0 I1Cent= 0 IOpClX= 0 NMat=1 NMatS=1 NMatT=0.
 Full mass-weighted force constant matrix:
 Low frequencies ---   -1.5318    0.0013    0.0014    0.0015    1.6195    5.1507
 Low frequencies ---   71.6016   90.4592  109.6773
 Diagonal vibrational polarizability:
       42.3027487      94.1606326     146.5086096
 Harmonic frequencies (cm**-1), IR intensities (KM/Mole), Raman scattering
 activities (A**4/AMU), depolarization ratios for plane and unpolarized
 incident light, reduced masses (AMU), force constants (mDyne/A),
 and normal coordinates:
                      1                      2                      3
                      A                      A                      A
 Frequencies --     71.6016                90.4568               109.6736
 Red. masses --      4.3584                 1.3943                 1.4813
 Frc consts  --      0.0132                 0.0067                 0.0105
 IR Inten    --      5.1426                 8.5652                48.2482
  Atom  AN      X      Y      Z        X      Y      Z        X      Y      Z
     1   6    -0.17   0.08  -0.00     0.00  -0.00  -0.09     0.00  -0.00   0.16
     2   8    -0.14  -0.20   0.00     0.00   0.00   0.12     0.00   0.00  -0.10
     3   8     0.06   0.27  -0.00    -0.00  -0.00  -0.08    -0.00  -0.00  -0.01
     4   1     0.01   0.41  -0.00    -0.00  -0.00  -0.16    -0.00  -0.00   0.15
     5   8     0.22  -0.11  -0.00    -0.00   0.00   0.01    -0.00   0.00  -0.05
     6   1    -0.40   0.20  -0.00     0.00  -0.00  -0.30     0.00  -0.00   0.55
     7   1     0.11  -0.45   0.01     0.32  -0.44   0.36    -0.02  -0.56   0.08
     8   1     0.10  -0.42   0.01    -0.32   0.45   0.36     0.02   0.56   0.08
                      4                      5                      6
                      A                      A                      A
 Frequencies --    192.6922               256.0062               283.3315
 Red. masses --      3.4483                 1.4902                 1.2107
 Frc consts  --      0.0754                 0.0575                 0.0573
 IR Inten    --     10.0268               221.2982                21.3871
  Atom  AN      X      Y      Z        X      Y      Z        X      Y      Z
     1   6    -0.09  -0.04  -0.00     0.00   0.03  -0.00    -0.00   0.00   0.06
     2   8    -0.10   0.07   0.00     0.00  -0.04   0.00    -0.00  -0.00  -0.05
     3   8    -0.18  -0.13   0.00     0.04   0.07  -0.00     0.00   0.00   0.05
     4   1    -0.15  -0.20   0.00     0.04   0.05   0.00     0.00   0.00  -0.19
     5   8     0.30   0.05   0.00    -0.07  -0.14   0.00    -0.00  -0.00  -0.08
     6   1     0.00  -0.09  -0.00    -0.05   0.06  -0.00    -0.00   0.00   0.19
     7   1     0.44   0.43  -0.00     0.19   0.66  -0.02     0.56   0.32   0.24
     8   1     0.44   0.43  -0.00     0.21   0.67   0.00    -0.55  -0.29   0.25
                      7                      8                      9
                      A                      A                      A
 Frequencies --    668.7271               877.7741              1031.8544
 Red. masses --      7.4422                 1.0490                 1.6807
 Frc consts  --      1.9609                 0.4762                 1.0543
 IR Inten    --      2.0237                86.3505                 0.2637
  Atom  AN      X      Y      Z        X      Y      Z        X      Y      Z
     1   6    -0.16  -0.33  -0.00    -0.00   0.00  -0.02     0.00   0.00  -0.23
     2   8    -0.27   0.30  -0.00    -0.00   0.00   0.02    -0.00  -0.00   0.06
     3   8     0.40  -0.06   0.00     0.00   0.00  -0.04    -0.00  -0.00   0.05
     4   1     0.17   0.61  -0.00    -0.00  -0.00   0.97    -0.00  -0.00   0.03
     5   8    -0.01  -0.02   0.00     0.00  -0.00  -0.03    -0.00   0.00  -0.00
     6   1    -0.12  -0.35  -0.00    -0.00   0.00  -0.06    -0.00  -0.00   0.97
     7   1     0.00   0.05  -0.01     0.13   0.08   0.05     0.00   0.00   0.00
     8   1     0.00   0.05   0.01    -0.13  -0.08   0.05    -0.00  -0.00   0.00
                     10                     11                     12
                      A                      A                      A
 Frequencies --   1148.9223              1372.2725              1407.2484
 Red. masses --      3.9456                 1.2925                 1.1600
 Frc consts  --      3.0686                 1.4341                 1.3535
 IR Inten    --    114.1824               245.0605                19.6628
  Atom  AN      X      Y      Z        X      Y      Z        X      Y      Z
     1   6    -0.08   0.36   0.00    -0.04   0.10  -0.00    -0.01   0.04   0.00
     2   8    -0.11  -0.03  -0.00     0.03  -0.03   0.00    -0.08  -0.03  -0.00
     3   8     0.18  -0.23   0.00     0.00  -0.09  -0.00     0.02   0.04   0.00
     4   1     0.33  -0.62  -0.00    -0.34   0.87   0.00     0.12  -0.26  -0.00
     5   8    -0.01   0.00   0.00     0.00  -0.01  -0.00    -0.00   0.00   0.00
     6   1    -0.28   0.45  -0.00     0.32  -0.07   0.00     0.86  -0.40   0.00
     7   1    -0.00  -0.01   0.01    -0.02   0.03  -0.02     0.01  -0.01   0.01
     8   1    -0.00  -0.01  -0.01    -0.02   0.03   0.02     0.01  -0.01  -0.01
                     13                     14                     15
                      A                      A                      A
 Frequencies --   1626.7194              1793.2122              3043.5614
 Red. masses --      1.0842                 7.4544                 1.0892
 Frc consts  --      1.6904                14.1230                 5.9448
 IR Inten    --     53.7256               325.8149                61.7893
  Atom  AN      X      Y      Z        X      Y      Z        X      Y      Z
     1   6    -0.01   0.00  -0.00     0.61   0.02   0.00    -0.04  -0.07  -0.00
     2   8     0.00   0.00   0.00    -0.39  -0.05  -0.00     0.00   0.00   0.00
     3   8     0.00  -0.00  -0.00    -0.05  -0.02  -0.00    -0.00   0.00  -0.00
     4   1    -0.03   0.04   0.00    -0.19   0.47   0.00     0.01  -0.01   0.00
     5   8    -0.07   0.02   0.00    -0.00   0.00   0.00     0.00   0.00   0.00
     6   1     0.00  -0.00   0.00    -0.11   0.45   0.00     0.45   0.89   0.00
     7   1     0.53  -0.17   0.43     0.03  -0.01   0.02     0.00  -0.00  -0.00
     8   1     0.53  -0.18  -0.43     0.03  -0.01  -0.02     0.00  -0.00   0.00
                     16                     17                     18
                      A                      A                      A
 Frequencies --   3558.5693              3794.3829              3922.0361
 Red. masses --      1.0679                 1.0454                 1.0817
 Frc consts  --      7.9676                 8.8674                 9.8032
 IR Inten    --    776.5231                14.9878               105.0532
  Atom  AN      X      Y      Z        X      Y      Z        X      Y      Z
     1   6    -0.00   0.00  -0.00     0.00  -0.00   0.00     0.00  -0.00   0.00
     2   8     0.00  -0.00   0.00    -0.00   0.00  -0.00    -0.00  -0.00  -0.00
     3   8    -0.06  -0.02  -0.00    -0.00  -0.00  -0.00     0.00   0.00  -0.00
     4   1     0.94   0.33   0.00     0.05   0.01   0.00    -0.00  -0.00  -0.00
     5   8    -0.00   0.00   0.00     0.05  -0.02  -0.00    -0.00  -0.00  -0.07
     6   1     0.00  -0.01  -0.00     0.00   0.00   0.00    -0.00   0.00   0.00
     7   1     0.02  -0.01  -0.02    -0.37   0.14   0.58    -0.40   0.15   0.56
     8   1     0.03  -0.01   0.02    -0.38   0.13  -0.58     0.41  -0.14   0.56

 -------------------
 - Thermochemistry -
 -------------------
 Temperature   298.150 Kelvin.  Pressure   1.00000 Atm.
 Atom     1 has atomic number  6 and mass  12.00000
 Atom     2 has atomic number  8 and mass  15.99491
 Atom     3 has atomic number  8 and mass  15.99491
 Atom     4 has atomic number  1 and mass   1.00783
 Atom     5 has atomic number  8 and mass  15.99491
 Atom     6 has atomic number  1 and mass   1.00783
 Atom     7 has atomic number  1 and mass   1.00783
 Atom     8 has atomic number  1 and mass   1.00783
 Molecular mass:    64.01604 amu.
 Principal axes and moments of inertia in atomic units:
                           1         2         3
     Eigenvalues --    52.31727 738.39990 782.28549
           X            0.99999  -0.00337  -0.00002
           Y            0.00337   0.99999   0.00045
           Z            0.00001  -0.00045   1.00000
 This molecule is an asymmetric top.
 Rotational symmetry number  1.
 Rotational temperatures (Kelvin)      1.65555     0.11730     0.11072
 Rotational constants (GHZ):          34.49609     2.44412     2.30701
 Zero-point vibrational energy     151022.8 (Joules/Mol)
                                   36.09532 (Kcal/Mol)
 Warning -- explicit consideration of   6 degrees of freedom as
           vibrations may cause significant error
 Vibrational temperatures:    103.02   130.15   157.80   277.24   368.34
          (Kelvin)            407.65   962.15  1262.92  1484.61  1653.04
                             1974.39  2024.72  2340.49  2580.03  4379.01
                             5119.99  5459.27  5642.94
 
 Zero-point correction=                           0.057522 (Hartree/Particle)
 Thermal correction to Energy=                    0.064363
 Thermal correction to Enthalpy=                  0.065307
 Thermal correction to Gibbs Free Energy=         0.027096
 Sum of electronic and zero-point Energies=           -265.537024
 Sum of electronic and thermal Energies=              -265.530182
 Sum of electronic and thermal Enthalpies=            -265.529238
 Sum of electronic and thermal Free Energies=         -265.567449
 
                     E (Thermal)             CV                S
                      KCal/Mol        Cal/Mol-Kelvin    Cal/Mol-Kelvin
 Total                   40.389             19.433             80.422
 Electronic               0.000              0.000              0.000
 Translational            0.889              2.981             38.388
 Rotational               0.889              2.981             24.917
 Vibrational             38.611             13.471             17.117
 Vibration     1          0.598              1.968              4.109
 Vibration     2          0.602              1.956              3.650
 Vibration     3          0.606              1.941              3.275
 Vibration     4          0.635              1.850              2.202
 Vibration     5          0.666              1.753              1.689
 Vibration     6          0.682              1.705              1.513
                       Q            Log10(Q)             Ln(Q)
 Total Bot       0.344005D-12        -12.463435        -28.698119
 Total V=0       0.987684D+14         13.994618         32.223799
 Vib (Bot)       0.274588D-24        -24.561319        -56.554526
 Vib (Bot)    1  0.287979D+01          0.459361          1.057717
 Vib (Bot)    2  0.227278D+01          0.356557          0.821004
 Vib (Bot)    3  0.186759D+01          0.271282          0.624651
 Vib (Bot)    4  0.103763D+01          0.016042          0.036938
 Vib (Bot)    5  0.760179D+00         -0.119084         -0.274201
 Vib (Bot)    6  0.677376D+00         -0.169170         -0.389528
 Vib (V=0)       0.788378D+02          1.896734          4.367392
 Vib (V=0)    1  0.342287D+01          0.534391          1.230480
 Vib (V=0)    2  0.282713D+01          0.451346          1.039262
 Vib (V=0)    3  0.243337D+01          0.386208          0.889276
 Vib (V=0)    4  0.165181D+01          0.217961          0.501873
 Vib (V=0)    5  0.140987D+01          0.149181          0.343501
 Vib (V=0)    6  0.134193D+01          0.127728          0.294106
 Electronic      0.100000D+01          0.000000          0.000000
 Translational   0.201320D+08          7.303887         16.817822
 Rotational      0.622295D+05          4.793997         11.038585

     ==================================================
      Anharmonic Data: Displacement Vectors Definition
     ==================================================

 Framework definition based on atomic masses: C1  

 **********************************************************************

                  Harmonic vibro-rotational analysis

 **********************************************************************


     ==================================================
               Analysis of the Rotor Symmetry
     ==================================================

 Framework Group : C1  
 Rotor Type      : Asymmetric Top
 Asymm. param.   : Kappa = -0.991481
 Inertia moments : X=    14.65033 , Y=   206.77303 , Z=   219.06225
 Representation  : IIIr Representation, Ix < Iy < Iz

 Axes Definition for the Symmetric-Top Representation
 ----------------------------------------------------
 Axis Z automatically chosen to be collinear with X from Eckart orient.
 NOTE: In Vibro-rotational analysis, this will be referred to as the
       spectroscopic orientation.

     ==================================================
        Vibro-Rotational Analysis Based on Symmetry
     ==================================================

 Input/Output information
 ------------------------
 Normal modes will be PRINTED in DESCENDING order (imag. freq. first)
   and sorted by irreducible representation
 The connection between this new numbering (A) and the one used before
   (H) is reported in the present equivalency table:
 ----+------+------+------+------+------+------+------+------+------+
 (H) |     1|     2|     3|     4|     5|     6|     7|     8|     9|
 (A) |    18|    17|    16|    15|    14|    13|    12|    11|    10|
 ----+------+------+------+------+------+------+------+------+------+
 ----+------+------+------+------+------+------+------+------+------+
 (H) |    10|    11|    12|    13|    14|    15|    16|    17|    18|
 (A) |     9|     8|     7|     6|     5|     4|     3|     2|     1|
 ----+------+------+------+------+------+------+------+------+------+

 Normal modes will be READ in ASCENDING order (imag. freq. first)

     ==================================================
                   Coriolis Couplings
     ==================================================

 Coriolis Couplings along the X axis
 -----------------------------------
                1             2             3             4             5 
      1   0.000000D+00
      2   0.299751D-02  0.000000D+00
      3   0.000000D+00  0.000000D+00  0.000000D+00
      4   0.000000D+00  0.000000D+00  0.000000D+00  0.000000D+00
      5   0.515207D-02  0.000000D+00  0.000000D+00  0.000000D+00  0.000000D+00
      6   0.321304D+00  0.000000D+00  0.000000D+00  0.000000D+00  0.000000D+00
      7   0.101160D-01  0.000000D+00  0.000000D+00  0.000000D+00  0.000000D+00
      8  -0.377623D-01  0.000000D+00  0.000000D+00  0.000000D+00  0.000000D+00
      9  -0.833884D-02  0.000000D+00  0.000000D+00  0.000000D+00  0.000000D+00
     10   0.000000D+00  0.000000D+00 -0.171574D-01  0.794473D+00  0.968265D-01
     11   0.000000D+00 -0.568597D-01  0.322542D+00 -0.454367D-01  0.152110D+00
     12  -0.276216D-01  0.000000D+00  0.000000D+00  0.000000D+00  0.000000D+00
     13  -0.136302D-01 -0.245514D+00 -0.608352D-01  0.971920D-01  0.365099D-02
     14  -0.712939D+00  0.165973D-02  0.114956D-02 -0.235633D-02  0.000000D+00
     15  -0.222665D+00  0.000000D+00  0.000000D+00  0.000000D+00  0.000000D+00
     16  -0.147166D-02  0.557359D+00  0.157908D-01  0.274664D+00  0.137110D+00
     17  -0.147181D-02  0.510168D+00 -0.435268D-01 -0.155052D+00 -0.870293D-01
     18  -0.165159D+00 -0.111730D-01  0.000000D+00  0.000000D+00  0.000000D+00
                6             7             8             9            10 
      6   0.000000D+00
      7   0.000000D+00  0.000000D+00
      8   0.000000D+00  0.000000D+00  0.000000D+00
      9   0.000000D+00  0.000000D+00  0.000000D+00  0.000000D+00
     10  -0.649555D-02 -0.361335D+00 -0.285450D+00  0.298032D+00  0.000000D+00
     11  -0.496150D-01 -0.251062D+00  0.768061D+00  0.282965D+00  0.000000D+00
     12   0.000000D+00  0.000000D+00  0.000000D+00  0.000000D+00 -0.241223D+00
     13  -0.337296D+00  0.461960D-01 -0.963112D-01 -0.136285D+00  0.000000D+00
     14   0.786285D-02  0.000000D+00  0.000000D+00  0.327151D-02  0.000000D+00
     15   0.136674D-02  0.000000D+00  0.000000D+00  0.000000D+00  0.580509D-02
     16   0.351024D+00 -0.108129D+00  0.237516D+00 -0.380221D+00  0.000000D+00
     17   0.209799D+00  0.654556D-02 -0.118341D+00  0.816901D-01  0.000000D+00
     18  -0.455512D-02  0.000000D+00  0.000000D+00  0.137770D-02  0.000000D+00
               11            12            13            14            15 
     11   0.000000D+00
     12  -0.290193D+00  0.000000D+00
     13  -0.110256D-02 -0.220385D+00  0.000000D+00
     14  -0.897808D-01  0.463609D-02 -0.453216D+00  0.000000D+00
     15   0.348614D-01  0.000000D+00  0.601194D-02 -0.152792D-02  0.000000D+00
     16   0.000000D+00 -0.362492D+00  0.259411D-02  0.235987D+00 -0.977326D-01
     17   0.000000D+00  0.320938D+00  0.423849D-02  0.169212D+00  0.324465D+00
     18   0.743375D-01 -0.266728D-02  0.137500D+00 -0.657381D-02 -0.460456D-02
               16            17            18 
     16   0.000000D+00
     17   0.818432D-02  0.000000D+00
     18   0.248382D+00 -0.507058D+00  0.000000D+00

 Coriolis Couplings along the Y axis
 -----------------------------------
                1             2             3             4             5 
      1   0.000000D+00
      2   0.301196D-02  0.000000D+00
      3   0.911332D-02  0.000000D+00  0.000000D+00
      4   0.000000D+00  0.000000D+00  0.000000D+00  0.000000D+00
      5   0.188308D-01  0.000000D+00  0.000000D+00  0.000000D+00  0.000000D+00
      6   0.945226D+00  0.100044D-02  0.000000D+00  0.000000D+00  0.000000D+00
      7   0.104646D-01  0.000000D+00  0.000000D+00  0.000000D+00  0.000000D+00
      8  -0.371452D-01  0.000000D+00  0.000000D+00  0.000000D+00  0.000000D+00
      9  -0.714124D-02  0.000000D+00  0.000000D+00  0.000000D+00  0.000000D+00
     10   0.000000D+00  0.414547D-02  0.834893D-02 -0.413835D+00  0.627182D+00
     11   0.000000D+00  0.155969D+00 -0.914801D+00  0.297685D-02  0.132231D+00
     12   0.000000D+00  0.000000D+00  0.000000D+00  0.000000D+00  0.000000D+00
     13   0.176336D-02  0.801022D+00  0.162363D+00 -0.413270D-01 -0.241843D+00
     14   0.232850D+00 -0.153807D-01 -0.247742D-02  0.100931D-02  0.550829D-02
     15   0.814555D-01 -0.245208D-02  0.000000D+00  0.000000D+00  0.000000D+00
     16   0.219324D-02  0.552217D-01 -0.121344D+00 -0.131939D+00 -0.515040D+00
     17   0.000000D+00  0.531237D+00  0.349132D-01  0.716026D-01  0.386076D+00
     18   0.580475D-01 -0.830469D-02  0.000000D+00  0.000000D+00 -0.294983D-02
                6             7             8             9            10 
      6   0.000000D+00
      7   0.000000D+00  0.000000D+00
      8   0.000000D+00  0.000000D+00  0.000000D+00
      9   0.000000D+00  0.000000D+00  0.000000D+00  0.000000D+00
     10  -0.195599D-01 -0.575838D+00 -0.302508D+00 -0.115377D-02  0.000000D+00
     11   0.520632D-01 -0.324621D-01  0.289138D+00  0.104972D+00  0.000000D+00
     12   0.000000D+00  0.000000D+00  0.000000D+00  0.000000D+00  0.107964D+00
     13   0.117841D+00 -0.174111D+00 -0.656458D-01  0.279659D-01  0.000000D+00
     14   0.127936D-02  0.418368D-02  0.101232D-02  0.000000D+00 -0.971506D-02
     15   0.000000D+00  0.000000D+00  0.000000D+00  0.000000D+00  0.585386D-02
     16  -0.109005D+00 -0.463681D+00  0.276538D-02 -0.401077D-01  0.000000D+00
     17  -0.919241D-01  0.348346D+00 -0.366675D-01 -0.140801D+00  0.000000D+00
     18   0.276921D-02 -0.269929D-02  0.000000D+00  0.297520D-02  0.511856D-02
               11            12            13            14            15 
     11   0.000000D+00
     12  -0.382431D-01  0.000000D+00
     13   0.000000D+00 -0.124683D+00  0.000000D+00
     14   0.565367D-01  0.231078D-02  0.150217D+00  0.000000D+00
     15  -0.678051D-01  0.000000D+00 -0.121843D+00  0.281863D-02  0.000000D+00
     16   0.000000D+00 -0.104121D-01 -0.151914D-02 -0.354666D-01  0.794106D-01
     17   0.000000D+00  0.255001D+00 -0.267429D-02 -0.816931D-01 -0.225751D+00
     18   0.402180D-01 -0.482061D-02  0.111497D+00 -0.128996D-02  0.307659D-02
               16            17            18 
     16   0.000000D+00
     17   0.388588D-02  0.000000D+00
     18   0.190703D+00 -0.207844D-01  0.000000D+00

 Coriolis Couplings along the Z axis
 -----------------------------------
                1             2             3             4             5 
      1   0.000000D+00
      2   0.000000D+00  0.000000D+00
      3   0.000000D+00  0.126834D-02  0.000000D+00
      4   0.000000D+00  0.000000D+00 -0.442317D-02  0.000000D+00
      5   0.000000D+00  0.817225D-02  0.176923D+00  0.298006D+00  0.000000D+00
      6  -0.511668D-02 -0.975607D-02  0.443250D-01 -0.980686D-02  0.512827D-02
      7   0.000000D+00 -0.975769D-02 -0.283075D+00 -0.876036D+00  0.158114D-01
      8   0.000000D+00  0.251147D-01  0.875167D+00 -0.335204D+00  0.277585D+00
      9   0.000000D+00  0.592064D-02  0.213669D+00 -0.921586D-01 -0.555900D+00
     10   0.000000D+00  0.000000D+00  0.000000D+00  0.000000D+00  0.000000D+00
     11  -0.970111D-01  0.000000D+00  0.000000D+00  0.000000D+00  0.000000D+00
     12   0.000000D+00 -0.733007D-02  0.256606D+00  0.000000D+00 -0.594850D+00
     13  -0.361466D+00 -0.126689D-01  0.000000D+00  0.000000D+00  0.197888D-02
     14   0.774972D-02 -0.544086D+00  0.151634D-01  0.439497D-01  0.125902D+00
     15   0.120624D-02 -0.174313D+00 -0.283777D-01 -0.549491D-01 -0.117261D+00
     16   0.365933D+00 -0.330421D-02  0.000000D+00  0.000000D+00 -0.148677D-02
     17   0.220140D+00 -0.501653D-02  0.000000D+00 -0.193629D-02 -0.461086D-02
     18  -0.496708D-02 -0.130134D+00 -0.545293D-01 -0.113663D+00 -0.279595D+00
                6             7             8             9            10 
      6   0.000000D+00
      7  -0.649559D-02  0.000000D+00
      8   0.890778D-02  0.909153D-01  0.000000D+00
      9   0.180363D-01 -0.379327D-01 -0.801730D-01  0.000000D+00
     10   0.000000D+00  0.000000D+00  0.000000D+00  0.000000D+00  0.000000D+00
     11   0.000000D+00  0.000000D+00  0.000000D+00  0.000000D+00  0.000000D+00
     12   0.410521D-01 -0.318746D+00  0.161703D+00 -0.379649D+00  0.000000D+00
     13   0.138954D-01  0.128017D-02 -0.112161D-02 -0.309618D-02  0.000000D+00
     14   0.747300D+00  0.728143D-01 -0.445712D-01 -0.181236D+00  0.000000D+00
     15   0.245489D+00 -0.730800D-01  0.109419D-01  0.242018D+00  0.000000D+00
     16   0.160276D-02  0.000000D+00  0.000000D+00  0.241922D-02 -0.201542D-02
     17   0.143738D-02 -0.227388D-02  0.000000D+00  0.863719D-02 -0.191984D-02
     18   0.180368D+00 -0.148249D+00 -0.187332D-01  0.538727D+00  0.000000D+00
               11            12            13            14            15 
     11   0.000000D+00
     12   0.000000D+00  0.000000D+00
     13  -0.638730D-02  0.203755D-02  0.000000D+00
     14   0.000000D+00  0.143736D+00  0.000000D+00  0.000000D+00
     15   0.000000D+00 -0.188488D+00  0.320047D-02  0.139290D+00  0.000000D+00
     16  -0.115590D+00 -0.259109D-02 -0.454825D+00  0.672063D-02  0.274977D-02
     17  -0.138940D+00 -0.671320D-02 -0.532251D+00  0.605034D-02  0.728502D-02
     18   0.249401D-02 -0.433241D+00  0.878680D-02 -0.147428D+00  0.417158D+00
               16            17            18 
     16   0.000000D+00
     17   0.261779D+00  0.000000D+00
     18  -0.359288D-02  0.159685D-02  0.000000D+00

   88 Coriolis couplings larger than .100D-02 along the X axis
   94 Coriolis couplings larger than .100D-02 along the Y axis
  108 Coriolis couplings larger than .100D-02 along the Z axis

     ==================================================
      Inertia Moments Derivatives w.r.t. Normal Modes
     ==================================================

 Units: amu^1/2.Ang

                 Ixx        Ixy        Iyy        Ixz        Iyz        Izz
 Q(     1)     0.00596    0.00349   -0.00603    1.20475   -0.43516   -0.00466
 Q(     2)     1.85704    0.32791    2.50166   -0.00301   -0.00842    0.84222
 Q(     3)    -0.25442    0.61286   -1.77005    0.00171    0.00099   -1.87874
 Q(     4)    -1.69738    0.84837   -0.37930    0.00055    0.00117   -2.07351
 Q(     5)    -0.39130    1.21587   -4.82960    0.00420    0.00101   -5.26979
 Q(     6)     1.12510   -0.45451    0.46369   -0.00642   -0.00481   -0.95713
 Q(     7)     1.68037    1.11538   -4.30781    0.00405    0.00057   -2.65778
 Q(     8)    -1.71762    0.82570    1.62326   -0.00157    0.00101    0.01696
 Q(     9)     4.78379    3.37006    4.67963   -0.00351    0.00120    9.48645
 Q(    10)    -0.00018   -0.00015   -0.00008   -0.00677   -0.00143   -0.00022
 Q(    11)    -0.00349   -0.00361   -0.01356   -0.39390   -0.23797   -0.00880
 Q(    12)     0.28308   -4.69558   -7.71776    0.00538   -0.00394   -7.41354
 Q(    13)     0.02819   -0.02231   -0.01250   -1.54713   -0.85809    0.03800
 Q(    14)     2.03482   -1.22857    2.60094    0.02609    0.01519    4.68694
 Q(    15)    -1.91058    2.98846  -20.98895   -0.00121   -0.00316  -22.90459
 Q(    16)    -0.02129    0.00519    0.08498    0.05032    1.41605    0.05984
 Q(    17)    -0.05509    0.01941    0.23440   -0.83159    1.16307    0.16065
 Q(    18)    -3.77561    1.38319   15.61992    0.01152   -0.03319   11.84853

     ==================================================
               Vibro-rotational Alpha Matrix
     ==================================================

 Vibro-Rot alpha Matrix (in cm^-1)
 ---------------------------------
                 A(x)           B(y)           C(z)
 Q(     1)       -0.00147       -0.00001       -0.00000
 Q(     2)       -0.00145       -0.00001       -0.00000
 Q(     3)       -0.00027       -0.00001       -0.00001
 Q(     4)       -0.00235       -0.00000       -0.00002
 Q(     5)       -0.00035       -0.00003       -0.00003
 Q(     6)       -0.00122        0.00001       -0.00001
 Q(     7)       -0.00290       -0.00004        0.00000
 Q(     8)       -0.00862       -0.00001        0.00002
 Q(     9)       -0.00961       -0.00001       -0.00001
 Q(    10)        0.00887        0.00005       -0.00000
 Q(    11)        0.00726        0.00002       -0.00000
 Q(    12)       -0.00087       -0.00003        0.00001
 Q(    13)       -0.03747        0.00001       -0.00007
 Q(    14)        0.03983        0.00002        0.00003
 Q(    15)       -0.00892       -0.00015       -0.00013
[...]
 19,-0.00002681,-0.00000057,0.00010486,0.00010520,0.00000023,-0.0001391
 9,0.00006561,-0.00000048,-0.00017687,-0.00007143,0.00000077,-0.0000004
 3,0.00013893,0.00000019,0.00000018,-0.00003757,-0.00000024,0.00000003,
 -0.00002376,-0.00000027,-0.00000016,-0.00002288,0.00000032,0.00000081,
 0.00012765,-0.00000041,0.00000027,-0.00010095,-0.00049277,0.00017852,0
 .00003460,0.00019731,-0.00001284,0.00000810,0.00086495,0.00015867,-0.0
 0035185,-0.00148620,-0.00169129,0.00066818,0.30606053,-0.11580537,-0.4
 2876820,-0.00006733,0.00011431,0.00002437,-0.26124085,-0.00003154,0.00
 041496,-0.00001103,0.00007293,-0.00007880,-0.00000040,0.00058354,-0.00
 023703,-0.00000597,-0.00101909,-0.00012426,0.00019123,-0.11607990,0.03
 017890,0.15349348,0.00012886,-0.00011139,-0.00000743,0.10105566,-0.027
 68765,0.00028164,-0.00045946,0.00015041,-0.00033145,0.00007499,-0.0000
 5548,-0.00027347,0.00036005,0.00034199,0.00154757,0.00037002,-0.001397
 82,-0.29505669,0.10562320,0.27583580,0.00000084,0.00007485,-0.00004075
 ,0.36113727,-0.12965767,-0.23899387,-0.00048828,0.00017582,-0.00003443
 ,0.00019720,-0.00001257,-0.00000738,0.00085806,0.00015688,0.00035304,-
 0.00150108,-0.00168150,-0.00066318,0.31063883,-0.11276322,0.42930635,-
 0.00006865,0.00011425,-0.00002473,-0.04383564,0.01528955,-0.06730571,-
 0.26580043,-0.00003269,0.00041847,0.00001064,0.00007575,-0.00007964,-0
 .00000001,0.00058953,-0.00023885,0.00001031,-0.00103727,-0.00013199,-0
 .00020993,-0.11444700,0.02799309,-0.15057042,0.00012852,-0.00011189,0.
 00000674,0.01600234,-0.00235473,0.02361402,0.09872080,-0.02549446,-0.0
 0027689,0.00044955,0.00014931,0.00032578,-0.00007236,-0.00005478,0.000
 24206,-0.00036267,0.00034383,-0.00149103,-0.00034627,-0.00140427,0.295
 57725,-0.10273041,0.27320523,-0.00000075,-0.00007428,-0.00004067,0.067
 24754,-0.02400222,-0.03584028,-0.36162396,0.12713865,-0.23635837,1.183
 05061,0.10138143,-0.17608838,0.00121196,0.00009814,-0.21446550,-1.2028
 2716,-0.15485615,-0.00122376,1.21150776,-0.16050745,0.17510353,-0.0001
 4073,0.15803734,-0.17100293,-0.00122548,-0.00013592,0.19207000,0.00123
 261,0.00014008,-0.19323470,0.02717748,0.01804450,0.00000919,-0.0046444
 4,0.00382684,-0.00000178,-0.05103064,0.05940950,-0.05702199,0.00002744
 ,-0.00534311,-0.00086602,-0.00000430,-0.06586064,0.04353617,0.00002031
 ,-0.00000568,0.02343349,-0.00000395,0.00000280,-0.00138415,-0.00004873
 ,-0.00003764,-0.01956196,-0.00535920,0.00679179,-0.00000521,-0.0020858
 9,-0.00048295,-0.00000199,0.02490380,0.01600349,0.00002927,-0.01750952
 ,-0.01495626,0.00432116,-0.00001234,0.00404017,-0.00084051,0.00000320,
 0.03437007,0.01761222,0.00003342,-0.02276995,-0.01849726,-0.00001107,0
 .00000441,0.00146224,-0.00000063,-0.00000015,0.00038064,0.00003394,0.0
 0001809,-0.00029487,-0.00002018,-0.00002277,-0.00265684,0.00006452,-0.
 00089338,-0.00000034,0.00019024,0.00015994,0.00000029,-0.00060723,0.00
 020552,-0.00000052,0.00027033,0.00035314,-0.00000022,-0.00097795,0.000
 61219,-0.00060486,0.00000004,-0.00023899,0.00018928,0.,-0.00060599,0.0
 0009904,-0.00000056,-0.00016675,0.00039973,0.00000022,-0.00015966,-0.0
 0053146,-0.00000007,-0.00000042,0.00000648,0.00000056,-0.00000005,-0.0
 0002033,0.00000005,0.00000030,0.00008149,-0.00000156,-0.00000107,0.000
 14298,0.00000157,0.00000349,-0.00030512,-0.00212517,0.02943699,0.00000
 822,-0.00213953,-0.00099474,-0.00000383,0.00411808,-0.00429913,0.00000
 387,-0.00027018,-0.00089183,-0.00000118,0.00024978,0.00016298,0.,0.000
 22723,0.01413544,0.05422663,0.00002717,-0.00169766,-0.00257302,-0.0000
 0300,0.01008165,-0.00328368,0.00000772,0.00075292,-0.00291589,-0.00000
 006,0.00013844,0.00015462,-0.00000007,-0.02338117,-0.04557565,0.000003
 96,0.00003946,-0.00248817,-0.00000412,-0.00000208,0.00217076,0.0000079
 6,-0.00000401,-0.00224034,-0.00000062,-0.00000168,0.00094869,0.0000001
 5,0.00000023,-0.00001397,-0.00000740,-0.00003183,0.00162668,0.00000826
 ,0.00004895,-0.00000730,-0.00000006,-0.00001980,0.00001874,0.00004290,
 -0.00005812,-0.00003613,0.00002635,-0.00007330,-0.00007852,0.00040390,
 0.00019810,-0.00002203,-0.00003054,-0.00001522,-0.00000202,-0.00038987
 ,-0.00003846,0.00003255,0.00001131,0.00002977,-0.00000539,0.00000668,0
 .00007244,-0.00003799,-0.00002233,-0.00006363,-0.00004035,-0.00004998,
 0.00009690,0.00014764,0.00011249,-0.00001661,-0.00001676,0.00000308,-0
 .00008092,-0.00007263,-0.00001015,-0.00011288,-0.00000937,0.00003439,0
 .00001094,0.00000892,-0.00006931,0.00005884,-0.00001702,0.00008887,0.0
 0004157,0.00000898,-0.00022594,0.00002157,0.00005370,0.00003082,0.0000
 1302,-0.00000173,0.00013941,-0.00004742,-0.00007126,0.00001064,0.00004
 588,0.00000725,-0.00000093,-0.00001918,-0.00001856,0.00004005,-0.00005
 751,0.00003588,0.00002431,-0.00007204,0.00007786,0.00040639,0.00019813
 ,0.00002146,-0.00002968,-0.00001439,0.00000209,-0.00006093,0.00000051,
 0.00001192,-0.00038985,-0.00003638,0.00003136,-0.00001104,0.00002863,-
 0.00000494,-0.00000674,0.00007113,-0.00003776,0.00002226,-0.00006492,-
 0.00003910,0.00005026,0.00009911,0.00014601,-0.00011468,-0.00001649,-0
 .00001626,-0.00000318,0.00000032,-0.00000707,0.00001438,-0.00008139,-0
 .00007224,0.00001055,0.00011289,-0.00000918,-0.00003510,-0.00001081,0.
 00000882,0.00006868,-0.00005871,-0.00001664,-0.00008858,-0.00004033,0.
 00000818,0.00022501,-0.00002500,0.00005478,-0.00003051,-0.00001295,-0.
 00000192,-0.00001215,-0.00001383,0.00002777,-0.00013791,0.00004874,-0.
 00007181,0.20600035,1.51454781,2.18532311,0.00106485,0.00199393,-0.597
 56491,-0.00806619,-0.02116733,-0.00000033,0.00406217,0.03304633,0.0009
 8976,0.00003178,-0.02033017,-0.00387030,0.00001465,-0.00001361,-0.0143
 4226,-0.00000578,-0.00001937,0.00477643,0.00648176,0.00179915,0.000021
 22,-0.00351894,0.00184671,-0.00000360,0.00689529,-0.04555441,0.0168015
 2,-0.00002897,0.00309316,-0.00906934,0.00000012,0.00446778,-0.01769150
 ,0.00000427,0.00001037,-0.01644936,-0.00000366,-0.00000172,0.00112143,
 0.00000460,-0.00000287,0.00309124,-0.00066414,0.00695936,-0.00000107,-
 0.00072445,-0.00253957,-0.00000110,0.00125217,-0.00351865,-0.00000078,
 -0.00096726,0.00354724,-0.00050391,0.00000301,-0.00012042,0.00054975,-
 0.00000058,0.00025043,0.00063239,-0.00000007,-0.00123632,-0.00429572,0
 .00000373,0.00000495,0.00261050,0.00000038,-0.00000110,-0.00034607,-0.
 00000274,-0.00000084,0.00125506,0.00000270,-0.00000068,-0.00104451,-0.
 00053371,0.00007540,-0.00000113,0.00068559,0.00010499,0.00000083,-0.00
 062437,0.00015682,-0.00000124,0.00192097,0.00016534,0.00000070,-0.0007
 4075,-0.00059688,-0.00054043,-0.00000118,0.00059784,0.00019805,0.00000
 096,-0.00022856,0.00026955,-0.00000003,0.00083716,0.00001696,-0.000000
 53,0.00038177,-0.00033703,-0.00000254,-0.00000345,-0.00008978,0.000001
 42,0.00000100,0.00001892,-0.00000164,0.00000065,-0.00015204,0.00000203
 ,0.00000142,-0.00046590,-0.00000156,-0.00000420,0.00020321,-0.20344189
 ,-1.50225833,-0.00108424,0.00765848,-0.01213823,-0.00000496,-0.0102158
 3,0.04134712,-0.00000404,-0.00122081,-0.00290472,-0.00000460,-0.000506
 60,0.00036735,0.00000235,0.20807969,-1.50508886,-2.20201593,-0.0019986
 7,0.03811057,0.01124561,0.00003280,-0.00794180,0.00904756,-0.00000565,
 -0.00051197,0.00362936,-0.00000174,0.00005126,-0.00010869,0.00000185,1
 .47533212,2.17820320,-0.00108468,-0.00199437,0.62578701,0.00000831,-0.
 00000992,0.00876892,-0.00002026,0.00003274,0.01107245,0.00000068,-0.00
 000151,-0.00199297,0.00000099,0.00000037,0.00043677,0.00109553,0.00197
 237,-0.64390327,0.00011243,0.00002209,0.00004003,-0.00005027,0.0000042
 6,0.00000668,-0.00013442,0.00000333,0.00009965,0.00019983,0.00014838,0
 .00003271,-0.00010025,-0.00067879,0.00009711,-0.00017629,0.00002584,-0
 .00014570,0.00015153,0.00004923,-0.00002882,-0.00003144,-0.00009174,-0
 .00002146,0.00001247,-0.00009688,0.00000544,0.00001761,0.00000444,-0.0
 0001435,0.00007390,-0.00046821,0.00024998,-0.00028007,0.00012767,0.000
 00139,0.00008771,0.00044152,-0.00011783,-0.00006977,-0.00012472,0.0000
 2451,0.00008600,0.00005640,0.00000130,-0.00003499,0.00001205,0.0000309
 2,0.00011182,-0.00002417,-0.00000871,-0.00000692,0.00007910,0.00002503
 ,-0.00002806,0.00005959,-0.00008443,-0.00009497,0.00003074,-0.00001325
 ,0.00011139,0.00002185,-0.00003932,-0.00004639,0.00000569,-0.00000672,
 -0.00013565,0.00000485,-0.00009879,0.00020368,0.00015007,-0.00003287,-
 0.00010089,-0.00067989,-0.00009716,-0.00017675,0.00002285,0.00014513,-
 0.00000256,0.00003397,0.00003689,0.00014718,0.00004955,-0.00002532,0.0
 0003154,-0.00009191,-0.00002211,-0.00001279,-0.00009683,0.00000436,-0.
 00001763,0.00000555,-0.00001450,-0.00007396,-0.00046736,0.00025160,0.0
 0028280,0.00012703,-0.00000251,-0.00008740,0.00003337,-0.00007437,-0.0
 0008898,0.00044061,-0.00011715,0.00006950,0.00012690,0.00002430,-0.000
 08632,-0.00005706,0.00000131,0.00003742,-0.00001288,0.00003030,-0.0001
 1428,0.00002258,-0.00000739,0.00000835,-0.00007448,0.00002380,0.000028
 02,-0.00006055,-0.00008448,-0.00003551,0.00008908,0.00002463,0.0000928
 4,-0.00003358,-0.00001247,0.00027887,0.00938394,-0.04004428,0.00000104
 ,-0.00000491,0.00858325,0.00079184,-0.00145041,-0.00000350,0.00305819,
 0.00206069,0.00946161,0.00000359,-0.00437418,-0.00463198,-0.00000108,0
 .00000044,0.00257336,0.00000526,-0.00000401,-0.00468759,0.00137066,-0.
 02077291,0.00001197,-0.00753366,0.00643316,-0.00000441,5.38075945,-0.0
 5776664,0.02324029,-0.00003615,0.00373705,0.00369252,0.00000550,2.5077
 4125,-0.32064054,0.00000022,-0.00001227,-0.01910927,-0.00000474,0.0000
 0841,-0.00003495,0.00619989,0.00234185,-1.25890771,-0.00895977,0.03311
 387,-0.00000523,0.01323240,-0.01123173,0.00000634,-5.36058852,-2.46416
 958,-0.00619744,5.31873574,0.04490102,0.00942241,0.00003688,0.00612546
 ,-0.00925131,0.00000230,-2.49270606,0.29333384,-0.00234220,2.43636108,
 -0.28571687,0.00001080,-0.00000879,0.00630029,-0.00000718,-0.00000035,
 0.00289254,-0.00620855,-0.00229430,1.27249360,0.00618045,0.00231906,-1
 .25397700,0.00600808,-0.01907543,-0.00000128,-0.00808005,0.00633397,-0
 .00000590,-0.01316934,0.00562886,0.00000329,0.03011257,0.00326346,0.00
 001053,-0.00490801,0.00012285,-0.00425726,-0.00000007,-0.00172751,0.00
 163359,-0.00000172,-0.00036945,0.00367564,0.00000892,0.00627669,-0.013
 25548,-0.00003088,0.01022871,0.01026668,0.00000252,0.00000259,0.000608
 90,-0.00000075,-0.00000139,-0.00041365,-0.00002068,-0.00000626,0.00303
 232,0.00007824,0.00003463,-0.02869810,-0.00006074,0.00000169,0.0450561
 0,-0.00034303,0.00266416,-0.00000108,-0.00029191,-0.00049534,0.0000000
 1,0.00015021,0.00316507,-0.00000317,0.00315110,-0.00794393,0.00000613,
 -0.00013805,-0.00012089,-0.00000004,-0.00255653,0.00008452,0.00422746,
 0.00000064,-0.00114507,-0.00143686,-0.00000168,0.00309989,-0.00369511,
 0.00000111,-0.00829488,0.00373098,-0.00000003,0.00290507,0.00061448,0.
 00000028,0.00266182,-0.00356615,-0.00000328,0.00000143,0.00110002,0.00
 000075,-0.00000033,-0.00035588,-0.00000256,-0.00000098,0.00319349,0.00
 000362,-0.00000305,-0.00376973,0.00000133,0.00000015,0.00012128,-0.000
 00126,0.00000294,-0.00026860,0.00042813,-0.00192882,-0.00014993,-0.000
 58825,0.00063451,0.00006856,-0.00050216,0.00083434,-0.00018146,0.00218
 282,0.00501832,0.00516397,-0.00493419,-0.00723636,-0.00408007,0.000014
 35,0.00034273,0.00003390,0.00155013,0.00060882,-0.00102500,-0.00010580
 ,-0.00058312,0.00026566,0.00004910,-0.00171825,0.00019637,-0.00012550,
 0.00398340,0.00090263,0.00458664,-0.00463248,0.00058293,-0.01028537,0.
 00003458,0.00006215,0.00003649,0.00228783,-0.00153337,0.00099458,-0.00
 130475,-0.00002795,-0.00088522,0.00031427,0.00001229,-0.00224247,0.000
 24494,-0.00033855,0.00867645,0.00377467,0.00234239,-0.00044446,-0.0071
 2773,-0.00978178,-0.00003048,0.00012698,-0.00001022,-0.00345612,0.0049
 0586,0.00721467,0.00042521,-0.00193440,0.00014801,-0.00058858,0.000638
 91,-0.00006878,-0.00048662,0.00082967,0.00018342,0.00213364,0.00498065
 ,-0.00515615,-0.00489101,-0.00717404,0.00408151,0.00001385,0.00034592,
 -0.00003249,0.00184916,0.00001921,-0.00261226,0.00154436,0.00060481,-0
 .00102524,0.00010581,-0.00058223,0.00026675,-0.00004991,-0.00170762,0.
 00019699,0.00011969,0.00396116,0.00083379,-0.00457135,-0.00465217,0.00
 073942,0.01025382,0.00003453,0.00006305,-0.00003665,0.00004744,0.00054
 863,-0.00093422,0.00229409,-0.00162340,-0.00100480,0.00132626,-0.00002
 861,0.00089539,-0.00032019,0.00001385,0.00226681,-0.00025460,-0.000328
 94,-0.00874243,-0.00382227,0.00241600,0.00049724,0.00714964,-0.0099250
 7,0.00002990,-0.00013024,-0.00001037,0.00260115,0.00093859,0.00058914,
 0.00345675,-0.00488719,0.00727400,-0.00023921,-0.00007652,0.00006251,0
 .00000087,0.00000021,-0.00031401,0.00041719,0.00008905,0.00000046,-0.0
 0061886,0.00000474,-0.00001231,-0.00000016,0.00010452,0.00007953,0.000
 00010,0.,-0.00019153,-0.00000039,0.00000014,0.00028507,0.00006456,0.00
 091196,-0.00000052,0.00040074,-0.00039696,0.00000050,0.01168758,0.0001
 6330,-0.00039783,0.00000018,-0.00009660,0.00001828,-0.00000034,0.00530
 717,-0.00002168,0.00000097,-0.00000036,0.00047552,-0.00000009,0.000000
 01,-0.00010895,0.00001474,0.00000592,-0.00339997,0.00039460,-0.0014475
 7,-0.00000004,-0.00040592,0.00043406,-0.00000022,-0.01356771,-0.005910
 29,-0.00001618,0.01559585,0.00029229,-0.00054843,-0.00000080,-0.000270
 82,0.00017774,0.00000021,-0.00667175,0.00073099,-0.00000508,0.00802742
 ,-0.00071621,0.00000031,-0.00000122,-0.00001656,-0.00000064,0.00000035
 ,-0.00000005,-0.00001727,-0.00000424,0.00363357,0.00002702,0.00000308,
 -0.00531438,-0.00021196,-0.00020326,0.00000175,0.00003401,0.00004808,-
 0.00000082,0.00082307,0.00077744,0.00000089,-0.00007581,-0.00105877,0.
 00000868,1.31089974,-0.00028281,0.00035284,0.00000013,0.00008457,-0.00
 012439,-0.00000009,0.00082277,0.00029416,-0.00000016,-0.00021388,-0.00
 074826,-0.00000338,-0.97154641,-0.99651796,-0.00000047,-0.00000100,0.0
 0001969,-0.00000042,-0.00000020,-0.00002132,-0.00000078,0.00000379,-0.
 00018342,0.00000505,-0.00000312,-0.00036653,0.00508082,0.02592559,3.70
 946458,-0.00005332,0.00005361,0.00000022,-0.00013800,-0.00004608,-0.00
 000029,0.00008858,0.00005480,-0.00000016,0.00006104,0.00009643,-0.0000
 0041,-0.00007155,0.00010508,-0.00000020,-0.00010407,-0.00008929,0.0001
 4071,-0.00000020,-0.00001915,-0.00005262,0.00000003,-0.00003483,0.0000
 1555,0.00000018,0.00019958,0.00002639,0.00000027,0.00007573,-0.0000898
 2,0.00000004,-0.00004226,-0.00001527,-0.00000050,0.00000017,0.00003392
 ,-0.00000013,-0.00000006,-0.00000963,0.00000016,-0.00000007,-0.0000148
 3,0.00000009,0.00000017,0.00001661,-0.00000054,-0.00000030,-0.00018919
 ,0.00000044,-0.00000016,0.00000674,-0.00018784,0.00033833,-0.00011253,
 0.00015768,-0.00007456,0.00000230,0.00025437,-0.00014850,-0.00007754,-
 0.00099993,-0.00021252,0.00042006,-0.64541549,0.49231422,1.83258108,0.
 00010756,-0.00004460,0.00001051,0.61254603,-0.00000946,0.00020404,0.00
 001681,0.00005719,-0.00004351,0.00001330,0.00003470,-0.00032303,-0.000
 02345,-0.00055515,0.00053825,0.00019500,0.49230181,0.49370563,-0.68709
 603,-0.00011224,-0.00001180,-0.00002022,-0.49298758,-0.52750169,-0.000
 95023,0.00031719,-0.00000338,0.00057391,-0.00001934,0.00002287,0.00058
 840,-0.00025502,-0.00019870,-0.00135332,-0.00073868,0.00103086,1.75039
 940,-0.65417429,-1.86353486,-0.00024493,0.00015721,0.00007878,-1.79053
 786,0.67122753,1.92815978,-0.00018402,0.00033440,0.00010979,0.00015315
 ,-0.00007379,-0.00000118,0.00024882,-0.00014731,0.00007736,-0.00100211
 ,-0.00020228,-0.00043776,-0.66598202,0.47871646,-1.83766509,0.00010975
 ,-0.00004517,-0.00001003,0.03353762,0.00127073,0.04152464,0.63311882,-
 0.00000225,0.00019846,-0.00001617,0.00005124,-0.00004276,-0.00001325,0
 .00002695,-0.00031643,0.00002295,-0.00053416,0.00053953,-0.00018986,0.
 47960539,0.50312780,0.66117093,-0.00010933,-0.00001314,0.00002046,0.00
 081521,0.03343211,-0.01651460,-0.47985305,-0.53692558,0.00094895,-0.00
 031499,-0.00000364,-0.00057270,0.00001926,0.00002349,-0.00058523,0.000
 24978,-0.00020323,0.00133758,0.00074422,0.00101647,-1.75549018,0.62825
 251,-1.84518894,0.00024532,-0.00015737,0.00007759,-0.04228603,0.015687
 06,-0.06555535,1.79640228,-0.64448046,1.90983361,0.00059012,0.00023009
 ,0.00048481,0.00000146,0.00000095,0.00044850,-0.00042114,-0.00029504,-
 0.00000088,0.00043422,-0.00004360,-0.00006850,0.00000124,0.00007652,-0
 .00003742,-0.00000066,0.00000024,0.00011286,0.00000069,-0.00000088,-0.
 00018869,-0.00016045,-0.00015477,0.00000051,-0.00006537,0.00007050,-0.
 00000072,0.00069954,-0.00009838,-0.00003422,-0.00000112,0.00014422,0.0
 0001930,0.00000013,0.00024829,0.00003881,-0.00000115,-0.00000029,-0.00
 030594,0.00000096,-0.00000059,0.00000560,0.00000287,0.00000094,0.00042
 277,-0.00012673,0.00041023,0.00000089,0.00017902,-0.00010490,-0.000000
 24,-0.00010213,-0.00021046,-0.00000216,-0.00014840,-0.00022109,0.00028
 482,-0.00000044,0.00006343,-0.00005690,0.00000051,0.00019186,-0.000293
 23,-0.00000071,-0.00084553,0.00010025,0.00000119,0.00000035,-0.0000412
 7,-0.00000035,-0.00000048,0.00003610,-0.00000541,-0.00000145,-0.000258
 07,0.00001673,0.00000447,0.00037440,0.00013172,-0.00021250,0.00000004,
 -0.00015841,0.00003080,-0.00000090,0.00049023,0.00014068,0.00000363,-0
 .00101376,0.00037366,0.00000487,1.49317823,0.00062487,-0.00163637,0.00
 000139,-0.00044591,0.00031828,-0.00000075,-0.00027727,0.00162061,0.000
 00143,0.00212946,-0.00122275,-0.00000723,-1.09308674,-1.10579525,0.000
 00169,-0.00000219,-0.00006198,-0.00000128,0.00000062,-0.00005245,-0.00
 000778,0.00000261,0.00079293,-0.00000120,-0.00000748,-0.00207803,0.018
 89539,0.02128491,3.63229488,-0.00021085,-0.00012216,-0.00000184,0.0000
 8541,0.00001727,0.00000114,-0.00000231,0.00003382,0.00000037,0.0000206
 9,0.00015187,-0.00000026,-0.00001782,-0.00011330,-0.00000071,0.0000049
 8,0.00001096,-0.00024541,-0.00000124,0.00008753,0.00006475,0.00000027,
 0.00000450,0.00003882,0.00000060,-0.00006308,-0.00008664,0.,-0.0000069
 2,0.00021671,0.00000048,0.00005063,0.00014410,-0.00000039,-0.00000115,
 -0.00023418,-0.00000043,0.00000057,0.00004701,0.00000057,0.00000041,-0
 .00002375,0.00000004,-0.00000041,0.00007996,-0.00000030,0.00000054,-0.
 00010976,0.00000046,0.00000031,0.00017876,0.00010071,0.00006911,-0.000
 12908,-0.00002718,-0.00002294,0.00001237,-0.00042981,-0.00012650,0.000
 14713,0.00060179,0.00013810,-0.00013661,-0.73258496,0.55064409,1.91686
 305,0.00005949,-0.00004118,-0.00004196,0.72899974,-0.00025388,0.000610
 86,0.00003112,0.00018665,-0.00012066,0.00001504,-0.00003662,-0.0006994
 4,-0.00030084,-0.00066063,0.00064015,0.00052487,0.55143420,0.54612848,
 -0.71470547,-0.00000916,-0.00006632,0.00003209,-0.54810960,-0.54394744
 ,-0.00030372,0.00007804,0.00004080,0.00016140,-0.00001722,0.00001934,-
 0.00011664,-0.00014242,-0.00031514,0.00019366,-0.00023552,0.00094726,1
 .91674509,-0.71334877,-1.81811531,-0.00001678,0.00005765,0.00003107,-1
 .91676257,0.71397082,1.80968472,0.00009663,0.00007503,0.00012890,-0.00
 002658,-0.00002364,-0.00001167,-0.00042969,-0.00013167,-0.00015164,0.0
 0058951,0.00014770,0.00011984,-0.76002525,0.54052478,-1.93574916,0.000
 06041,-0.00004245,0.00004202,0.00328023,-0.00255096,0.00009956,0.75645
 475,-0.00024898,0.00060400,-0.00003189,0.00018260,-0.00011888,-0.00001
 455,-0.00004650,-0.00069066,0.00029945,-0.00065510,0.00063430,-0.00052
 052,0.54132682,0.56037028,0.69342653,-0.00000896,-0.00006602,-0.000032
 36,-0.00255109,-0.00254562,-0.00036257,-0.53799879,-0.55818740,0.00030
 158,-0.00007594,0.00004123,-0.00016010,0.00001674,0.00002022,0.0001266
 0,0.00014091,-0.00031841,-0.00020771,0.00023958,0.00093965,-1.93564781
 ,0.69206848,-1.81267031,0.00001762,-0.00005806,0.00003090,0.00004767,0
 .00043237,0.00770726,1.93552215,-0.69276407,1.80424947\\@
 The archive entry for this job was punched.


 SACRED COWS MAKE GREAT HAMBURGERS -- ROBERT REISNER
 Job cpu time:       0 days 22 hours 13 minutes 38.3 seconds.
 Elapsed time:       0 days  0 hours 34 minutes  1.3 seconds.
 File lengths (MBytes):  RWF=   1522 Int=      0 D2E=      0 Chk=     42 Scr=      1
 Normal termination of Gaussian 16 at Fri Mar 21 07:25:49 2025.
