 Entering Gaussian System, Link 0=g16
 Input=hcooht_nh3_mp2_avtz_opt_anharm.gjf
 Output=hcooht_nh3_mp2_avtz_opt_anharm.log
 Initial command:
 /sw/contrib/chem-src/g16/c01/g16/l1.exe "/scr/Gau-71572.inp" -scrdir="/scr/"
 Entering Link 1 = /sw/contrib/chem-src/g16/c01/g16/l1.exe PID=     71573.
  
 Copyright (c) 1988-2019, Gaussian, Inc.  All Rights Reserved.
  
 This is part of the Gaussian(R) 16 program.  It is based on
 the Gaussian(R) 09 system (copyright 2009, Gaussian, Inc.),
 the Gaussian(R) 03 system (copyright 2003, Gaussian, Inc.),
 the Gaussian(R) 98 system (copyright 1998, Gaussian, Inc.),
 the Gaussian(R) 94 system (copyright 1995, Gaussian, Inc.),
 the Gaussian 92(TM) system (copyright 1992, Gaussian, Inc.),
 the Gaussian 90(TM) system (copyright 1990, Gaussian, Inc.),
 the Gaussian 88(TM) system (copyright 1988, Gaussian, Inc.),
 the Gaussian 86(TM) system (copyright 1986, Carnegie Mellon
 University), and the Gaussian 82(TM) system (copyright 1983,
 Carnegie Mellon University). Gaussian is a federally registered
 trademark of Gaussian, Inc.
  
 This software contains proprietary and confidential information,
 including trade secrets, belonging to Gaussian, Inc.
  
 This software is provided under written license and may be
 used, copied, transmitted, or stored only in accord with that
 written license.
  
 The following legend is applicable only to US Government
 contracts under FAR:
  
                    RESTRICTED RIGHTS LEGEND
  
 Use, reproduction and disclosure by the US Government is
 subject to restrictions as set forth in subparagraphs (a)
 and (c) of the Commercial Computer Software - Restricted
 Rights clause in FAR 52.227-19.
  
 Gaussian, Inc.
 340 Quinnipiac St., Bldg. 40, Wallingford CT 06492
  
  
 ---------------------------------------------------------------
 Warning -- This program may not be used in any manner that
 competes with the business of Gaussian, Inc. or will provide
 assistance to any competitor of Gaussian, Inc.  The licensee
 of this program is prohibited from giving any competitor of
 Gaussian, Inc. access to this program.  By using this program,
 the user acknowledges that Gaussian, Inc. is engaged in the
 business of creating and licensing software in the field of
 computational chemistry and represents and warrants to the
 licensee that it is not a competitor of Gaussian, Inc. and that
 it will not use this program in any manner prohibited above.
 ---------------------------------------------------------------
  

 Cite this work as:
 Gaussian 16, Revision C.01,
 M. J. Frisch, G. W. Trucks, H. B. Schlegel, G. E. Scuseria, 
 M. A. Robb, J. R. Cheeseman, G. Scalmani, V. Barone, 
 G. A. Petersson, H. Nakatsuji, X. Li, M. Caricato, A. V. Marenich, 
 J. Bloino, B. G. Janesko, R. Gomperts, B. Mennucci, H. P. Hratchian, 
 J. V. Ortiz, A. F. Izmaylov, J. L. Sonnenberg, D. Williams-Young, 
 F. Ding, F. Lipparini, F. Egidi, J. Goings, B. Peng, A. Petrone, 
 T. Henderson, D. Ranasinghe, V. G. Zakrzewski, J. Gao, N. Rega, 
 G. Zheng, W. Liang, M. Hada, M. Ehara, K. Toyota, R. Fukuda, 
 J. Hasegawa, M. Ishida, T. Nakajima, Y. Honda, O. Kitao, H. Nakai, 
 T. Vreven, K. Throssell, J. A. Montgomery, Jr., J. E. Peralta, 
 F. Ogliaro, M. J. Bearpark, J. J. Heyd, E. N. Brothers, K. N. Kudin, 
 V. N. Staroverov, T. A. Keith, R. Kobayashi, J. Normand, 
 K. Raghavachari, A. P. Rendell, J. C. Burant, S. S. Iyengar, 
 J. Tomasi, M. Cossi, J. M. Millam, M. Klene, C. Adamo, R. Cammi, 
 J. W. Ochterski, R. L. Martin, K. Morokuma, O. Farkas, 
 J. B. Foresman, and D. J. Fox, Gaussian, Inc., Wallingford CT, 2019.
 
 ******************************************
 Gaussian 16:  EM64L-G16RevC.01  3-Jul-2019
                29-Mar-2025 
 ******************************************
 %nprocshared=40
 Will use up to   40 processors via shared memory.
 %mem=50gb
 ----------------------------------------------
 # MP2/aug-cc-pVTZ opt freq=(vibrot,anharmonic)
 ----------------------------------------------
 1/18=20,19=15,38=1,80=1/1,3;
 2/9=110,12=2,17=6,18=5,40=1/2;
 3/5=16,6=1,7=10,11=9,25=1,30=1,71=1/1,2,3;
 4//1;
 5/5=2,38=5/2;
 8/6=4,10=1/1;
 9/15=2,16=-3/6;
 10/5=1/2;
 6/7=2,8=2,9=2,10=2/1;
 7/12=2/1,2,3,16;
 1/18=20,19=15,80=1/3(2);
 2/9=110/2;
 99//99;
 2/9=110/2;
 3/5=16,6=1,7=10,11=9,25=1,30=1,71=1/1,2,3;
 4/5=5,16=3,69=1/1;
 5/5=2,38=5/2;
 8/6=4,10=1/1;
 9/15=2,16=-3/6;
 10/5=1/2;
 7/12=2/1,2,3,16;
 1/18=20,19=15,80=1/3(-8);
 2/9=110/2;
 6/7=2,8=2,9=2,10=2/1;
 99/9=10/99;
 ----
 blah
 ----
 Symbolic Z-matrix:
 Charge =  0 Multiplicity = 1
 C                     1.05124  -0.29293  -0.00016 
 O                     2.24954  -0.15767   0.00014 
 O                     0.18799   0.72529  -0.00007 
 H                    -0.7372    0.36734  -0.00026 
 N                    -2.45202  -0.16371   0.00001 
 H                    -3.01829   0.67621  -0.03209 
 H                    -2.73102  -0.67279   0.83025 
 H                    -2.7206   -0.72789  -0.79738 
 H                     0.56351  -1.28034  -0.00022 
 
 Add virtual bond connecting atoms N5         and H4         Dist= 3.39D+00.

 GradGradGradGradGradGradGradGradGradGradGradGradGradGradGradGradGradGrad
 Berny optimization.
 Initialization pass.
                           ----------------------------
                           !    Initial Parameters    !
                           ! (Angstroms and Degrees)  !
 --------------------------                            --------------------------
 ! Name  Definition              Value          Derivative Info.                !
 --------------------------------------------------------------------------------
 ! R1    R(1,2)                  1.2059         estimate D2E/DX2                !
 ! R2    R(1,3)                  1.3349         estimate D2E/DX2                !
 ! R3    R(1,9)                  1.1013         estimate D2E/DX2                !
 ! R4    R(3,4)                  0.992          estimate D2E/DX2                !
 ! R5    R(4,5)                  1.7952         estimate D2E/DX2                !
 ! R6    R(5,6)                  1.0135         estimate D2E/DX2                !
 ! R7    R(5,7)                  1.0131         estimate D2E/DX2                !
 ! R8    R(5,8)                  1.0131         estimate D2E/DX2                !
 ! A1    A(2,1,3)              123.8516         estimate D2E/DX2                !
 ! A2    A(2,1,9)              122.7275         estimate D2E/DX2                !
 ! A3    A(3,1,9)              113.4209         estimate D2E/DX2                !
 ! A4    A(1,3,4)              109.1407         estimate D2E/DX2                !
 ! A5    A(4,5,6)              106.7721         estimate D2E/DX2                !
 ! A6    A(4,5,7)              114.3217         estimate D2E/DX2                !
 ! A7    A(4,5,8)              114.701          estimate D2E/DX2                !
 ! A8    A(6,5,7)              106.7706         estimate D2E/DX2                !
 ! A9    A(6,5,8)              106.7666         estimate D2E/DX2                !
 ! A10   A(7,5,8)              106.9891         estimate D2E/DX2                !
 ! A11   L(3,4,5,9,-1)         183.9444         estimate D2E/DX2                !
 ! A12   L(3,4,5,9,-2)         179.9793         estimate D2E/DX2                !
 ! D1    D(2,1,3,4)           -179.9932         estimate D2E/DX2                !
 ! D2    D(2,1,3,9)           -179.9823         estimate D2E/DX2                !
 ! D3    D(9,1,3,4)             -0.0109         estimate D2E/DX2                !
 ! D4    D(1,3,5,6)           -178.1137         estimate D2E/DX2                !
 ! D5    D(1,3,5,7)             64.6478         estimate D2E/DX2                !
 ! D6    D(1,3,5,8)            -60.6155         estimate D2E/DX2                !
 --------------------------------------------------------------------------------
 Trust Radius=3.00D-01 FncErr=1.00D-07 GrdErr=1.00D-07 EigMax=2.50D+02 EigMin=1.00D-04
 Number of steps in this run=     36 maximum allowed number of steps=    100.
 GradGradGradGradGradGradGradGradGradGradGradGradGradGradGradGradGradGrad

                          Input orientation:                          
 ---------------------------------------------------------------------
 Center     Atomic      Atomic             Coordinates (Angstroms)
 Number     Number       Type             X           Y           Z
 ---------------------------------------------------------------------
      1          6           0        1.051245   -0.292927   -0.000159
      2          8           0        2.249544   -0.157666    0.000139
      3          8           0        0.187990    0.725286   -0.000069
      4          1           0       -0.737196    0.367340   -0.000257
      5          7           0       -2.452021   -0.163705    0.000014
      6          1           0       -3.018289    0.676212   -0.032086
      7          1           0       -2.731024   -0.672792    0.830245
      8          1           0       -2.720604   -0.727886   -0.797381
      9          1           0        0.563507   -1.280337   -0.000223
 ---------------------------------------------------------------------
                    Distance matrix (angstroms):
                    1          2          3          4          5
     1  C    0.000000
     2  O    1.205909   0.000000
     3  O    1.334903   2.242679   0.000000
     4  H    1.906430   3.032531   0.992015   0.000000
     5  N    3.505648   4.701569   2.785671   1.795170   0.000000
     6  H    4.183462   5.333522   3.206814   2.302130   1.013484
     7  H    3.890942   5.075479   3.341360   2.397281   1.013063
     8  H    3.879639   5.065921   3.347736   2.401840   1.013053
     9  H    1.101302   2.025614   2.040475   2.099206   3.215630
                    6          7          8          9
     6  H    0.000000
     7  H    1.626637   0.000000
     8  H    1.626587   1.628592   0.000000
     9  H    4.081466   3.451481   3.424332   0.000000
 Stoichiometry    CH5NO2
 Framework group  C1[X(CH5NO2)]
 Deg. of freedom    21
 Full point group                 C1      NOp   1
 Largest Abelian subgroup         C1      NOp   1
 Largest concise Abelian subgroup C1      NOp   1
                         Standard orientation:                         
 ---------------------------------------------------------------------
 Center     Atomic      Atomic             Coordinates (Angstroms)
 Number     Number       Type             X           Y           Z
 ---------------------------------------------------------------------
      1          6           0        1.051245   -0.292927   -0.000159
      2          8           0        2.249544   -0.157666    0.000139
      3          8           0        0.187990    0.725286   -0.000069
      4          1           0       -0.737196    0.367340   -0.000257
      5          7           0       -2.452021   -0.163705    0.000014
      6          1           0       -3.018289    0.676212   -0.032086
      7          1           0       -2.731024   -0.672792    0.830245
      8          1           0       -2.720604   -0.727886   -0.797381
      9          1           0        0.563507   -1.280337   -0.000223
 ---------------------------------------------------------------------
 Rotational constants (GHZ):          34.2741537           2.4753315           2.3371390
 Standard basis: Aug-CC-pVTZ (5D, 7F)
 There are   345 symmetry adapted cartesian basis functions of A   symmetry.
 There are   299 symmetry adapted basis functions of A   symmetry.
   299 basis functions,   423 primitive gaussians,   345 cartesian basis functions
    17 alpha electrons       17 beta electrons
       nuclear repulsion energy       118.0780811538 Hartrees.
 NAtoms=    9 NActive=    9 NUniq=    9 SFac= 1.00D+00 NAtFMM=   60 NAOKFM=F Big=F
 Integral buffers will be    131072 words long.
 Raffenetti 1 integral format.
 Two-electron integral symmetry is turned on.
 One-electron integrals computed using PRISM.
 NBasis=   299 RedAO= T EigKep=  4.50D-05  NBF=   299
 NBsUse=   299 1.00D-06 EigRej= -1.00D+00 NBFU=   299
 ExpMin= 2.53D-02 ExpMax= 1.53D+04 ExpMxC= 5.22D+02 IAcc=3 IRadAn=         5 AccDes= 0.00D+00
 Harris functional with IExCor=  205 and IRadAn=       5 diagonalized for initial guess.
 HarFok:  IExCor=  205 AccDes= 0.00D+00 IRadAn=         5 IDoV= 1 UseB2=F ITyADJ=14
 ICtDFT=  3500011 ScaDFX=  1.000000  1.000000  1.000000  1.000000
 FoFCou: FMM=F IPFlag=           0 FMFlag=      100000 FMFlg1=           0
         NFxFlg=           0 DoJE=T BraDBF=F KetDBF=T FulRan=T
         wScrn=  0.000000 ICntrl=       500 IOpCl=  0 I1Cent=   200000004 NGrid=           0
         NMat0=    1 NMatS0=      1 NMatT0=    0 NMatD0=    1 NMtDS0=    0 NMtDT0=    0
 Petite list used in FoFCou.
 Keep R1 ints in memory in canonical form, NReq=1026496068.
 Requested convergence on RMS density matrix=1.00D-08 within 128 cycles.
 Requested convergence on MAX density matrix=1.00D-06.
 Requested convergence on             energy=1.00D-06.
 No special actions if energy rises.
 SCF Done:  E(RHF) =  -245.068941221     A.U. after   12 cycles
            NFock= 12  Conv=0.78D-08     -V/T= 2.0018
 ExpMin= 2.53D-02 ExpMax= 1.53D+04 ExpMxC= 5.22D+02 IAcc=3 IRadAn=         5 AccDes= 0.00D+00
 HarFok:  IExCor=  205 AccDes= 0.00D+00 IRadAn=         5 IDoV=-2 UseB2=F ITyADJ=14
 ICtDFT= 12500011 ScaDFX=  1.000000  1.000000  1.000000  1.000000
 Range of M.O.s used for correlation:     5   299
 NBasis=   299 NAE=    17 NBE=    17 NFC=     4 NFV=     0
 NROrb=    295 NOA=    13 NOB=    13 NVA=   282 NVB=   282

 **** Warning!!: The largest alpha MO coefficient is  0.27330084D+02

 Disk-based method using ON**2 memory for 13 occupieds at a time.
 Estimated scratch disk usage=   990932033 words.
 Actual    scratch disk usage=   907708481 words.
 JobTyp=1 Pass  1:  I=   5 to  17 NPSUse= 40 ParTrn=T ParDer=T DoDerP=T.
 (rs|ai) integrals will be sorted in core.
 Spin components of T(2) and E(2):
     alpha-alpha T2 =       0.3044258532D-01 E2=     -0.1102154928D+00
     alpha-beta  T2 =       0.1726057475D+00 E2=     -0.6694426425D+00
     beta-beta   T2 =       0.3044258532D-01 E2=     -0.1102154928D+00
 ANorm=    0.1110626363D+01
 E2 =    -0.8898736281D+00 EUMP2 =    -0.24595881484894D+03
          IDoAtm=111111111
          Differentiating once with respect to electric field.
                with respect to dipole field.
          Differentiating once with respect to nuclear coordinates.
 Keep R1 ints in memory in canonical form, NReq=1026497921.
          There are     1 degrees of freedom in the 1st order CPHF.  IDoFFX=0 NUNeed=     1.
 LinEq1:  Iter=  0 NonCon=     1 RMS=3.52D-03 Max=9.32D-02 NDo=     1
 AX will form     1 AO Fock derivatives at one time.
 LinEq1:  Iter=  1 NonCon=     1 RMS=9.50D-04 Max=1.38D-02 NDo=     1
 LinEq1:  Iter=  2 NonCon=     1 RMS=3.48D-04 Max=5.92D-03 NDo=     1
 LinEq1:  Iter=  3 NonCon=     1 RMS=1.50D-04 Max=2.75D-03 NDo=     1
 LinEq1:  Iter=  4 NonCon=     1 RMS=4.32D-05 Max=4.28D-04 NDo=     1
 LinEq1:  Iter=  5 NonCon=     1 RMS=1.79D-05 Max=3.90D-04 NDo=     1
 LinEq1:  Iter=  6 NonCon=     1 RMS=5.81D-06 Max=9.22D-05 NDo=     1
 LinEq1:  Iter=  7 NonCon=     1 RMS=1.51D-06 Max=1.93D-05 NDo=     1
 LinEq1:  Iter=  8 NonCon=     1 RMS=5.61D-07 Max=6.64D-06 NDo=     1
 LinEq1:  Iter=  9 NonCon=     1 RMS=1.97D-07 Max=2.26D-06 NDo=     1
 LinEq1:  Iter= 10 NonCon=     1 RMS=4.56D-08 Max=5.18D-07 NDo=     1
 LinEq1:  Iter= 11 NonCon=     1 RMS=7.99D-09 Max=8.67D-08 NDo=     1
 LinEq1:  Iter= 12 NonCon=     1 RMS=1.27D-09 Max=1.17D-08 NDo=     1
 LinEq1:  Iter= 13 NonCon=     1 RMS=1.92D-10 Max=2.21D-09 NDo=     1
 LinEq1:  Iter= 14 NonCon=     0 RMS=3.21D-11 Max=4.62D-10 NDo=     1
 Linear equations converged to 1.000D-10 1.000D-09 after    14 iterations.
 End of Minotr F.D. properties file   721 does not exist.
 End of Minotr F.D. properties file   722 does not exist.
 End of Minotr F.D. properties file   788 does not exist.

 **********************************************************************

            Population analysis using the SCF Density.

 **********************************************************************

 Orbital symmetries:
       Occupied  (A) (A) (A) (A) (A) (A) (A) (A) (A) (A) (A) (A)
                 (A) (A) (A) (A) (A)
       Virtual   (A) (A) (A) (A) (A) (A) (A) (A) (A) (A) (A) (A)
                 (A) (A) (A) (A) (A) (A) (A) (A) (A) (A) (A) (A)
                 (A) (A) (A) (A) (A) (A) (A) (A) (A) (A) (A) (A)
                 (A) (A) (A) (A) (A) (A) (A) (A) (A) (A) (A) (A)
                 (A) (A) (A) (A) (A) (A) (A) (A) (A) (A) (A) (A)
                 (A) (A) (A) (A) (A) (A) (A) (A) (A) (A) (A) (A)
                 (A) (A) (A) (A) (A) (A) (A) (A) (A) (A) (A) (A)
                 (A) (A) (A) (A) (A) (A) (A) (A) (A) (A) (A) (A)
                 (A) (A) (A) (A) (A) (A) (A) (A) (A) (A) (A) (A)
                 (A) (A) (A) (A) (A) (A) (A) (A) (A) (A) (A) (A)
                 (A) (A) (A) (A) (A) (A) (A) (A) (A) (A) (A) (A)
                 (A) (A) (A) (A) (A) (A) (A) (A) (A) (A) (A) (A)
                 (A) (A) (A) (A) (A) (A) (A) (A) (A) (A) (A) (A)
                 (A) (A) (A) (A) (A) (A) (A) (A) (A) (A) (A) (A)
                 (A) (A) (A) (A) (A) (A) (A) (A) (A) (A) (A) (A)
                 (A) (A) (A) (A) (A) (A) (A) (A) (A) (A) (A) (A)
                 (A) (A) (A) (A) (A) (A) (A) (A) (A) (A) (A) (A)
                 (A) (A) (A) (A) (A) (A) (A) (A) (A) (A) (A) (A)
                 (A) (A) (A) (A) (A) (A) (A) (A) (A) (A) (A) (A)
                 (A) (A) (A) (A) (A) (A) (A) (A) (A) (A) (A) (A)
                 (A) (A) (A) (A) (A) (A) (A) (A) (A) (A) (A) (A)
                 (A) (A) (A) (A) (A) (A) (A) (A) (A) (A) (A) (A)
                 (A) (A) (A) (A) (A) (A) (A) (A) (A) (A) (A) (A)
                 (A) (A) (A) (A) (A) (A)
 The electronic state is 1-A.
 Alpha  occ. eigenvalues --  -20.58486 -20.53270 -15.59547 -11.36786  -1.43593
 Alpha  occ. eigenvalues --   -1.34387  -1.19906  -0.83601  -0.76466  -0.68344
 Alpha  occ. eigenvalues --   -0.68254  -0.64017  -0.60138  -0.57483  -0.48697
 Alpha  occ. eigenvalues --   -0.45845  -0.43834
 Alpha virt. eigenvalues --    0.01200   0.03465   0.03516   0.04909   0.06277
 Alpha virt. eigenvalues --    0.09287   0.09947   0.11850   0.13371   0.13975
 Alpha virt. eigenvalues --    0.14008   0.14912   0.15704   0.16404   0.18056
 Alpha virt. eigenvalues --    0.18699   0.20032   0.21255   0.21706   0.23582
 Alpha virt. eigenvalues --    0.24623   0.25514   0.26061   0.26816   0.30046
 Alpha virt. eigenvalues --    0.31110   0.31172   0.34463   0.35040   0.35060
 Alpha virt. eigenvalues --    0.35588   0.37320   0.37400   0.37820   0.38734
 Alpha virt. eigenvalues --    0.39439   0.39682   0.41809   0.42355   0.43238
 Alpha virt. eigenvalues --    0.43648   0.44271   0.48622   0.51508   0.52665
 Alpha virt. eigenvalues --    0.52923   0.55982   0.57416   0.57483   0.59410
 Alpha virt. eigenvalues --    0.59725   0.63717   0.65177   0.65762   0.68694
 Alpha virt. eigenvalues --    0.69958   0.73269   0.74708   0.76164   0.78551
 Alpha virt. eigenvalues --    0.78660   0.82251   0.82762   0.83812   0.85690
 Alpha virt. eigenvalues --    0.87304   0.87762   0.88588   0.89383   0.89914
 Alpha virt. eigenvalues --    0.90378   0.91640   0.92640   0.93354   0.93639
 Alpha virt. eigenvalues --    0.95284   0.97161   0.99315   1.00121   1.01047
 Alpha virt. eigenvalues --    1.01635   1.03118   1.03534   1.03749   1.05595
 Alpha virt. eigenvalues --    1.08160   1.09905   1.11377   1.12999   1.14365
 Alpha virt. eigenvalues --    1.15093   1.17995   1.20087   1.21828   1.24069
 Alpha virt. eigenvalues --    1.25706   1.26724   1.28680   1.31176   1.31752
 Alpha virt. eigenvalues --    1.32276   1.33825   1.37757   1.40057   1.40200
 Alpha virt. eigenvalues --    1.42310   1.44316   1.47399   1.49735   1.52539
 Alpha virt. eigenvalues --    1.53035   1.53735   1.56584   1.58192   1.59972
 Alpha virt. eigenvalues --    1.63026   1.66207   1.68665   1.68841   1.72309
 Alpha virt. eigenvalues --    1.73892   1.77382   1.79997   1.80907   1.81815
 Alpha virt. eigenvalues --    1.82723   1.88486   1.93315   1.95824   1.96745
 Alpha virt. eigenvalues --    1.98177   2.04364   2.04915   2.06517   2.09619
 Alpha virt. eigenvalues --    2.14255   2.17381   2.20829   2.21545   2.29259
 Alpha virt. eigenvalues --    2.29467   2.29990   2.35132   2.38483   2.40475
 Alpha virt. eigenvalues --    2.42239   2.43017   2.43819   2.44528   2.46815
 Alpha virt. eigenvalues --    2.47884   2.49295   2.53527   2.57278   2.57940
 Alpha virt. eigenvalues --    2.61288   2.66337   2.66639   2.68261   2.71926
 Alpha virt. eigenvalues --    2.74698   2.77128   2.85268   2.91096   2.91530
 Alpha virt. eigenvalues --    2.93801   2.98232   3.04060   3.05147   3.09462
 Alpha virt. eigenvalues --    3.16863   3.21390   3.29475   3.32753   3.35639
 Alpha virt. eigenvalues --    3.45556   3.48502   3.56056   3.57695   3.72255
 Alpha virt. eigenvalues --    3.75021   3.81909   3.87335   3.92821   3.96225
 Alpha virt. eigenvalues --    3.98971   4.00403   4.03275   4.08293   4.11985
 Alpha virt. eigenvalues --    4.14832   4.16242   4.16736   4.17744   4.22123
 Alpha virt. eigenvalues --    4.25599   4.26560   4.29960   4.31375   4.34278
 Alpha virt. eigenvalues --    4.34841   4.38551   4.39365   4.42886   4.44741
 Alpha virt. eigenvalues --    4.48290   4.53369   4.57521   4.57871   4.58015
 Alpha virt. eigenvalues --    4.58479   4.68165   4.68959   4.72022   4.73398
 Alpha virt. eigenvalues --    4.75986   4.78277   4.79029   4.90276   4.93083
 Alpha virt. eigenvalues --    4.94748   4.94941   5.03413   5.04042   5.06119
 Alpha virt. eigenvalues --    5.12202   5.17779   5.20392   5.21918   5.22148
 Alpha virt. eigenvalues --    5.31355   5.38110   5.43501   5.46781   5.58663
 Alpha virt. eigenvalues --    5.66765   5.67313   5.78873   5.88384   5.88699
 Alpha virt. eigenvalues --    5.90383   5.97751   6.27193   6.29950   6.31066
 Alpha virt. eigenvalues --    6.37322   6.40520   6.47216   6.61729   6.63968
 Alpha virt. eigenvalues --    6.66528   6.71914   6.81610   6.88865   6.91016
 Alpha virt. eigenvalues --    6.92118   6.93647   6.99923   7.02686   7.16391
 Alpha virt. eigenvalues --    7.24171   7.24643   7.32475   7.38092   7.40390
 Alpha virt. eigenvalues --    7.42411   7.53026   7.61075   7.61417   7.69325
 Alpha virt. eigenvalues --    7.76490   7.77866   7.79279   7.85091   7.96339
 Alpha virt. eigenvalues --    8.04398   8.35251   8.58471  15.19385  16.03006
 Alpha virt. eigenvalues --   17.97504  18.02617
          Condensed to atoms (all electrons):
               1          2          3          4          5          6
     1  C    4.875796   0.522254   0.366622  -0.048688  -0.000270  -0.002030
     2  O    0.522254   8.280397  -0.098058  -0.023233  -0.000866  -0.000038
     3  O    0.366622  -0.098058   8.046658   0.143638  -0.043395  -0.005460
     4  H   -0.048688  -0.023233   0.143638   0.501130   0.027842   0.000541
     5  N   -0.000270  -0.000866  -0.043395   0.027842   6.061977   0.416861
     6  H   -0.002030  -0.000038  -0.005460   0.000541   0.416861   0.498985
     7  H    0.001646  -0.000010  -0.001318   0.003180   0.409937  -0.013456
     8  H    0.001798  -0.000050  -0.001084   0.003053   0.409295  -0.013854
     9  H    0.266447  -0.055029  -0.020666   0.013087  -0.002373   0.000207
               7          8          9
     1  C    0.001646   0.001798   0.266447
     2  O   -0.000010  -0.000050  -0.055029
     3  O   -0.001318  -0.001084  -0.020666
     4  H    0.003180   0.003053   0.013087
     5  N    0.409937   0.409295  -0.002373
     6  H   -0.013456  -0.013854   0.000207
     7  H    0.477967  -0.008062  -0.000301
     8  H   -0.008062   0.477905  -0.000300
     9  H   -0.000301  -0.000300   0.283450
 Mulliken charges:
               1
     1  C    0.016426
     2  O   -0.625367
     3  O   -0.386937
     4  H    0.379450
     5  N   -0.279007
     6  H    0.118243
     7  H    0.130418
     8  H    0.131298
     9  H    0.515477
 Sum of Mulliken charges =  -0.00000
 Mulliken charges with hydrogens summed into heavy atoms:
               1
     1  C    0.531903
     2  O   -0.625367
     3  O   -0.007487
     5  N    0.100951
 Electronic spatial extent (au):  <R**2>=            495.5184
 Charge=             -0.0000 electrons
 Dipole moment (field-independent basis, Debye):
    X=             -7.2007    Y=             -2.0605    Z=              0.0002  Tot=              7.4897
 Quadrupole moment (field-independent basis, Debye-Ang):
   XX=            -23.9076   YY=            -24.0466   ZZ=            -23.1067
   XY=              0.2167   XZ=             -0.0017   YZ=             -0.0001
 Traceless Quadrupole moment (field-independent basis, Debye-Ang):
   XX=             -0.2206   YY=             -0.3597   ZZ=              0.5803
   XY=              0.2167   XZ=             -0.0017   YZ=             -0.0001
 Octapole moment (field-independent basis, Debye-Ang**2):
  XXX=            -58.8410  YYY=             -1.5625  ZZZ=              0.1103  XYY=             -5.9830
  XXY=              2.2005  XXZ=             -0.0105  XZZ=             -4.5302  YZZ=             -1.2973
  YYZ=             -0.1025  XYZ=              0.0211
 Hexadecapole moment (field-independent basis, Debye-Ang**3):
 XXXX=           -493.6396 YYYY=            -55.1474 ZZZZ=            -24.0636 XXXY=              3.3317
 XXXZ=              0.0644 YYYX=             -0.2678 YYYZ=              0.0810 ZZZX=             -0.3199
 ZZZY=             -0.0301 XXYY=            -83.9071 XXZZ=            -78.2521 YYZZ=            -12.9193
 XXYZ=             -0.1200 YYXZ=              0.2911 ZZXY=              4.1715
 N-N= 1.180780811538D+02 E-N=-8.144711469396D+02  KE= 2.446301561233D+02
 Calling FoFJK, ICntrl=  10002127 FMM=F ISym2X=0 I1Cent= 0 IOpClX= 0 NMat=1 NMatS=1 NMatT=0.
 ***** Axes restored to original set *****
 -------------------------------------------------------------------
 Center     Atomic                   Forces (Hartrees/Bohr)
 Number     Number              X              Y              Z
 -------------------------------------------------------------------
      1        6           0.000039293   -0.000004424    0.000037877
      2        8          -0.000028847   -0.000009923   -0.000013653
      3        8           0.000009781    0.000013043   -0.000011282
      4        1          -0.000049978   -0.000011695   -0.000005482
      5        7           0.000049062    0.000007723    0.000008730
      6        1          -0.000002094    0.000000282    0.000000378
      7        1          -0.000013837   -0.000003402   -0.000005506
      8        1          -0.000007009   -0.000001145    0.000000948
      9        1           0.000003630    0.000009542   -0.000012010
 -------------------------------------------------------------------
 Cartesian Forces:  Max     0.000049978 RMS     0.000019487

 GradGradGradGradGradGradGradGradGradGradGradGradGradGradGradGradGradGrad
 Berny optimization.
 FormGI is forming the generalized inverse of G from B-inverse, IUseBI=4.
 Internal  Forces:  Max     0.000029781 RMS     0.000011852
 Search for a local minimum.
 Step number   1 out of a maximum of   36
 All quantities printed in internal units (Hartrees-Bohrs-Radians)
 Mixed Optimization -- En-DIIS/RFO-DIIS
 Second derivative matrix not updated -- first step.
 ITU=  0
     Eigenvalues ---    0.00230   0.00230   0.00230   0.02553   0.02553
     Eigenvalues ---    0.06170   0.08933   0.10060   0.16000   0.16000
     Eigenvalues ---    0.16000   0.16000   0.16000   0.22000   0.33539
     Eigenvalues ---    0.45394   0.45464   0.45465   0.49120   0.58362
     Eigenvalues ---    1.01909
 RFO step:  Lambda=-3.69884244D-08 EMin= 2.30000000D-03
 Linear search not attempted -- first point.
 Iteration  1 RMS(Cart)=  0.00030265 RMS(Int)=  0.00000008
 Iteration  2 RMS(Cart)=  0.00000008 RMS(Int)=  0.00000002
 Variable       Old X    -DE/DX   Delta X   Delta X   Delta X     New X
                                 (Linear)    (Quad)   (Total)
    R1        2.27884  -0.00003   0.00000  -0.00003  -0.00003   2.27881
    R2        2.52260   0.00001   0.00000   0.00002   0.00002   2.52262
    R3        2.08116  -0.00001   0.00000  -0.00003  -0.00003   2.08113
    R4        1.87464   0.00003   0.00000   0.00005   0.00005   1.87469
    R5        3.39238  -0.00003   0.00000  -0.00042  -0.00042   3.39196
    R6        1.91521   0.00000   0.00000   0.00000   0.00000   1.91521
    R7        1.91441   0.00000   0.00000   0.00000   0.00000   1.91441
    R8        1.91439   0.00000   0.00000   0.00000   0.00000   1.91440
    A1        2.16162   0.00001   0.00000   0.00005   0.00005   2.16167
    A2        2.14200  -0.00000   0.00000  -0.00002  -0.00002   2.14198
    A3        1.97957  -0.00001   0.00000  -0.00003  -0.00003   1.97954
    A4        1.90487   0.00000   0.00000   0.00001   0.00001   1.90488
    A5        1.86352  -0.00000   0.00000  -0.00003  -0.00003   1.86350
    A6        1.99529   0.00002   0.00000   0.00013   0.00013   1.99542
    A7        2.00191   0.00000   0.00000   0.00003   0.00003   2.00194
    A8        1.86350  -0.00001   0.00000  -0.00004  -0.00004   1.86346
    A9        1.86343  -0.00000   0.00000  -0.00004  -0.00004   1.86338
   A10        1.86731  -0.00001   0.00000  -0.00006  -0.00006   1.86725
   A11        3.21043  -0.00000   0.00000   0.00015   0.00015   3.21059
   A12        3.14123   0.00000   0.00000   0.00025   0.00025   3.14148
    D1       -3.14147  -0.00001   0.00000  -0.00038  -0.00038   3.14134
    D2       -3.14128  -0.00002   0.00000  -0.00064  -0.00064   3.14126
    D3       -0.00019   0.00001   0.00000   0.00026   0.00026   0.00007
    D4       -3.10867   0.00000   0.00000  -0.00057  -0.00057  -3.10924
    D5        1.12832   0.00000   0.00000  -0.00059  -0.00059   1.12773
    D6       -1.05794  -0.00000   0.00000  -0.00070  -0.00070  -1.05864
         Item               Value     Threshold  Converged?
 Maximum Force            0.000030     0.000450     YES
 RMS     Force            0.000012     0.000300     YES
 Maximum Displacement     0.000825     0.001800     YES
 RMS     Displacement     0.000303     0.001200     YES
 Predicted change in Energy=-1.849444D-08
 Optimization completed.
    -- Stationary point found.
                           ----------------------------
                           !   Optimized Parameters   !
                           ! (Angstroms and Degrees)  !
 --------------------------                            --------------------------
 ! Name  Definition              Value          Derivative Info.                !
 --------------------------------------------------------------------------------
 ! R1    R(1,2)                  1.2059         -DE/DX =    0.0                 !
 ! R2    R(1,3)                  1.3349         -DE/DX =    0.0                 !
 ! R3    R(1,9)                  1.1013         -DE/DX =    0.0                 !
 ! R4    R(3,4)                  0.992          -DE/DX =    0.0                 !
 ! R5    R(4,5)                  1.7952         -DE/DX =    0.0                 !
 ! R6    R(5,6)                  1.0135         -DE/DX =    0.0                 !
 ! R7    R(5,7)                  1.0131         -DE/DX =    0.0                 !
 ! R8    R(5,8)                  1.0131         -DE/DX =    0.0                 !
 ! A1    A(2,1,3)              123.8516         -DE/DX =    0.0                 !
 ! A2    A(2,1,9)              122.7275         -DE/DX =    0.0                 !
 ! A3    A(3,1,9)              113.4209         -DE/DX =    0.0                 !
 ! A4    A(1,3,4)              109.1407         -DE/DX =    0.0                 !
 ! A5    A(4,5,6)              106.7721         -DE/DX =    0.0                 !
 ! A6    A(4,5,7)              114.3217         -DE/DX =    0.0                 !
 ! A7    A(4,5,8)              114.701          -DE/DX =    0.0                 !
 ! A8    A(6,5,7)              106.7706         -DE/DX =    0.0                 !
 ! A9    A(6,5,8)              106.7666         -DE/DX =    0.0                 !
 ! A10   A(7,5,8)              106.9891         -DE/DX =    0.0                 !
 ! A11   L(3,4,5,9,-1)         183.9444         -DE/DX =    0.0                 !
 ! A12   L(3,4,5,9,-2)         179.9793         -DE/DX =    0.0                 !
 ! D1    D(2,1,3,4)            180.0068         -DE/DX =    0.0                 !
 ! D2    D(2,1,3,9)            180.0177         -DE/DX =    0.0                 !
 ! D3    D(9,1,3,4)             -0.0109         -DE/DX =    0.0                 !
 ! D4    D(1,3,5,6)           -178.1137         -DE/DX =    0.0                 !
 ! D5    D(1,3,5,7)             64.6478         -DE/DX =    0.0                 !
 ! D6    D(1,3,5,8)            -60.6155         -DE/DX =    0.0                 !
 --------------------------------------------------------------------------------
 GradGradGradGradGradGradGradGradGradGradGradGradGradGradGradGradGradGrad

                          Input orientation:                          
 ---------------------------------------------------------------------
 Center     Atomic      Atomic             Coordinates (Angstroms)
 Number     Number       Type             X           Y           Z
 ---------------------------------------------------------------------
      1          6           0        1.051245   -0.292927   -0.000159
      2          8           0        2.249544   -0.157666    0.000139
      3          8           0        0.187990    0.725286   -0.000069
      4          1           0       -0.737196    0.367340   -0.000257
      5          7           0       -2.452021   -0.163705    0.000014
      6          1           0       -3.018289    0.676212   -0.032086
      7          1           0       -2.731024   -0.672792    0.830245
      8          1           0       -2.720604   -0.727886   -0.797381
      9          1           0        0.563507   -1.280337   -0.000223
 ---------------------------------------------------------------------
                    Distance matrix (angstroms):
                    1          2          3          4          5
     1  C    0.000000
     2  O    1.205909   0.000000
     3  O    1.334903   2.242679   0.000000
     4  H    1.906430   3.032531   0.992015   0.000000
     5  N    3.505648   4.701569   2.785671   1.795170   0.000000
     6  H    4.183462   5.333522   3.206814   2.302130   1.013484
     7  H    3.890942   5.075479   3.341360   2.397281   1.013063
     8  H    3.879639   5.065921   3.347736   2.401840   1.013053
     9  H    1.101302   2.025614   2.040475   2.099206   3.215630
                    6          7          8          9
     6  H    0.000000
     7  H    1.626637   0.000000
     8  H    1.626587   1.628592   0.000000
     9  H    4.081466   3.451481   3.424332   0.000000
 Stoichiometry    CH5NO2
 Framework group  C1[X(CH5NO2)]
 Deg. of freedom    21
 Full point group                 C1      NOp   1
 Largest Abelian subgroup         C1      NOp   1
 Largest concise Abelian subgroup C1      NOp   1
                         Standard orientation:                         
 ---------------------------------------------------------------------
 Center     Atomic      Atomic             Coordinates (Angstroms)
 Number     Number       Type             X           Y           Z
 ---------------------------------------------------------------------
      1          6           0        1.051245   -0.292927   -0.000159
      2          8           0        2.249544   -0.157666    0.000139
      3          8           0        0.187990    0.725286   -0.000069
      4          1           0       -0.737196    0.367340   -0.000257
      5          7           0       -2.452021   -0.163705    0.000014
      6          1           0       -3.018289    0.676212   -0.032086
      7          1           0       -2.731024   -0.672792    0.830245
      8          1           0       -2.720604   -0.727886   -0.797381
      9          1           0        0.563507   -1.280337   -0.000223
 ---------------------------------------------------------------------
 Rotational constants (GHZ):          34.2741537           2.4753315           2.3371390
 Unable to Open any file for archive entry.
 1\1\GINC-N3284\FOpt\RMP2-FC\Aug-CC-pVTZ\C1H5N1O2\GDS001\29-Mar-2025\0\
 \# MP2/aug-cc-pVTZ opt freq=(vibrot,anharmonic)\\blah\\0,1\C,1.051245,
 -0.292927,-0.000159\O,2.249544,-0.157666,0.000139\O,0.18799,0.725286,-
 0.000069\H,-0.737196,0.36734,-0.000257\N,-2.452021,-0.163705,0.000014\
 H,-3.018289,0.676212,-0.032086\H,-2.731024,-0.672792,0.830245\H,-2.720
 604,-0.727886,-0.797381\H,0.563507,-1.280337,-0.000223\\Version=EM64L-
 G16RevC.01\State=1-A\HF=-245.0689412\MP2=-245.9588148\RMSD=7.782e-09\R
 MSF=1.949e-05\Dipole=-2.6549075,-0.7119818,0.0001196\PG=C01 [X(C1H5N1O
 2)]\\@
 The archive entry for this job was punched.


 THE MOST SERIOUS THREAT TO THE SURVIVAL OF MANKIND IS NOT NOW
 IGNORANCE IN THE TRADITIONAL SENSE,
 BUT A MORALLY NEUTRAL, AN INSENSITIVE OR INHIBITED HUMAN INTELLIGENCE.

                     -- MARGO JEFFERSON IN NEWSWEEK, SEPTEMBER 2, 1974
 Job cpu time:       0 days  0 hours 56 minutes 57.2 seconds.
 Elapsed time:       0 days  0 hours  2 minutes  1.1 seconds.
 File lengths (MBytes):  RWF=   6963 Int=      0 D2E=      0 Chk=      9 Scr=      1
 Normal termination of Gaussian 16 at Sat Mar 29 09:06:56 2025.
 Link1:  Proceeding to internal job step number  2.
 ----------------------------------------------------------------------
 #N Geom=AllCheck Guess=TCheck SCRF=Check GenChk RMP2(FC)/Aug-CC-pVTZ F
 req
 ----------------------------------------------------------------------
 1/10=4,29=7,30=1,38=21,40=1,80=1/1,6,3;
 2/12=2,40=1/2;
 3/5=16,6=1,7=10,11=1,14=-4,25=1,30=1,70=2,71=2,116=1,140=1/1,2,3;
 4/5=101,69=2/1;
 5/5=2,38=6,98=1/2;
 8/6=3,8=1,10=1,19=11,30=-1/1;
 9/15=3,16=-3/6;
 11/6=1,8=1,15=11,17=12,24=-1,27=1,28=-2,29=300,32=6,42=3/1,2,10;
 10/6=2,21=1,60=-2/2;
 8/6=4,8=1,10=1,19=11,30=-1/11,4;
 10/5=1,20=4,60=-2/2;
 11/12=2,14=11,16=1,17=2,28=-2,42=3,76=2/2,10,12;
 6/7=2,8=2,9=2,10=2,22=-1/1;
 7/10=1,12=2,25=1,44=2,70=1,71=2/1,2,3,16;
 1/38=20,80=1/6(3);
 7/8=1,25=202,44=-1,70=1,71=1,92=10/16,17;
 1/10=4,30=1,38=20,80=1/3;
 99//99;
 3/5=16,6=1,7=10,11=1,14=-2,25=1,30=1,70=5,71=2,116=1,140=1/1,2,3;
 4/5=5,16=3,69=2/1;
 5/5=2,38=5,98=1/2;
 8/6=3,8=1,10=1,19=11,30=-1/1;
 9/15=3,16=-3/6;
 11/6=1,8=1,15=11,17=12,24=-1,27=1,28=-2,29=300,32=6,42=3/1,2,10;
 10/6=2,21=1,60=-2/2;
 8/6=4,8=1,10=1,19=11,30=-1/11,4;
 10/5=1,20=4,60=-2/2;
 11/12=2,14=11,16=1,17=2,28=-2,42=3,76=2/2,10,12;
 6/7=2,8=2,9=2,10=2,22=-1/1;
 7/7=1,10=1,12=2,25=1,44=2,70=1,71=1/1,2,3,16;
 1/38=20,80=1/6(-12);
 7/8=1,25=202,44=-1,70=1,71=1,92=10/16,17;
 1/10=4,30=1,38=20,80=1/3;
 99//99;
 Structure from the checkpoint file:  "/scr/Gau-71573.chk"
 ----
 blah
 ----
 Charge =  0 Multiplicity = 1
 Redundant internal coordinates found in file.  (old form).
 C,0,1.051245,-0.292927,-0.000159
 O,0,2.249544,-0.157666,0.000139
 O,0,0.18799,0.725286,-0.000069
 H,0,-0.737196,0.36734,-0.000257
 N,0,-2.452021,-0.163705,0.000014
 H,0,-3.018289,0.676212,-0.032086
 H,0,-2.731024,-0.672792,0.830245
 H,0,-2.720604,-0.727886,-0.797381
 H,0,0.563507,-1.280337,-0.000223
 Recover connectivity data from disk.
 Numerical evaluation of third derivatives.
 Nuclear step= 0.010000 Angstroms, electric field step= 0.000333 atomic units, NStep=1.

 GradGradGradGradGradGradGradGradGradGradGradGradGradGradGradGradGradGrad
 Berny optimization.
 Initialization pass.
                           ----------------------------
                           !    Initial Parameters    !
                           ! (Angstroms and Degrees)  !
 --------------------------                            --------------------------
 ! Name  Definition              Value          Derivative Info.                !
 --------------------------------------------------------------------------------
 ! R1    R(1,2)                  1.2059         calculate D2E/DX2 analytically  !
 ! R2    R(1,3)                  1.3349         calculate D2E/DX2 analytically  !
 ! R3    R(1,9)                  1.1013         calculate D2E/DX2 analytically  !
 ! R4    R(3,4)                  0.992          calculate D2E/DX2 analytically  !
 ! R5    R(4,5)                  1.7952         calculate D2E/DX2 analytically  !
 ! R6    R(5,6)                  1.0135         calculate D2E/DX2 analytically  !
 ! R7    R(5,7)                  1.0131         calculate D2E/DX2 analytically  !
 ! R8    R(5,8)                  1.0131         calculate D2E/DX2 analytically  !
 ! A1    A(2,1,3)              123.8516         calculate D2E/DX2 analytically  !
 ! A2    A(2,1,9)              122.7275         calculate D2E/DX2 analytically  !
 ! A3    A(3,1,9)              113.4209         calculate D2E/DX2 analytically  !
 ! A4    A(1,3,4)              109.1407         calculate D2E/DX2 analytically  !
 ! A5    A(4,5,6)              106.7721         calculate D2E/DX2 analytically  !
 ! A6    A(4,5,7)              114.3217         calculate D2E/DX2 analytically  !
 ! A7    A(4,5,8)              114.701          calculate D2E/DX2 analytically  !
 ! A8    A(6,5,7)              106.7706         calculate D2E/DX2 analytically  !
 ! A9    A(6,5,8)              106.7666         calculate D2E/DX2 analytically  !
 ! A10   A(7,5,8)              106.9891         calculate D2E/DX2 analytically  !
 ! A11   L(3,4,5,9,-1)         183.9444         calculate D2E/DX2 analytically  !
 ! A12   L(3,4,5,9,-2)         179.9793         calculate D2E/DX2 analytically  !
 ! D1    D(2,1,3,4)           -179.9932         calculate D2E/DX2 analytically  !
 ! D2    D(2,1,3,9)           -179.9823         calculate D2E/DX2 analytically  !
 ! D3    D(9,1,3,4)             -0.0109         calculate D2E/DX2 analytically  !
 ! D4    D(1,3,5,6)           -178.1137         calculate D2E/DX2 analytically  !
 ! D5    D(1,3,5,7)             64.6478         calculate D2E/DX2 analytically  !
 ! D6    D(1,3,5,8)            -60.6155         calculate D2E/DX2 analytically  !
 --------------------------------------------------------------------------------
 Trust Radius=3.00D-01 FncErr=1.00D-07 GrdErr=1.00D-07 EigMax=2.50D+02 EigMin=1.00D-04
 Number of steps in this run=      2 maximum allowed number of steps=      2.
 GradGradGradGradGradGradGradGradGradGradGradGradGradGradGradGradGradGrad

                          Input orientation:                          
 ---------------------------------------------------------------------
 Center     Atomic      Atomic             Coordinates (Angstroms)
 Number     Number       Type             X           Y           Z
 ---------------------------------------------------------------------
      1          6           0        1.051245   -0.292927   -0.000159
      2          8           0        2.249544   -0.157666    0.000139
      3          8           0        0.187990    0.725286   -0.000069
      4          1           0       -0.737196    0.367340   -0.000257
      5          7           0       -2.452021   -0.163705    0.000014
      6          1           0       -3.018289    0.676212   -0.032086
      7          1           0       -2.731024   -0.672792    0.830245
      8          1           0       -2.720604   -0.727886   -0.797381
      9          1           0        0.563507   -1.280337   -0.000223
 ---------------------------------------------------------------------
                    Distance matrix (angstroms):
                    1          2          3          4          5
     1  C    0.000000
     2  O    1.205909   0.000000
     3  O    1.334903   2.242679   0.000000
     4  H    1.906430   3.032531   0.992015   0.000000
     5  N    3.505648   4.701569   2.785671   1.795170   0.000000
     6  H    4.183462   5.333522   3.206814   2.302130   1.013484
     7  H    3.890942   5.075479   3.341360   2.397281   1.013063
     8  H    3.879639   5.065921   3.347736   2.401840   1.013053
     9  H    1.101302   2.025614   2.040475   2.099206   3.215630
                    6          7          8          9
     6  H    0.000000
     7  H    1.626637   0.000000
     8  H    1.626587   1.628592   0.000000
     9  H    4.081466   3.451481   3.424332   0.000000
 Stoichiometry    CH5NO2
 Framework group  C1[X(CH5NO2)]
 Deg. of freedom    21
 Full point group                 C1      NOp   1
 Largest Abelian subgroup         C1      NOp   1
 Largest concise Abelian subgroup C1      NOp   1
                         Standard orientation:                         
 ---------------------------------------------------------------------
 Center     Atomic      Atomic             Coordinates (Angstroms)
 Number     Number       Type             X           Y           Z
 ---------------------------------------------------------------------
      1          6           0        1.051245   -0.292927   -0.000159
      2          8           0        2.249544   -0.157666    0.000139
      3          8           0        0.187990    0.725286   -0.000069
      4          1           0       -0.737196    0.367340   -0.000257
      5          7           0       -2.452021   -0.163705    0.000014
      6          1           0       -3.018289    0.676212   -0.032086
      7          1           0       -2.731024   -0.672792    0.830245
      8          1           0       -2.720604   -0.727886   -0.797381
      9          1           0        0.563507   -1.280337   -0.000223
 ---------------------------------------------------------------------
 Rotational constants (GHZ):          34.2741537           2.4753315           2.3371390
 Standard basis: Aug-CC-pVTZ (5D, 7F)
 There are   345 symmetry adapted cartesian basis functions of A   symmetry.
 There are   299 symmetry adapted basis functions of A   symmetry.
   299 basis functions,   423 primitive gaussians,   345 cartesian basis functions
    17 alpha electrons       17 beta electrons
       nuclear repulsion energy       118.0780811538 Hartrees.
 NAtoms=    9 NActive=    9 NUniq=    9 SFac= 1.00D+00 NAtFMM=   60 NAOKFM=F Big=F
 Integral buffers will be    131072 words long.
 Raffenetti 1 integral format.
 Two-electron integral symmetry is turned on.
 One-electron integrals computed using PRISM.
 NBasis=   299 RedAO= T EigKep=  4.50D-05  NBF=   299
 NBsUse=   299 1.00D-06 EigRej= -1.00D+00 NBFU=   299
 Initial guess from the checkpoint file:  "/scr/Gau-71573.chk"
 B after Tr=     0.000000   -0.000000    0.000000
         Rot=    1.000000    0.000000   -0.000000   -0.000000 Ang=   0.00 deg.
 Keep R1 ints in memory in canonical form, NReq=1026496068.
 Requested convergence on RMS density matrix=1.00D-08 within 128 cycles.
 Requested convergence on MAX density matrix=1.00D-06.
 Requested convergence on             energy=1.00D-06.
 No special actions if energy rises.
 SCF Done:  E(RHF) =  -245.068941221     A.U. after    1 cycles
            NFock=  1  Conv=0.13D-08     -V/T= 2.0018
 ExpMin= 2.53D-02 ExpMax= 1.53D+04 ExpMxC= 5.22D+02 IAcc=3 IRadAn=         5 AccDes= 0.00D+00
 HarFok:  IExCor=  205 AccDes= 0.00D+00 IRadAn=         5 IDoV=-2 UseB2=F ITyADJ=14
 ICtDFT= 12500011 ScaDFX=  1.000000  1.000000  1.000000  1.000000
 Range of M.O.s used for correlation:     5   299
 NBasis=   299 NAE=    17 NBE=    17 NFC=     4 NFV=     0
 NROrb=    295 NOA=    13 NOB=    13 NVA=   282 NVB=   282

 **** Warning!!: The largest alpha MO coefficient is  0.27330086D+02

 Disk-based method using ON**2 memory for 13 occupieds at a time.
 Permanent disk used for amplitudes=    28370892 words.
 Estimated scratch disk usage=   946416159 words.
 Actual    scratch disk usage=   915143199 words.
 JobTyp=1 Pass  1:  I=   5 to  17 NPSUse= 40 ParTrn=T ParDer=T DoDerP=T.
 (rs|ai) integrals will be sorted in core.
 Spin components of T(2) and E(2):
     alpha-alpha T2 =       0.3044258505D-01 E2=     -0.1102154929D+00
     alpha-beta  T2 =       0.1726057482D+00 E2=     -0.6694426435D+00
     beta-beta   T2 =       0.3044258505D-01 E2=     -0.1102154929D+00
 ANorm=    0.1110626363D+01
 E2 =    -0.8898736292D+00 EUMP2 =    -0.24595881485008D+03
 G2DrvN: will do    10 centers at a time, making    1 passes.
 Calling FoFCou, ICntrl=  3107 FMM=F I1Cent=   0 AccDes= 0.00D+00.
 End of G2Drv F.D. properties file   721 does not exist.
 End of G2Drv F.D. properties file   722 does not exist.
 End of G2Drv F.D. properties file   788 does not exist.
          IDoAtm=111111111
          Differentiating once with respect to electric field.
                with respect to dipole field.
          Differentiating once with respect to nuclear coordinates.
 Keep R1 ints in memory in canonical form, NReq=1026497921.
          There are    30 degrees of freedom in the 1st order CPHF.  IDoFFX=6 NUNeed=    30.
     27 vectors produced by pass  0 Test12= 1.60D-14 3.33D-09 XBig12= 9.91D+00 1.17D+00.
 AX will form    27 AO Fock derivatives at one time.
     27 vectors produced by pass  1 Test12= 1.60D-14 3.33D-09 XBig12= 8.52D-01 1.97D-01.
     27 vectors produced by pass  2 Test12= 1.60D-14 3.33D-09 XBig12= 3.30D-02 3.45D-02.
     27 vectors produced by pass  3 Test12= 1.60D-14 3.33D-09 XBig12= 6.05D-04 3.66D-03.
     27 vectors produced by pass  4 Test12= 1.60D-14 3.33D-09 XBig12= 8.11D-06 3.83D-04.
     27 vectors produced by pass  5 Test12= 1.60D-14 3.33D-09 XBig12= 7.55D-08 3.67D-05.
     25 vectors produced by pass  6 Test12= 1.60D-14 3.33D-09 XBig12= 5.01D-10 3.00D-06.
     12 vectors produced by pass  7 Test12= 1.60D-14 3.33D-09 XBig12= 3.14D-12 1.93D-07.
      3 vectors produced by pass  8 Test12= 1.60D-14 3.33D-09 XBig12= 1.59D-14 1.45D-08.
 InvSVY:  IOpt=1 It=  1 EMax= 2.22D-15
 Solved reduced A of dimension   202 with    30 vectors.
 End of Minotr F.D. properties file   721 does not exist.
 End of Minotr F.D. properties file   722 does not exist.
 End of Minotr F.D. properties file   788 does not exist.
 MDV=  6710886400.
 Form MO integral derivatives with frozen-active canonical formalism.
 Discarding MO integrals.
 Reordered first order wavefunction length =     45964872
 In DefCFB: NBatch=  1 ICI= 17 ICA=282 LFMax= 71
            Large arrays: LIAPS=  1978100280 LIARS=   636763050 words.
 Semi-Direct transformation.
 ModeAB=           4 MOrb=            17 LenV=    6708592015
 LASXX=    218975266 LTotXX=   218975266 LenRXX=   440114734
 LTotAB=   221139468 MaxLAS=   297650314 LenRXY=           0
 NonZer=   659090000 LenScr=   992513024 LnRSAI=   297650314
 LnScr1=   448227328 LExtra=           0 Total=   2178505400
 MaxDsk=          -1 SrtSym=           T ITran=            4
 JobTyp=0 Pass  1:  I=   1 to  17.
 (rs|ai) integrals will be sorted in core.
 SymMOI:  orbitals are not symmetric.
 Spin components of T(2) and E(2):
     alpha-alpha T2 =       0.3044258505D-01 E2=     -0.1102154929D+00
     alpha-beta  T2 =       0.1726057482D+00 E2=     -0.6694426435D+00
     beta-beta   T2 =       0.3044258505D-01 E2=     -0.1102154929D+00
 ANorm=    0.1570662865D+01
 E2 =    -0.8898736292D+00 EUMP2 =    -0.24595881485008D+03
          IDoAtm=111111111
          Differentiating once with respect to electric field.
                with respect to dipole field.
          Differentiating once with respect to nuclear coordinates.
          There are     1 degrees of freedom in the 1st order CPHF.  IDoFFX=0 NUNeed=     1.
 LinEq1:  Iter=  0 NonCon=     1 RMS=3.52D-03 Max=9.32D-02 NDo=     1
 LinEq1:  Iter=  1 NonCon=     1 RMS=9.50D-04 Max=1.38D-02 NDo=     1
 LinEq1:  Iter=  2 NonCon=     1 RMS=3.48D-04 Max=5.92D-03 NDo=     1
 LinEq1:  Iter=  3 NonCon=     1 RMS=1.50D-04 Max=2.75D-03 NDo=     1
 LinEq1:  Iter=  4 NonCon=     1 RMS=4.32D-05 Max=4.28D-04 NDo=     1
 LinEq1:  Iter=  5 NonCon=     1 RMS=1.79D-05 Max=3.90D-04 NDo=     1
 LinEq1:  Iter=  6 NonCon=     1 RMS=5.81D-06 Max=9.22D-05 NDo=     1
 LinEq1:  Iter=  7 NonCon=     1 RMS=1.51D-06 Max=1.93D-05 NDo=     1
 LinEq1:  Iter=  8 NonCon=     1 RMS=5.61D-07 Max=6.64D-06 NDo=     1
 LinEq1:  Iter=  9 NonCon=     1 RMS=1.97D-07 Max=2.26D-06 NDo=     1
 LinEq1:  Iter= 10 NonCon=     1 RMS=4.56D-08 Max=5.18D-07 NDo=     1
 LinEq1:  Iter= 11 NonCon=     1 RMS=7.99D-09 Max=8.67D-08 NDo=     1
 LinEq1:  Iter= 12 NonCon=     1 RMS=1.27D-09 Max=1.17D-08 NDo=     1
 LinEq1:  Iter= 13 NonCon=     1 RMS=1.92D-10 Max=2.21D-09 NDo=     1
 LinEq1:  Iter= 14 NonCon=     0 RMS=3.21D-11 Max=4.62D-10 NDo=     1
 Linear equations converged to 1.000D-10 1.000D-09 after    14 iterations.
 End of Minotr F.D. properties file   721 does not exist.
 End of Minotr F.D. properties file   722 does not exist.
 End of Minotr F.D. properties file   788 does not exist.
 Symmetrizing basis deriv contribution to polar:
 IMax=3 JMax=2 DiffMx= 0.00D+00
 G2DrvN: will do    10 centers at a time, making    1 passes.
 Calling FoFCou, ICntrl=  3107 FMM=F I1Cent=   0 AccDes= 0.00D+00.
 End of G2Drv F.D. properties file   721 does not exist.
 End of G2Drv F.D. properties file   722 does not exist.
 End of G2Drv F.D. properties file   788 does not exist.
 R2 and R3 integrals will be kept in memory, NReq=  3583069605.
 DD1Dir will call FoFMem   1 times, MxPair=       306
 NAB=   153 NAA=     0 NBB=     0.
 Discarding MO integrals.

 **********************************************************************

            Population analysis using the MP2 Density.

 **********************************************************************

 Orbital symmetries:
       Occupied  (A) (A) (A) (A) (A) (A) (A) (A) (A) (A) (A) (A)
                 (A) (A) (A) (A) (A)
       Virtual   (A) (A) (A) (A) (A) (A) (A) (A) (A) (A) (A) (A)
                 (A) (A) (A) (A) (A) (A) (A) (A) (A) (A) (A) (A)
                 (A) (A) (A) (A) (A) (A) (A) (A) (A) (A) (A) (A)
                 (A) (A) (A) (A) (A) (A) (A) (A) (A) (A) (A) (A)
                 (A) (A) (A) (A) (A) (A) (A) (A) (A) (A) (A) (A)
                 (A) (A) (A) (A) (A) (A) (A) (A) (A) (A) (A) (A)
                 (A) (A) (A) (A) (A) (A) (A) (A) (A) (A) (A) (A)
                 (A) (A) (A) (A) (A) (A) (A) (A) (A) (A) (A) (A)
                 (A) (A) (A) (A) (A) (A) (A) (A) (A) (A) (A) (A)
                 (A) (A) (A) (A) (A) (A) (A) (A) (A) (A) (A) (A)
                 (A) (A) (A) (A) (A) (A) (A) (A) (A) (A) (A) (A)
                 (A) (A) (A) (A) (A) (A) (A) (A) (A) (A) (A) (A)
                 (A) (A) (A) (A) (A) (A) (A) (A) (A) (A) (A) (A)
                 (A) (A) (A) (A) (A) (A) (A) (A) (A) (A) (A) (A)
                 (A) (A) (A) (A) (A) (A) (A) (A) (A) (A) (A) (A)
                 (A) (A) (A) (A) (A) (A) (A) (A) (A) (A) (A) (A)
                 (A) (A) (A) (A) (A) (A) (A) (A) (A) (A) (A) (A)
                 (A) (A) (A) (A) (A) (A) (A) (A) (A) (A) (A) (A)
                 (A) (A) (A) (A) (A) (A) (A) (A) (A) (A) (A) (A)
                 (A) (A) (A) (A) (A) (A) (A) (A) (A) (A) (A) (A)
                 (A) (A) (A) (A) (A) (A) (A) (A) (A) (A) (A) (A)
                 (A) (A) (A) (A) (A) (A) (A) (A) (A) (A) (A) (A)
                 (A) (A) (A) (A) (A) (A) (A) (A) (A) (A) (A) (A)
                 (A) (A) (A) (A) (A) (A)
 The electronic state is 1-A.
 Alpha  occ. eigenvalues --  -20.58486 -20.53270 -15.59547 -11.36786  -1.43593
 Alpha  occ. eigenvalues --   -1.34387  -1.19906  -0.83601  -0.76466  -0.68344
 Alpha  occ. eigenvalues --   -0.68254  -0.64017  -0.60138  -0.57483  -0.48697
 Alpha  occ. eigenvalues --   -0.45845  -0.43834
 Alpha virt. eigenvalues --    0.01200   0.03465   0.03516   0.04909   0.06277
 Alpha virt. eigenvalues --    0.09287   0.09947   0.11850   0.13371   0.13975
 Alpha virt. eigenvalues --    0.14008   0.14912   0.15704   0.16404   0.18056
 Alpha virt. eigenvalues --    0.18699   0.20032   0.21255   0.21706   0.23582
 Alpha virt. eigenvalues --    0.24623   0.25514   0.26061   0.26816   0.30046
 Alpha virt. eigenvalues --    0.31110   0.31172   0.34463   0.35040   0.35060
 Alpha virt. eigenvalues --    0.35588   0.37320   0.37400   0.37820   0.38734
 Alpha virt. eigenvalues --    0.39439   0.39682   0.41809   0.42355   0.43238
 Alpha virt. eigenvalues --    0.43648   0.44271   0.48622   0.51508   0.52665
 Alpha virt. eigenvalues --    0.52923   0.55982   0.57416   0.57483   0.59410
 Alpha virt. eigenvalues --    0.59725   0.63717   0.65177   0.65762   0.68694
 Alpha virt. eigenvalues --    0.69958   0.73269   0.74708   0.76164   0.78551
 Alpha virt. eigenvalues --    0.78660   0.82251   0.82762   0.83812   0.85690
 Alpha virt. eigenvalues --    0.87304   0.87762   0.88588   0.89383   0.89914
 Alpha virt. eigenvalues --    0.90378   0.91640   0.92640   0.93354   0.93639
 Alpha virt. eigenvalues --    0.95284   0.97161   0.99315   1.00121   1.01047
 Alpha virt. eigenvalues --    1.01635   1.03118   1.03534   1.03749   1.05595
 Alpha virt. eigenvalues --    1.08160   1.09905   1.11377   1.12999   1.14365
 Alpha virt. eigenvalues --    1.15093   1.17995   1.20087   1.21828   1.24069
 Alpha virt. eigenvalues --    1.25706   1.26724   1.28680   1.31176   1.31752
 Alpha virt. eigenvalues --    1.32276   1.33825   1.37757   1.40057   1.40200
 Alpha virt. eigenvalues --    1.42310   1.44316   1.47399   1.49735   1.52539
 Alpha virt. eigenvalues --    1.53035   1.53735   1.56584   1.58192   1.59972
 Alpha virt. eigenvalues --    1.63026   1.66207   1.68665   1.68841   1.72309
 Alpha virt. eigenvalues --    1.73892   1.77382   1.79997   1.80907   1.81815
 Alpha virt. eigenvalues --    1.82723   1.88486   1.93315   1.95824   1.96745
 Alpha virt. eigenvalues --    1.98177   2.04364   2.04915   2.06517   2.09619
 Alpha virt. eigenvalues --    2.14255   2.17381   2.20829   2.21545   2.29259
 Alpha virt. eigenvalues --    2.29467   2.29990   2.35132   2.38483   2.40475
 Alpha virt. eigenvalues --    2.42239   2.43017   2.43819   2.44528   2.46815
 Alpha virt. eigenvalues --    2.47884   2.49295   2.53527   2.57278   2.57940
 Alpha virt. eigenvalues --    2.61288   2.66337   2.66639   2.68261   2.71926
 Alpha virt. eigenvalues --    2.74698   2.77128   2.85268   2.91096   2.91530
 Alpha virt. eigenvalues --    2.93801   2.98232   3.04060   3.05147   3.09462
 Alpha virt. eigenvalues --    3.16863   3.21390   3.29475   3.32753   3.35639
 Alpha virt. eigenvalues --    3.45556   3.48502   3.56056   3.57695   3.72255
 Alpha virt. eigenvalues --    3.75021   3.81909   3.87335   3.92821   3.96225
 Alpha virt. eigenvalues --    3.98971   4.00403   4.03275   4.08293   4.11985
 Alpha virt. eigenvalues --    4.14832   4.16242   4.16736   4.17744   4.22123
 Alpha virt. eigenvalues --    4.25599   4.26560   4.29960   4.31375   4.34278
 Alpha virt. eigenvalues --    4.34841   4.38551   4.39365   4.42886   4.44741
 Alpha virt. eigenvalues --    4.48290   4.53369   4.57521   4.57871   4.58015
 Alpha virt. eigenvalues --    4.58479   4.68165   4.68959   4.72022   4.73398
 Alpha virt. eigenvalues --    4.75986   4.78277   4.79029   4.90276   4.93083
 Alpha virt. eigenvalues --    4.94748   4.94941   5.03413   5.04042   5.06119
 Alpha virt. eigenvalues --    5.12202   5.17779   5.20392   5.21918   5.22148
 Alpha virt. eigenvalues --    5.31355   5.38110   5.43501   5.46781   5.58663
 Alpha virt. eigenvalues --    5.66765   5.67313   5.78873   5.88384   5.88699
 Alpha virt. eigenvalues --    5.90383   5.97751   6.27193   6.29950   6.31067
 Alpha virt. eigenvalues --    6.37322   6.40520   6.47216   6.61729   6.63968
 Alpha virt. eigenvalues --    6.66528   6.71914   6.81610   6.88865   6.91016
 Alpha virt. eigenvalues --    6.92118   6.93647   6.99923   7.02686   7.16391
 Alpha virt. eigenvalues --    7.24171   7.24643   7.32475   7.38092   7.40390
 Alpha virt. eigenvalues --    7.42411   7.53026   7.61075   7.61417   7.69325
 Alpha virt. eigenvalues --    7.76490   7.77866   7.79279   7.85091   7.96339
 Alpha virt. eigenvalues --    8.04398   8.35251   8.58471  15.19385  16.03006
 Alpha virt. eigenvalues --   17.97504  18.02617
          Condensed to atoms (all electrons):
               1          2          3          4          5          6
     1  C    5.315009   0.414076   0.268004  -0.059614   0.000160  -0.002985
     2  O    0.414076   8.336062  -0.120579  -0.021638  -0.001302  -0.000016
     3  O    0.268004  -0.120579   8.288643  -0.024109  -0.054515  -0.004198
     4  H   -0.059614  -0.021638  -0.024109   0.738073   0.030222   0.000248
     5  N    0.000160  -0.001302  -0.054515   0.030222   6.348706   0.322389
     6  H   -0.002985  -0.000016  -0.004198   0.000248   0.322389   0.605924
     7  H    0.001143  -0.000092   0.000372   0.004958   0.315238  -0.023174
     8  H    0.001353  -0.000154   0.000748   0.004577   0.314879  -0.023843
     9  H    0.168342  -0.081668  -0.033787  -0.008882   0.001208   0.000149
               7          8          9
     1  C    0.001143   0.001353   0.168342
     2  O   -0.000092  -0.000154  -0.081668
     3  O    0.000372   0.000748  -0.033787
     4  H    0.004958   0.004577  -0.008882
     5  N    0.315238   0.314879   0.001208
     6  H   -0.023174  -0.023843   0.000149
     7  H    0.578462  -0.014437  -0.000854
     8  H   -0.014437   0.578348  -0.000760
     9  H   -0.000854  -0.000760   0.467849
 Mulliken charges:
               1
     1  C   -0.105488
     2  O   -0.524690
     3  O   -0.320581
     4  H    0.336164
     5  N   -0.276987
     6  H    0.125507
     7  H    0.138383
     8  H    0.139289
     9  H    0.488403
 Sum of Mulliken charges =   0.00000
 Mulliken charges with hydrogens summed into heavy atoms:
               1
     1  C    0.382915
     2  O   -0.524690
     3  O    0.015583
     5  N    0.126192
 APT charges:
               1
     1  C    1.112718
     2  O   -0.707225
     3  O   -0.902562
     4  H    0.532219
     5  N   -0.503985
     6  H    0.170906
     7  H    0.166501
     8  H    0.166327
     9  H   -0.034898
 Sum of APT charges =   0.00000
 APT charges with hydrogens summed into heavy atoms:
               1
     1  C    1.077820
     2  O   -0.707225
     3  O   -0.370343
     5  N   -0.000252
 Electronic spatial extent (au):  <R**2>=            495.8264
 Charge=              0.0000 electrons
 Dipole moment (field-independent basis, Debye):
    X=             -6.7481    Y=             -1.8097    Z=              0.0003  Tot=              6.9865
 Quadrupole moment (field-independent basis, Debye-Ang):
   XX=            -23.2746   YY=            -24.6239   ZZ=            -23.5767
   XY=              0.2142   XZ=             -0.0014   YZ=              0.0000
 Traceless Quadrupole moment (field-independent basis, Debye-Ang):
   XX=              0.5505   YY=             -0.7989   ZZ=              0.2484
   XY=              0.2142   XZ=             -0.0014   YZ=              0.0000
 Octapole moment (field-independent basis, Debye-Ang**2):
  XXX=            -53.2570  YYY=             -1.2301  ZZZ=              0.1107  XYY=             -5.9416
  XXY=              2.1555  XXZ=             -0.0109  XZZ=             -4.1837  YZZ=             -1.2389
  YYZ=             -0.1027  XYZ=              0.0204
 Hexadecapole moment (field-independent basis, Debye-Ang**3):
 XXXX=           -502.2592 YYYY=            -58.4932 ZZZZ=            -25.6905 XXXY=              1.8984
 XXXZ=              0.0667 YYYX=             -0.3121 YYYZ=              0.0803 ZZZX=             -0.3180
 ZZZY=             -0.0298 XXYY=            -86.4728 XXZZ=            -79.6007 YYZZ=            -13.6957
 XXYZ=             -0.1181 YYXZ=              0.2904 ZZXY=              4.0959
 N-N= 1.180780811538D+02 E-N=-8.149269435003D+02  KE= 2.457277922514D+02
  Exact polarizability:      50.807      -0.290      34.007       0.002       0.000      28.059
 Approx polarizability:      33.955      -0.014      27.506       0.003       0.001      24.817
 Calling FoFJK, ICntrl=  10100127 FMM=F ISym2X=0 I1Cent= 0 IOpClX= 0 NMat=1 NMatS=1 NMatT=0.
 Full mass-weighted force constant matrix:
 Low frequencies ---   -0.3647   -0.0014   -0.0012   -0.0009    1.6666    3.2808
 Low frequencies ---   23.8147   86.4012  113.5625
 Diagonal vibrational polarizability:
       19.2065388      10.7443968     108.9400108
 Harmonic frequencies (cm**-1), IR intensities (KM/Mole), Raman scattering
 activities (A**4/AMU), depolarization ratios for plane and unpolarized
 incident light, reduced masses (AMU), force constants (mDyne/A),
 and normal coordinates:
                      1                      2                      3
                      A                      A                      A
 Frequencies --     23.8115                86.4012               113.5625
 Red. masses --      1.1657                 3.4654                 2.2328
 Frc consts  --      0.0004                 0.0152                 0.0170
 IR Inten    --      1.7613                 0.0774                 7.2597
  Atom  AN      X      Y      Z        X      Y      Z        X      Y      Z
     1   6    -0.00   0.00   0.04    -0.14   0.07  -0.00     0.00   0.00  -0.22
     2   8    -0.00  -0.00   0.03    -0.12  -0.18  -0.00    -0.00  -0.00   0.20
     3   8     0.00   0.00  -0.09     0.06   0.24   0.00     0.00   0.00  -0.06
     4   1     0.00   0.00  -0.05     0.01   0.35   0.00     0.00   0.00  -0.23
     5   7     0.00  -0.00   0.02     0.17  -0.11  -0.00    -0.00  -0.00   0.06
     6   1    -0.00   0.02   0.60    -0.17  -0.34  -0.00    -0.01  -0.00   0.19
     7   1     0.13  -0.48  -0.23     0.38  -0.22   0.00     0.28   0.07   0.19
     8   1    -0.12   0.46  -0.27     0.40  -0.22   0.00    -0.27  -0.06   0.20
     9   1    -0.00   0.00   0.16    -0.35   0.17  -0.00     0.00   0.00  -0.76
                      4                      5                      6
                      A                      A                      A
 Frequencies --    220.3463               308.2136               342.8378
 Red. masses --      4.6069                 1.2138                 1.2414
 Frc consts  --      0.1318                 0.0679                 0.0860
 IR Inten    --     10.6106                27.9193                32.8037
  Atom  AN      X      Y      Z        X      Y      Z        X      Y      Z
     1   6    -0.11  -0.04  -0.00    -0.00   0.00   0.06    -0.01   0.03  -0.00
     2   8    -0.12   0.09   0.00    -0.00  -0.00  -0.04    -0.01  -0.03   0.00
     3   8    -0.20  -0.16   0.00    -0.00   0.00   0.05     0.01   0.06  -0.00
     4   1    -0.20  -0.25   0.00     0.00  -0.00  -0.20     0.05  -0.04   0.00
     5   7     0.39   0.10   0.00     0.00  -0.00  -0.09     0.02  -0.10   0.00
     6   1     0.59   0.23  -0.00    -0.02  -0.00   0.21     0.68   0.35  -0.00
     7   1     0.30   0.16   0.01     0.63   0.14   0.20    -0.40   0.13   0.00
     8   1     0.29   0.16  -0.01    -0.60  -0.13   0.20    -0.44   0.12  -0.00
     9   1     0.01  -0.11  -0.00    -0.00   0.00   0.16    -0.07   0.06  -0.00
                      7                      8                      9
                      A                      A                      A
 Frequencies --    693.9627               996.3933              1046.3004
 Red. masses --      7.7471                 1.0527                 1.6844
 Frc consts  --      2.1982                 0.6157                 1.0864
 IR Inten    --      1.8129                75.7935                 0.0242
  Atom  AN      X      Y      Z        X      Y      Z        X      Y      Z
     1   6    -0.16  -0.35  -0.00    -0.00   0.00  -0.02     0.00   0.00  -0.23
     2   8    -0.29   0.30   0.00    -0.00   0.00   0.02    -0.00  -0.00   0.06
     3   8     0.41  -0.03   0.00     0.00   0.00  -0.04    -0.00  -0.00   0.05
     4   1     0.23   0.54   0.00    -0.00  -0.00   0.98     0.00  -0.00  -0.05
     5   7     0.01  -0.03   0.00     0.00   0.00  -0.03    -0.00  -0.00   0.00
     6   1     0.10   0.04   0.00    -0.01  -0.00   0.05     0.00   0.00  -0.00
     7   1    -0.09   0.02  -0.00     0.13   0.04   0.04    -0.00  -0.00  -0.00
     8   1    -0.10   0.02   0.00    -0.13  -0.04   0.04     0.00   0.00  -0.00
     9   1    -0.13  -0.35  -0.00     0.00  -0.00  -0.00    -0.00  -0.00   0.97
                     10                     11                     12
                      A                      A                      A
 Frequencies --   1138.7094              1197.2449              1417.5754
 Red. masses --      1.1894                 4.5457                 1.1577
 Frc consts  --      0.9086                 3.8390                 1.3706
 IR Inten    --    160.0721               137.2340                15.8633
  Atom  AN      X      Y      Z        X      Y      Z        X      Y      Z
     1   6     0.00  -0.01   0.00    -0.09   0.39   0.00    -0.03   0.08   0.00
     2   8    -0.00   0.00  -0.00    -0.12  -0.04  -0.00    -0.05  -0.04  -0.00
     3   8     0.00   0.00  -0.00     0.20  -0.26  -0.00     0.02  -0.00  -0.00
     4   1    -0.01  -0.00   0.00     0.30  -0.52  -0.00    -0.06   0.18   0.00
     5   7    -0.12  -0.03   0.00    -0.02   0.01  -0.00    -0.00  -0.01  -0.00
     6   1     0.48   0.32  -0.01    -0.02  -0.00  -0.00     0.02   0.01   0.00
     7   1     0.54   0.01   0.19     0.03  -0.02  -0.00    -0.01   0.01   0.01
     8   1     0.54   0.00  -0.18     0.03  -0.02   0.00    -0.01   0.01  -0.01
     9   1     0.00  -0.01  -0.00    -0.34   0.49   0.00     0.91  -0.36   0.00
                     13                     14                     15
                      A                      A                      A
 Frequencies --   1456.3624              1668.4838              1669.3016
 Red. masses --      1.2326                 1.0637                 1.0628
 Frc consts  --      1.5403                 1.7447                 1.7449
 IR Inten    --    241.3334                12.8448                18.7948
  Atom  AN      X      Y      Z        X      Y      Z        X      Y      Z
     1   6    -0.04   0.05  -0.00     0.01  -0.00  -0.00     0.00  -0.00   0.00
     2   8     0.06   0.00   0.00    -0.01  -0.00   0.00    -0.00  -0.00  -0.00
     3   8    -0.00  -0.09  -0.00     0.00   0.00  -0.00    -0.00   0.00   0.00
     4   1    -0.37   0.89   0.00     0.03  -0.07   0.00     0.00  -0.01  -0.02
     5   7     0.00  -0.02   0.00     0.01  -0.06   0.01     0.00  -0.01  -0.06
     6   1     0.05   0.02   0.00    -0.23  -0.20  -0.04    -0.02   0.01   0.76
     7   1    -0.03   0.06   0.04     0.04   0.54   0.36    -0.30   0.37   0.09
     8   1    -0.03   0.06  -0.04     0.00   0.55  -0.41     0.30  -0.30   0.07
     9   1    -0.16   0.11  -0.00    -0.00   0.00  -0.00    -0.00   0.00  -0.00
                     16                     17                     18
                      A                      A                      A
 Frequencies --   1812.8075              3005.3888              3270.7388
 Red. masses --      6.9427                 1.0871                 1.0723
 Frc consts  --     13.4426                 5.7851                 6.7585
 IR Inten    --    367.6230                63.2192              1443.3697
  Atom  AN      X      Y      Z        X      Y      Z        X      Y      Z
     1   6     0.59   0.02   0.00    -0.04  -0.07  -0.00    -0.00   0.01  -0.00
     2   8    -0.37  -0.05  -0.00     0.00   0.00   0.00     0.00  -0.00   0.00
     3   8    -0.06  -0.02  -0.00    -0.00  -0.00   0.00    -0.06  -0.02  -0.00
     4   1    -0.20   0.53   0.00     0.05   0.00   0.00     0.93   0.35   0.00
     5   7     0.01   0.00  -0.00     0.00   0.00  -0.00    -0.00   0.00   0.00
     6   1     0.04   0.02  -0.00    -0.00  -0.00   0.00     0.02  -0.03   0.00
     7   1    -0.01  -0.04  -0.03     0.00   0.00  -0.00     0.02   0.02  -0.02
     8   1    -0.01  -0.03   0.03     0.00   0.00   0.00     0.02   0.02   0.02
     9   1    -0.13   0.41   0.00     0.43   0.90   0.00    -0.01  -0.05  -0.00
                     19                     20                     21
                      A                      A                      A
 Frequencies --   3495.8951              3634.1954              3637.9627
 Red. masses --      1.0274                 1.0891                 1.0894
 Frc consts  --      7.3978                 8.4751                 8.4949
 IR Inten    --      1.3103                23.9839                22.9064
  Atom  AN      X      Y      Z        X      Y      Z        X      Y      Z
     1   6    -0.00  -0.00   0.00    -0.00  -0.00  -0.00     0.00  -0.00   0.00
     2   8     0.00  -0.00  -0.00     0.00   0.00   0.00    -0.00   0.00  -0.00
     3   8    -0.00  -0.00  -0.00    -0.00   0.00   0.00    -0.00   0.00   0.00
     4   1     0.05   0.02   0.00     0.00  -0.00   0.00     0.00  -0.00  -0.00
     5   7     0.04   0.01  -0.00     0.02  -0.08   0.00     0.00  -0.00  -0.08
     6   1    -0.29   0.51  -0.02    -0.45   0.67  -0.03    -0.00   0.00  -0.02
     7   1    -0.12  -0.29   0.48     0.12   0.19  -0.35    -0.19  -0.36   0.57
     8   1    -0.11  -0.32  -0.46     0.11   0.21   0.33     0.18   0.40   0.55
     9   1     0.00  -0.00  -0.00     0.00   0.00   0.00    -0.00   0.00  -0.00

 -------------------
 - Thermochemistry -
 -------------------
 Temperature   298.150 Kelvin.  Pressure   1.00000 Atm.
 Atom     1 has atomic number  6 and mass  12.00000
 Atom     2 has atomic number  8 and mass  15.99491
 Atom     3 has atomic number  8 and mass  15.99491
 Atom     4 has atomic number  1 and mass   1.00783
 Atom     5 has atomic number  7 and mass  14.00307
 Atom     6 has atomic number  1 and mass   1.00783
 Atom     7 has atomic number  1 and mass   1.00783
 Atom     8 has atomic number  1 and mass   1.00783
 Atom     9 has atomic number  1 and mass   1.00783
 Molecular mass:    63.03203 amu.
 Principal axes and moments of inertia in atomic units:
                           1         2         3
     Eigenvalues --    52.65604 729.09071 772.20107
           X            0.99999   0.00526  -0.00001
           Y           -0.00526   0.99999   0.00002
           Z            0.00001  -0.00002   1.00000
 This molecule is an asymmetric top.
 Rotational symmetry number  1.
 Rotational temperatures (Kelvin)      1.64490     0.11880     0.11216
 Rotational constants (GHZ):          34.27415     2.47533     2.33714
 Zero-point vibrational energy     186835.7 (Joules/Mol)
                                   44.65481 (Kcal/Mol)
 Warning -- explicit consideration of   6 degrees of freedom as
           vibrations may cause significant error
 Vibrational temperatures:     34.26   124.31   163.39   317.03   443.45
          (Kelvin)            493.27   998.46  1433.59  1505.39  1638.35
                             1722.57  2039.57  2095.38  2400.58  2401.75
                             2608.23  4324.08  4705.86  5029.81  5228.80
                             5234.22
 
 Zero-point correction=                           0.071162 (Hartree/Particle)
 Thermal correction to Energy=                    0.077905
 Thermal correction to Enthalpy=                  0.078849
 Thermal correction to Gibbs Free Energy=         0.040065
 Sum of electronic and zero-point Energies=           -245.887653
 Sum of electronic and thermal Energies=              -245.880910
 Sum of electronic and thermal Enthalpies=            -245.879966
 Sum of electronic and thermal Free Energies=         -245.918750
 
                     E (Thermal)             CV                S
                      KCal/Mol        Cal/Mol-Kelvin    Cal/Mol-Kelvin
 Total                   48.886             19.201             81.628
 Electronic               0.000              0.000              0.000
 Translational            0.889              2.981             38.342
 Rotational               0.889              2.981             24.898
 Vibrational             47.109             13.240             18.388
 Vibration     1          0.593              1.985              6.288
 Vibration     2          0.601              1.959              3.740
 Vibration     3          0.607              1.938              3.207
 Vibration     4          0.647              1.810              1.956
 Vibration     5          0.698              1.658              1.372
 Vibration     6          0.722              1.590              1.199
                       Q            Log10(Q)             Ln(Q)
 Total Bot       0.372791D-18        -18.428534        -42.433268
 Total V=0       0.201220D+15         14.303672         32.935421
 Vib (Bot)       0.307499D-30        -30.512156        -70.256835
 Vib (Bot)    1  0.869792D+01          0.939415          2.163084
 Vib (Bot)    2  0.238111D+01          0.376780          0.867569
 Vib (Bot)    3  0.180213D+01          0.255786          0.588968
 Vib (Bot)    4  0.897563D+00         -0.046935         -0.108072
 Vib (Bot)    5  0.614146D+00         -0.211728         -0.487522
 Vib (Bot)    6  0.540637D+00         -0.267094         -0.615007
 Vib (V=0)       0.165978D+03          2.220050          5.111854
 Vib (V=0)    1  0.921228D+01          0.964367          2.220537
 Vib (V=0)    2  0.293304D+01          0.467319          1.076041
 Vib (V=0)    3  0.237020D+01          0.374786          0.862976
 Vib (V=0)    4  0.152743D+01          0.183962          0.423589
 Vib (V=0)    5  0.129194D+01          0.111244          0.256148
 Vib (V=0)    6  0.123640D+01          0.092160          0.212206
 Electronic      0.100000D+01          0.000000          0.000000
 Translational   0.196696D+08          7.293796         16.794585
 Rotational      0.616348D+05          4.789826         11.028981

     ==================================================
      Anharmonic Data: Displacement Vectors Definition
     ==================================================

 Framework definition based on atomic masses: C1  

 **********************************************************************

                  Harmonic vibro-rotational analysis

 **********************************************************************


     ==================================================
               Analysis of the Rotor Symmetry
     ==================================================

 Framework Group : C1  
 Rotor Type      : Asymmetric Top
 Asymm. param.   : Kappa = -0.991346
 Inertia moments : X=    14.74519 , Y=   204.16619 , Z=   216.23832
 Representation  : IIIr Representation, Ix < Iy < Iz

 Axes Definition for the Symmetric-Top Representation
 ----------------------------------------------------
 Axis Z automatically chosen to be collinear with X from Eckart orient.
 NOTE: In Vibro-rotational analysis, this will be referred to as the
       spectroscopic orientation.

     ==================================================
        Vibro-Rotational Analysis Based on Symmetry
     ==================================================

 Input/Output information
 ------------------------
 Normal modes will be PRINTED in DESCENDING order (imag. freq. first)
   and sorted by irreducible representation
 The connection between this new numbering (A) and the one used before
   (H) is reported in the present equivalency table:
 ----+------+------+------+------+------+------+------+------+------+
 (H) |     1|     2|     3|     4|     5|     6|     7|     8|     9|
 (A) |    21|    20|    19|    18|    17|    16|    15|    14|    13|
 ----+------+------+------+------+------+------+------+------+------+
 ----+------+------+------+------+------+------+------+------+------+
 (H) |    10|    11|    12|    13|    14|    15|    16|    17|    18|
 (A) |    12|    11|    10|     9|     8|     7|     6|     5|     4|
 ----+------+------+------+------+------+------+------+------+------+
 ----+------+------+------+
 (H) |    19|    20|    21|
 (A) |     3|     2|     1|
 ----+------+------+------+

 Normal modes will be READ in ASCENDING order (imag. freq. first)

     ==================================================
                   Coriolis Couplings
     ==================================================

 Coriolis Couplings along the X axis
 -----------------------------------
[...]
 .00009096,0.00022400,0.00015663,-0.00000376,-0.00025477,0.00017631,-0.
 00005727,0.00043377,0.00000555,-0.00017422,-0.00039756,-0.00011806,0.0
 0027697,-0.00002970,0.00007241,0.00010367,0.00001608,-0.00007288,-0.00
 010950,-0.00003801,0.00017908,0.00045429,0.00001016,-0.00015604,-0.000
 13091,0.00000294,0.00010249,-0.00015987,-0.00002875,-0.00014654,-0.000
 08660,-0.00000990,-0.00022949,0.00020417,-0.00016722,0.00014964,-0.000
 03059,0.00014414,-0.00007029,0.00004744,-0.00001773,0.00028004,-0.0000
 4689,-0.00003380,-0.00005629,0.00000468,0.00001986,0.00000696,0.000013
 72,0.00003940,0.00002011,-0.00000098,-0.00005807,0.00003597,0.00003092
 ,-0.00004162,-0.00030525,-0.00032196,0.00008178,0.00009606,0.00010215,
 0.00012194,0.00002632,-0.00002044,-0.00022517,0.00010627,0.00024584,-0
 .14613213,-1.45440771,-0.00009055,0.01141475,-0.00789706,0.00000224,-0
 .00723527,0.04007341,0.00000210,-0.00193075,-0.00327496,0.00000156,-0.
 00041868,0.00114149,-0.00002772,-0.00036792,0.00002957,0.00001311,0.00
 038484,-0.00011044,-0.00008390,0.00042058,-0.00010887,0.00009570,0.143
 86459,-1.45829092,-2.31183675,-0.00017018,0.04105228,0.01815771,0.0000
 1050,-0.00614427,0.01578596,0.00000120,-0.00193378,0.00298065,0.000001
 80,0.00059992,-0.00026949,-0.00001896,0.00031151,0.00022037,0.00000542
 ,-0.00007187,-0.00023814,-0.00005656,-0.00007751,-0.00025104,0.0000698
 5,1.42455461,2.27545075,-0.00007960,-0.00014777,0.61548943,-0.00000718
 ,-0.00000614,0.00839447,0.00000127,-0.00000643,0.01076994,-0.00000181,
 0.00000133,-0.00221251,0.00000044,-0.00001335,0.00027535,0.00000466,0.
 00000443,0.00011203,-0.00028548,0.00005089,-0.00004521,0.00028024,-0.0
 0003990,-0.00005395,0.00008746,0.00015692,-0.63272956,0.00128137,0.014
 56103,-0.04819935,0.00000089,-0.00002584,0.00598898,-0.00007643,0.0000
 6507,0.00000071,0.00523800,0.00175034,0.01257293,0.00000890,-0.0058859
 0,-0.00615848,-0.00000211,0.00000680,0.00427294,0.00000196,-0.00000458
 ,-0.00725094,-0.00638217,-0.02148307,0.00000062,-0.00508789,0.00834584
 ,0.00000174,4.72554033,-0.05994245,0.03257944,0.00001069,0.00564153,0.
 00254545,0.00000114,2.31394631,-0.21440132,-0.00000269,0.00001820,-0.0
 2252619,-0.00000002,-0.00000021,0.00201667,0.00118568,0.00045490,-1.10
 377183,-0.00211006,0.02981247,-0.00000263,0.00959548,-0.01090144,-0.00
 000231,-4.71294796,-2.27446896,-0.00117915,4.65931038,0.04741106,0.004
 15870,0.00000115,0.00424068,-0.00814181,-0.00000305,-2.30503508,0.1818
 6862,-0.00046526,2.23770490,-0.15533225,0.00000611,-0.00000791,0.00712
 220,-0.00000508,-0.00000536,0.00194246,-0.00119904,-0.00044783,1.12253
 095,0.00117440,0.00044889,-1.09446380,0.00420132,-0.01759922,-0.000001
 83,-0.00732010,0.00610277,0.00000081,-0.00001004,0.00963122,-0.0000014
 2,0.03330210,0.01911584,0.00001543,0.01339755,0.00090197,-0.00361335,-
 0.00000485,-0.00235770,0.00121209,-0.00000123,0.00143002,0.00226576,0.
 00001090,0.02346834,-0.02833793,-0.00007467,-0.01502315,0.03952200,0.0
 0000808,-0.00000094,0.00060078,0.00000452,0.00000410,-0.00051580,0.000
 01963,-0.00000544,0.00090531,0.00000783,-0.00005996,-0.03738040,-0.000
 07123,0.00020586,0.04913611,0.00037577,-0.00177737,0.00000352,-0.00038
 016,0.00053665,-0.00000473,-0.00053704,0.00085894,0.00002197,-0.001176
 37,0.01053530,-0.00035625,-0.01128792,-0.01512420,0.00041213,0.0092553
 4,0.00088919,-0.00130313,0.00000046,-0.00072643,0.00033333,0.00000005,
 -0.00154365,0.00016949,0.00000609,0.00221372,0.00585152,-0.00020545,0.
 00137221,-0.01254063,0.00046733,0.00125760,0.00616078,-0.00003069,0.00
 003612,0.00001667,0.00002347,-0.00000780,0.00000593,0.00005709,-0.0000
 1355,-0.00028543,-0.00006771,-0.00015481,-0.00112761,-0.00014095,0.000
 38218,0.00199586,0.00002598,-0.00025596,-0.00200701,0.00066115,-0.0015
 1952,-0.00014657,-0.00077516,0.00042860,0.00009502,-0.00023461,0.00079
 672,-0.00033168,0.00535940,-0.00290943,0.00959075,-0.01589527,0.002847
 52,-0.01383741,0.00188286,-0.00167619,0.00005581,0.00761194,-0.0002610
 4,0.00042758,-0.00002648,0.00020575,-0.00008261,0.00001833,0.00093127,
 -0.00010532,-0.00004587,-0.00045137,-0.00203862,0.00026083,-0.00357367
 ,0.00077111,0.00231796,0.00161199,0.00058468,0.00023564,0.00098850,-0.
 00068111,0.00084347,-0.00090533,0.00001555,-0.00068769,0.00019833,0.00
 000677,-0.00122729,0.00028016,-0.00029455,0.00354245,-0.00081279,0.002
 16992,-0.00144246,0.00471240,-0.00779955,-0.00147524,0.00003182,0.0006
 6786,0.00255260,-0.00315133,0.00475820,0.00066719,-0.00151860,0.000146
 61,-0.00079319,0.00042810,-0.00009276,-0.00019837,0.00080249,0.0003132
 6,0.00565350,-0.00349198,-0.00923724,-0.01616331,0.00383854,0.01346928
 ,0.00184975,-0.00169219,0.00007198,0.00136411,0.00060410,-0.00208643,0
 .00758992,-0.00032275,0.00049667,0.00003263,0.00024931,-0.00009497,-0.
 00001655,0.00101907,-0.00013286,0.00002132,-0.00066584,-0.00197900,0.0
 0003533,-0.00339705,0.00025032,-0.00293008,0.00173099,0.00057918,-0.00
 021829,0.00073129,0.00123986,-0.00043594,0.00071521,-0.00023647,-0.000
 82372,0.00087256,0.00000659,0.00066369,-0.00019370,0.00000773,0.001166
 41,-0.00026750,-0.00028350,-0.00348715,0.00103586,0.00191223,0.0016442
 7,-0.00522886,-0.00709169,0.00137271,-0.00004672,0.00070889,0.00206580
 ,0.00038524,0.00049117,-0.00262620,0.00352129,0.00425751,0.00138186,-0
 .00054076,-0.00000131,-0.00040052,-0.00080498,0.00000238,-0.00014223,0
 .00273418,-0.00000596,0.00301350,-0.00757127,0.00001092,-0.00022434,0.
 00001868,-0.00001284,0.00001778,-0.00009427,0.00000500,0.00002557,-0.0
 0005552,-0.00001943,0.00003040,-0.00006021,0.00002421,-0.00370201,-0.0
 0498741,0.00288048,0.00000333,-0.00143231,-0.00218593,-0.00000092,0.00
 238932,-0.00478927,-0.00000007,-0.00671184,0.00395078,-0.00000383,0.00
 337107,0.00047057,0.00000117,0.00037009,0.00016480,-0.00000353,0.00031
 251,-0.00011555,0.00008269,0.00031433,-0.00012271,-0.00007818,0.006374
 20,-0.00025314,0.00000065,0.00000633,0.00450249,-0.00000158,0.00000033
 ,-0.00048572,-0.00000484,-0.00001256,0.00170856,0.00001427,0.00000995,
 -0.00270596,-0.00000262,-0.00000173,0.00014945,-0.00000009,0.00000239,
 0.00002482,-0.00004430,0.00000570,-0.00001540,0.00004148,-0.00000974,-
 0.00000895,-0.00000297,-0.00000067,-0.00316929,-0.00058534,-0.00010900
 ,0.00077357,-0.00000022,-0.00000263,-0.00066080,0.00062282,-0.00016140
 ,0.00000081,-0.00084216,-0.00011247,-0.00010400,0.00000066,0.00022401,
 0.00009850,-0.00000007,0.00000116,-0.00001343,-0.00000046,-0.00000053,
 0.00018785,-0.00016846,0.00153790,-0.00000056,0.00055998,-0.00047956,-
 0.00000002,0.01269232,0.00000183,-0.00042356,0.00000050,0.00006649,-0.
 00003753,-0.00000053,0.00524510,0.00038713,0.00000160,0.00000160,0.000
 67703,-0.00000055,-0.00000033,-0.00017867,0.00000036,0.00000121,-0.002
 82343,0.00054897,-0.00185087,-0.00000248,-0.00060623,0.00054031,0.0000
 0066,-0.01523961,-0.00593410,-0.00000052,0.01678439,0.00037306,-0.0005
 6759,-0.00000017,-0.00026855,0.00016214,-0.00000002,-0.00707038,0.0003
 0795,-0.00000171,0.00813601,-0.00072965,-0.00000220,-0.00000220,-0.000
 01916,0.00000062,0.00000002,0.00000433,-0.00000054,-0.00000123,0.00283
 869,-0.00000169,0.00000751,-0.00385538,-0.00085619,0.00102970,0.000003
 47,0.00049675,-0.00020081,-0.00000063,0.00264453,0.00039799,0.00000206
 ,-0.00220389,-0.00123571,-0.00000662,-0.04170718,-0.00019689,0.0003522
 0,0.00000324,0.00014257,-0.00010496,0.00000018,0.00097040,-0.00020012,
 -0.00000412,-0.00067643,-0.00000116,-0.00000404,-0.37900590,1.47218420
 ,0.00000313,0.00000229,-0.00005098,-0.00000266,-0.00000044,0.00002048,
 -0.00000048,0.00000014,-0.00042871,0.00000312,0.00000117,0.00036949,0.
 00260254,-0.00345835,1.47758851,0.00037224,-0.00014833,0.00000272,-0.0
 0016255,0.00000088,-0.00000105,-0.00021933,-0.00017682,0.00000573,0.00
 034359,0.00058401,-0.00001101,-0.28707919,0.91847080,-0.03486925,0.258
 87604,-0.00081326,0.00091238,0.00000076,0.00058108,-0.00015006,-0.0000
 0080,0.00106435,-0.00053702,0.00000441,-0.00223424,-0.00005881,-0.0000
 2073,0.87312901,-1.00879449,0.04976798,-0.89768944,1.00780070,0.000029
 45,-0.00002591,0.00001101,-0.00002117,0.00000339,-0.00001325,-0.000036
 72,0.00001296,0.00001520,0.00007421,0.00000775,0.00005691,-0.03332387,
 0.05004310,0.29170222,0.03410990,-0.05052284,-0.31034732,0.00001035,-0
 .00008664,-0.00005497,0.00001382,0.00001270,0.00002198,-0.00008252,0.0
 0009547,-0.00015033,0.00013833,-0.00021935,0.00058675,0.15935858,-0.26
 073111,0.43462277,0.01398673,0.01253090,-0.01537860,-0.18573993,0.0004
 6089,-0.00035603,-0.00001410,-0.00029675,0.00004795,-0.00000096,-0.000
 53028,0.00018213,-0.00001272,0.00082520,0.00038907,-0.00000448,-0.2392
 6696,-0.17988329,0.74709829,-0.01044581,0.00092219,0.02663856,0.246317
 24,0.16388296,-0.00081202,0.00072063,0.00001216,0.00055154,-0.00010881
 ,0.00000382,0.00093622,-0.00034900,-0.00000282,-0.00144297,-0.00068400
 ,0.00031812,0.39592620,0.74007257,-0.93210061,0.00722350,-0.01091466,0
 .00871934,-0.41102426,-0.75060848,0.92694843,-0.00000733,-0.00007598,0
 .00005013,0.00001979,0.00001047,-0.00002064,-0.00007405,0.00010371,0.0
 0014347,0.00014203,-0.00026669,-0.00056645,0.16930662,-0.27890988,-0.4
 0235943,0.01387346,0.01340076,0.01454782,0.01232448,0.00292856,0.00865
 902,-0.19557767,0.00051431,-0.00041435,0.00001082,-0.00033059,0.000058
 92,0.00000160,-0.00059286,0.00021325,0.00001148,0.00092196,0.00043068,
 0.00002422,-0.25478826,-0.28348717,-0.79340990,-0.01057467,-0.00008976
 ,-0.02615649,0.00205595,0.01484109,0.02185701,0.26278446,0.26847450,0.
 00077839,-0.00069534,0.00000873,-0.00052741,0.00010573,0.00000199,-0.0
 0089762,0.00033537,-0.00000430,0.00136831,0.00066985,0.00030319,-0.365
 20088,-0.78665446,-0.83711969,-0.00646011,0.01168822,0.00983903,-0.008
 62835,-0.02310054,-0.00388737,0.37954905,0.79766470,0.83086842,0.00006
 295,-0.00013534,0.00000110,-0.00010220,0.00000447,0.00000023,-0.000112
 83,0.00020029,-0.00000181,0.00009238,-0.00003236,0.00000114,0.00003996
 ,-0.00006356,0.00000026,0.00000902,0.00003082,-0.00000103,-0.00000984,
 0.00000793,-0.00001722,-0.00000734,0.00000969,0.00001861,0.00002789,-0
 .00011851,-0.00017264,0.00000092,0.00004316,0.00002906,-0.00000009,-0.
 00014464,0.00010778,0.00000020,0.00027213,0.00006737,0.00000094,-0.000
 05905,-0.00006523,-0.00000120,-0.00002062,-0.00000512,-0.00000053,0.00
 002485,-0.00002608,0.00001476,0.00002459,-0.00002716,-0.00001352,-0.00
 002192,0.00009206,0.00000193,0.00000040,0.00003546,-0.00000072,0.00000
 031,-0.00001311,-0.00000064,0.00000059,-0.00009297,0.00000136,-0.00000
 038,-0.00001621,-0.00000226,0.00000188,0.00001930,-0.00000042,-0.00000
 232,0.00001686,0.00000501,0.00000445,-0.00001107,-0.00000299,-0.000003
 46,-0.00001004,-0.00000127,-0.00000147,0.00007177,0.00036484,-0.000007
 76,-0.00073503,0.00000522,0.00000067,-0.00007587,-0.00030522,0.0001952
 6,-0.00000454,0.00023948,-0.00002051,0.00021784,0.00000060,-0.00007576
 ,-0.00013959,-0.00000207,-0.00000079,-0.00000257,0.00000131,0.00000028
 ,0.00001637,-0.00024834,-0.00023497,-0.00000133,0.00005399,0.00008604,
 -0.00000039,0.00016836,0.00007051,0.00030121,-0.00000048,-0.00014318,-
 0.00001104,-0.00000014,0.00007894,-0.00029228,-0.00000104,-0.00000045,
 -0.00003755,0.00000128,-0.00000063,0.00000870,0.00000535,0.00000257,-0
 .00000638,-0.00000773,0.00004963,-0.00000092,0.00010466,-0.00002155,0.
 00000061,0.00026352,-0.00002947,-0.00000158,-0.00080204,0.00004002,-0.
 00004968,0.00000089,0.00001377,0.00000772,-0.00000108,-0.00019081,-0.0
 0013088,0.00000096,0.00043353,0.00015130,-0.00000436,0.00000427,0.0000
 2151,0.00000273,-0.00000105,0.00002289,0.00000336,0.00000250,0.0000655
 1,-0.00000938,-0.00000007,-0.00021028,0.00026911,-0.00020873,0.0000004
 4,-0.00033971,0.00004816,-0.00000005,-0.00003751,0.00037183,0.00000102
 ,-0.00004420,-0.00013509,-0.00000429,0.43952845,0.00052469,-0.00195112
 ,0.00000230,-0.00048688,0.00047047,0.00000205,-0.00057093,0.00247916,-
 0.00003089,0.00288748,-0.00206982,0.00005103,-1.61041359,2.14454081,-0
 .00001005,0.00005202,-0.00005012,0.00000749,-0.00001248,-0.00001351,0.
 00001258,-0.00006104,0.00042174,-0.00006230,0.00004710,-0.00106670,0.0
 4609971,-0.08614815,0.35397872,0.00037732,-0.00063039,0.00000416,-0.00
 011499,0.00015097,-0.00000133,-0.00089830,-0.00002267,-0.00000432,0.00
 098326,0.00017142,0.00000835,-0.61321224,1.91083614,-0.07284407,0.6067
 1585,-0.00030697,0.00136692,0.00000144,0.00024281,-0.00034447,-0.00000
 058,0.00016366,-0.00162162,0.00002920,-0.00180716,0.00156069,-0.000064
 25,1.89665481,-1.99572473,0.10314802,-1.88721713,1.98339868,0.00001379
 ,-0.00006247,-0.00002323,-0.00000675,0.00001627,0.00001445,-0.00001473
 ,0.00005677,0.00013595,0.00005244,-0.00004827,-0.00001744,-0.07241311,
 0.10333264,0.69994617,0.07198400,-0.10212233,-0.68634330,-0.00019241,0
 .00030406,0.00000046,0.00013280,-0.00007426,-0.00000018,0.00031029,-0.
 00010981,-0.00000733,-0.00022994,-0.00013723,0.00003523,0.08547978,-0.
 14798090,0.27307440,0.00298407,-0.00386775,0.00087988,-0.09678806,-0.0
 0015635,0.00031957,-0.00000808,0.00014561,-0.00006693,0.00000391,0.000
 31703,-0.00034990,-0.00007192,-0.00077338,0.00026250,0.00020144,-0.140
 53317,-0.04736996,0.41541950,-0.01148916,0.00589489,0.00286744,0.15281
 333,0.03322408,-0.00026773,-0.00006698,0.00001417,0.00016255,0.0000556
 7,0.00000191,-0.00000324,0.00006332,-0.00026820,-0.00048832,-0.0004054
 1,0.00060805,0.25451143,0.40283009,-0.56045464,0.00494180,-0.00012859,
 -0.00691798,-0.26643791,-0.40995114,0.56941353,-0.00019732,0.00031086,
 -0.00000170,0.00013629,-0.00007523,0.00000110,0.00032477,-0.00010622,0
 .00000816,-0.00024882,-0.00015363,-0.00003387,0.08833378,-0.15474916,-
 0.24627682,0.00316121,-0.00391178,-0.00049226,0.00829586,-0.00031234,0
 .00757469,-0.09981745,-0.00013999,0.00031693,0.00000463,0.00013621,-0.
 00006871,-0.00000480,0.00031311,-0.00035027,0.00006995,-0.00073244,0.0
 0028138,-0.00019249,-0.14583968,-0.10062693,-0.43243786,-0.01185330,0.
 00566549,-0.00405054,-0.00091011,0.00810712,0.00753605,0.15903556,0.08
 669890,0.00026908,0.00007606,0.00001097,-0.00016594,-0.00005896,0.0000
 0165,-0.00000106,-0.00006285,-0.00025550,0.00050901,0.00040295,0.00059
 438,-0.22819485,-0.42004118,-0.49279611,-0.00409149,-0.00085686,-0.006
 74444,-0.00753187,-0.00846626,-0.00241678,0.23920939,0.42907774,0.5015
 8977,-0.00006024,0.00022209,-0.00000179,0.00009274,-0.00001788,0.00000
 100,0.00006330,-0.00010998,-0.00000155,-0.00001878,-0.00004192,0.00000
 221,0.00002252,-0.00004687,-0.00000094,0.00000384,0.00004950,-0.000003
 26,0.00000761,-0.00001156,0.00000672,0.00001167,-0.00000937,-0.0000022
 7,-0.00012264,-0.00000369,0.00021331,-0.00000197,-0.00002784,-0.000065
 27,0.00000115,0.00003793,-0.00002436,0.00000121,-0.00000666,-0.0000132
 3,-0.00000138,0.00005546,0.00025210,-0.00000711,0.00005411,-0.00019585
 ,0.00001049,-0.00003732,-0.00002137,0.00006700,-0.00003806,-0.00002389
 ,-0.00007063,-0.00003397,-0.00012138,-0.00000285,-0.00000234,0.0001426
 8,0.00000185,0.00000030,-0.00004986,-0.00000054,-0.00000064,-0.0000642
 6,0.00000044,0.00000293,-0.00001793,-0.00000031,0.00000207,0.00003453,
 0.00000290,-0.00000604,-0.00005018,-0.00001267,0.00000515,0.00001992,0
 .00001131,-0.00000267,0.00001602,-0.00000012,0.00000124,-0.00003092,-0
 .00032555,0.00067286,-0.00013479,-0.00001133,-0.00000449,-0.00049680,-
 0.00000132,-0.00029382,0.00000872,0.00023761,-0.00010684,-0.00001731,0
 .00000100,0.00001111,-0.00011035,0.00000370,0.00000237,0.00021446,-0.0
 0000401,-0.00000257,-0.00020097,0.00040183,-0.00027654,0.00000650,-0.0
 0028231,0.00003176,-0.00000304,-0.00063913,-0.00050728,0.00034270,0.00
 000098,0.00020641,0.00009702,0.00000002,0.00028400,-0.00033081,0.00002
 036,-0.00000281,0.00030957,-0.00000127,0.00000199,-0.00000994,-0.00001
 057,-0.00001032,-0.00043208,-0.00010221,-0.00017056,-0.00000579,-0.000
 00427,0.00010257,0.00000135,0.00018173,0.00004060,-0.00000150,0.000217
 83,-0.00004575,0.00014755,-0.00000204,0.00007731,-0.00003774,0.0000006
 4,0.00010129,-0.00016862,0.00000510,-0.00007972,-0.00001857,-0.0000097
 0,-0.00000472,0.00000926,-0.00000006,-0.00000006,0.00001771,0.00000080
 ,0.00000866,0.00014702,0.00000982,-0.00000846,-0.00032010,0.00067847,-
 0.00030860,0.00000393,-0.00040267,-0.00000346,-0.00000123,0.00067311,0
 .00027020,0.00001361,-0.00034889,0.00069435,-0.00000873,-0.59425626,-0
 .00061485,0.00007008,-0.00000111,0.00038842,0.00010112,0.00000012,-0.0
 0013475,-0.00019693,0.00002413,-0.00086556,-0.00116507,-0.00005752,0.9
 7730168,0.74702329,0.00001987,-0.00006152,-0.00005718,-0.00001161,0.00
 001540,-0.00001516,-0.00002042,0.00005807,0.00110919,0.00006111,-0.000
 03918,-0.00262583,-0.04500012,0.09202074,2.79345686,-0.00027062,0.0002
 3580,-0.00000302,0.00020585,-0.00002132,0.00000128,0.00065650,0.000059
 08,-0.00000278,-0.00058377,-0.00035276,-0.00000191,0.00018062,-0.01081
 008,0.00014279,-0.00455381,-0.00015549,0.00033395,0.00000389,0.0000527
 7,-0.00012275,-0.00000059,0.00021387,-0.00010457,-0.00000117,-0.000324
 13,-0.00001932,0.00001337,-0.03453815,0.00623057,-0.00058654,0.0062670
 1,-0.00081551,0.00000395,0.00000223,0.00002579,-0.00000277,0.00000019,
 -0.00000773,0.00000548,-0.00000140,-0.00022211,0.00000270,0.00001243,0
 .00059230,0.00097558,-0.00049542,-0.01755354,0.00006417,-0.00061263,-0
 .00377403,-0.00010301,0.00011551,-0.00006956,0.00003232,-0.00001637,0.
 00002995,-0.00054680,-0.00016276,-0.00014357,0.00037943,-0.00017225,0.
 00042694,0.28587519,-0.46421899,0.72553725,0.00231215,0.01393391,-0.00
 869307,-0.28497583,0.00046000,-0.00032967,-0.00002995,-0.00025413,0.00
 003879,0.00001123,-0.00015336,0.00021854,0.00040338,0.00065309,0.00060
 969,-0.00074505,-0.45379116,-0.28474307,1.27237296,0.00231296,-0.00285
 574,0.00185633,0.44897834,0.29140356,-0.00018068,-0.00002451,0.0000186
 4,0.00013702,0.00002524,0.00000547,-0.00031736,-0.00008200,-0.00045121
 ,-0.00003394,-0.00032922,0.00113527,0.71058028,1.27716501,-1.45829247,
 0.00182027,-0.00542850,0.01055432,-0.71449881,-1.27309314,1.44117693,-
 0.00010561,0.00012713,0.00006724,0.00002986,-0.00001978,-0.00002959,-0
 .00057564,-0.00016477,0.00013811,0.00041056,-0.00019967,-0.00042233,0.
 30749278,-0.50089492,-0.68072061,0.00212938,0.01444362,0.00764600,-0.0
 0296358,0.00178104,0.00249131,-0.30640808,0.00047256,-0.00028074,0.000
 02898,-0.00026161,0.00002421,-0.00001139,-0.00011308,0.00018421,-0.000
 42638,0.00063275,0.00067089,0.00079142,-0.48958885,-0.46747087,-1.3637
 8941,0.00229769,-0.00257235,-0.00075968,0.00157701,-0.00431081,0.00168
 774,0.48496352,0.47380389,0.00015830,0.00008456,0.00000710,-0.00011990
 ,-0.00004004,0.00000641,0.00033865,0.00002468,-0.00041013,-0.00004261,
 0.00035678,0.00106890,-0.66655593,-1.36865663,-1.31595764,-0.00202480,
 0.00661759,0.01035882,-0.00258587,-0.00073220,0.00583657,0.67082755,1.
 36243172,1.29907867,-0.00017201,-0.00010177,0.00000331,0.00018496,0.00
 002233,0.00000159,0.00013071,-0.00002553,-0.00001238,-0.00015043,-0.00
 002275,0.00000518,0.00010766,-0.00015096,-0.00000825,-0.00007628,0.000
 10657,-0.00000205,-0.00000987,0.00001325,0.00000189,-0.00000969,0.0000
 2003,0.00000461,-0.00000505,-0.00017528,-0.00013179,0.00000274,0.00007
 355,0.00002701,0.00000016,0.00004686,-0.00004152,0.00000609,0.00001092
 ,-0.00001883,0.00000236,-0.00003599,0.00015083,0.00000948,0.00001164,-
 0.00007426,-0.00000205,-0.00003441,-0.00003128,0.00007937,-0.00003617,
 -0.00004841,-0.00008646,0.00013888,0.00016828,-0.00000448,0.00000889,-
 0.00003083,-0.00000610,-0.00000116,-0.00001023,-0.00000004,0.00000132,
 -0.00004031,0.00000886,0.00000396,-0.00002454,-0.00000738,0.00000068,-
 0.00006419,0.00000400,-0.00000542,0.00002618,-0.00000326,-0.00004354,0
 .00001646,0.00000231,0.00004697,0.00001126,0.00000610,-0.00001171,0.00
 011618\\@
 The archive entry for this job was punched.


 LIFE IS A CONTINUAL STRUGGLE AGAINST THE TENDENCY TO PRODUCE ENTROPY.
 Job cpu time:      25 days  4 hours 22 minutes 27.1 seconds.
 Elapsed time:       0 days 15 hours 24 minutes  7.0 seconds.
 File lengths (MBytes):  RWF=  20849 Int=      0 D2E=      0 Chk=     53 Scr=      1
 Normal termination of Gaussian 16 at Sun Mar 30 00:31:50 2025.
